nid04576 10.128.18
Q-Chem Developer Version! Running on 10.128.18.*
                  Welcome to Q-Chem
     A Quantum Leap Into The Future Of Chemistry


 Q-Chem 5.0, Q-Chem, Inc., Pleasanton, CA (2017)

 Yihan Shao,  Zhengting Gan,  E. Epifanovsky,  A. T. B. Gilbert,  M. Wormit,  
 J. Kussmann,  A. W. Lange,  A. Behn,  Jia Deng,  Xintian Feng,  D. Ghosh,  
 M. Goldey,  P. R. Horn,  L. D. Jacobson,  I. Kaliman,  T. Kus,  A. Landau,  
 Jie Liu,  E. I. Proynov,  R. M. Richard,  R. P. Steele,  E. J. Sundstrom,  
 H. L. Woodcock III,  P. M. Zimmerman,  D. Zuev,  B. Albrecht,  E. Alguire,  
 S. A. Baeppler,  Z. Benda,  Y. A. Bernard,  E. J. Berquist,  K. B. Bravaya,  
 D. Casanova,  Chun-Min Chang,  Yunqing Chen,  A. Chien,  K. D. Closser,  
 M. P. Coons,  S. Dasgupta,  M. Diedenhofen,  Hainam Do,  R. G. Edgar,  
 Po-Tung Fang,  S. Fatehi,  Qingguo Feng,  Qinghui Ge,  A. Ghysels,  
 J. Gomes,  J. Gonthier,  A. Gunina,  M. W. D. Hanson-Heine,  
 P. H. P. Harbach,  A. W. Hauser,  J. E. Herr,  E. G. Hohenstein,  
 Z. C. Holden,  Kerwin Hui,  T.-C. Jagau,  Hyunjun Ji,  B. Kaduk,  
 K. Khistyaev,  Jaehoon Kim,  P. Klunzinger,  K. Koh,  D. Kosenkov,  
 T. Kowalczyk,  C. M. Krauter,  A. Kunitsa,  Ka Un Lao,  A. Laurent,  
 K. V. Lawler,  Joonho Lee,  D. Lefrancois,  S. Lehtola,  D. S. Levine,  
 Yi-Pei Li,  You-Sheng Lin,  Fenglai Liu,  E. Livshits,  A. Luenser,  
 P. Manohar,  E. Mansoor,  S. F. Manzer,  Shan-Ping Mao,  Yuezhi Mao,  
 N. Mardirossian,  A. V. Marenich,  L. A. Martinez-Martinez,  S. A. Maurer,  
 N. J. Mayhall,  S. C. McKenzie,  J.-M. Mewes,  A. F. Morrison,  K. Nanda,  
 T. S. Nguyen-Beck,  R. Olivares-Amaya,  J. A. Parkhill,  T. M. Perrine,  
 F. Plasser,  S. Prager,  A. Prociuk,  D. R. Rehn,  F. Rob,  M. Schneider,  
 N. Sergueev,  S. M. Sharada,  S. Sharma,  D. W. Small,  T. Stauch,  
 T. Stein,  Yu-Chuan Su,  A. J. W. Thom,  T. Tsuchimochi,  L. Vogt,  
 O. Vydrov,  M. A. Watson,  J. Wenzel,  M. de Wergifosse,  T. A. Wesolowski,  
 A. White,  J. Witte,  A. Yamada,  Jun Yang,  K. Yao,  S. Yeganeh,  
 S. R. Yost,  Zhi-Qiang You,  A. Zech,  Igor Ying Zhang,  Xing Zhang,  
 Yan Zhao,  Ying Zhu,  B. R. Brooks,  G. K. L. Chan,  C. J. Cramer,  
 M. S. Gordon,  W. J. Hehre,  A. Klamt,  M. W. Schmidt,  C. D. Sherrill,  
 D. G. Truhlar,  A. Aspuru-Guzik,  R. Baer,  A. T. Bell,  N. A. Besley,  
 Jeng-Da Chai,  A. Dreuw,  B. D. Dunietz,  T. R. Furlani,  Chao-Ping Hsu,  
 Yousung Jung,  Jing Kong,  D. S. Lambrecht,  WanZhen Liang,  C. Ochsenfeld,  
 V. A. Rassolov,  L. V. Slipchenko,  J. E. Subotnik,  T. Van Voorhis,  
 J. M. Herbert,  A. I. Krylov,  P. M. W. Gill,  M. Head-Gordon

 Contributors to earlier versions of Q-Chem not listed above: 
 R. D. Adamson,  B. Austin,  J. Baker,  G. J. O. Beran,  K. Brandhorst,  
 S. T. Brown,  E. F. C. Byrd,  A. K. Chakraborty,  C.-L. Cheng,  
 Siu Hung Chien,  D. M. Chipman,  D. L. Crittenden,  H. Dachsel,  
 R. A. DiStasio Jr.,  R. J. Doerksen,  A. D. Dutoi,  L. Fusti-Molnar,  
 W. A. Goddard III,  A. Golubeva-Zadorozhnaya,  S. R. Gwaltney,  G. Hawkins,  
 A. Heyden,  S. Hirata,  G. Kedziora,  F. J. Keil,  C. Kelley,  Jihan Kim,  
 R. A. King,  R. Z. Khaliullin,  P. P. Korambath,  W. Kurlancheek,  
 A. M. Lee,  M. S. Lee,  S. V. Levchenko,  Ching Yeh Lin,  D. Liotard,  
 R. C. Lochan,  I. Lotan,  P. E. Maslen,  N. Nair,  D. P. O'Neill,  
 D. Neuhauser,  E. Neuscamman,  C. M. Oana,  R. Olson,  B. Peters,  
 R. Peverati,  P. A. Pieniazek,  Y. M. Rhee,  J. Ritchie,  M. A. Rohrdanz,  
 E. Rosta,  N. J. Russ,  H. F. Schaefer III,  N. E. Schultz,  N. Shenvi,  
 A. C. Simmonett,  A. Sodt,  D. Stuck,  K. S. Thanthiriwatte,  V. Vanovschi,  
 Tao Wang,  A. Warshel,  C. F. Williams,  Q. Wu,  X. Xu,  W. Zhang

 Please cite Q-Chem as follows:
 Y. Shao et al., Mol. Phys. 113, 184-215 (2015)
 DOI: 10.1080/00268976.2014.952696

 Q-Chem 5.0.0 for Intel X86 EM64T Linux

 Parts of Q-Chem use Armadillo 5.200.1 (Boston Tea Smuggler).
 http://arma.sourceforge.net/

 Q-Chem begins on Wed Oct  4 17:29:54 2017  

Host: nid04576
0

     Scratch files written to /global/cscratch1/sd/junteng/scratch/13/opt_1001-o.save//

Checking the input file for inconsistencies... 	...done.

--------------------------------------------------------------
User input:
--------------------------------------------------------------
$molecule
0  1
C    0.656  -1.997   0.550
C   -0.379  -2.055   1.685
C    1.075  -0.633   0.035
C   -0.743  -0.756   2.367
O    2.254  -0.766  -0.643
O    0.466   0.414   0.178
O    0.380  -0.211   2.923
O   -1.879  -0.339   2.537
C    0.159   1.039   3.578
C    2.798   0.433  -1.203
C   -0.074  -2.721  -0.584
C   -0.239  -4.209  -0.268
C   -1.341  -4.194   0.796
C   -1.585  -2.694   0.978
O   -1.425  -2.250  -0.391
H    1.566  -2.528   0.855
H   -0.041  -2.721   2.491
H   -0.505   1.690   2.999
H    2.061   1.233  -1.326
H    0.286  -2.514  -1.595
H   -0.592  -4.755  -1.150
H    0.687  -4.677   0.078
H   -2.237  -4.682   0.398
H   -1.053  -4.703   1.720
H   -2.574  -2.451   1.372
H   -0.249   0.863   4.578
H    1.124   1.543   3.677
H    3.204   0.190  -2.189
H    3.617   0.777  -0.565
$end


$opt
CONSTRAINT
tors    2    1    3    5    157.3
tors    1    2    4    7    -61.6
ENDCONSTRAINT
$end

$rem
JOBTYPE                   OPT
METHOD                    B3LYP
DFT_D                     D3_OP
BASIS                     STO-3G
GEOM_OPT_MAX_CYCLES       500
SYMMETRY                  False
THRESH                    12
SCF_CONVERGENCE           8
MAX_SUB_FILE_NUM          128
MEM_STATIC                400
MEM_TOTAL                 4000
$end

--------------------------------------------------------------
 Adding empirical dispersion correction 
 ----------------------------------------------------------------
 Doing -D3(op) with
 s6 =   1.00000
 s8 =   0.78311
 a1 =   0.30000
 a2 =   4.25000
 n  =  10.00000
 -D3 energy without 3body term =     -0.0301175666 hartrees
 ----------------------------------------------------------------
             Standard Nuclear Orientation (Angstroms)
    I     Atom           X                Y                Z
 ----------------------------------------------------------------
    1      C       0.3697342729    -0.6344652785    -0.5682185024
    2      C       0.5830892856     0.8866305416    -0.5085431759
    3      C      -0.8699014548    -1.2078766031     0.0919214188
    4      C      -0.5598235439     1.7339384151     0.0021824174
    5      O      -1.0906277378    -2.4603631032    -0.4080500553
    6      O      -1.5566019091    -0.6636803128     0.9403504869
    7      O      -1.6498149946     1.5482939899    -0.8007775971
    8      O      -0.4799332706     2.5718972711     0.8880308806
    9      C      -2.8044492191     2.2858543985    -0.3968092184
   10      C      -2.2289112229    -3.1547881210     0.1108156327
   11      C       1.5897974066    -1.1573410878     0.1940667708
   12      C       2.8778742489    -0.9023938644    -0.5914807846
   13      C       3.0736984138     0.6062805862    -0.4118163796
   14      C       1.8273869003     0.9943712392     0.3874040257
   15      O       1.7087539834    -0.1697627505     1.2404077097
   16      H       0.3688686773    -0.9646705244    -1.6141868320
   17      H       0.8207486346     1.2891342672    -1.5030002060
   18      H      -2.9457124994     2.2580152575     0.6891040690
   19      H      -2.5806906233    -2.7639184006     1.0709042303
   20      H       1.5042519872    -2.1684976679     0.6000401094
   21      H       3.7202931181    -1.4355074158    -0.1367617613
   22      H       2.8052766319    -1.2051355012    -1.6399525713
   23      H       3.9784423183     0.7875324718     0.1780566756
   24      H       3.1670514341     1.1432862684    -1.3598201301
   25      H       1.9410338999     1.9133998678     0.9660893801
   26      H      -2.7227111035     3.3187026777    -0.7489218606
   27      H      -3.6791460159     1.8248750106    -0.8631197561
   28      H      -1.9485029726    -4.2023825341     0.2522304790
   29      H      -3.0343825811    -3.1071758873    -0.6274864507
 ----------------------------------------------------------------
 Molecular Point Group                 C1    NOp =  1
 Largest Abelian Subgroup              C1    NOp =  1
 Nuclear Repulsion Energy =  1110.7745787068 hartrees
 There are       57 alpha and       57 beta electrons
 Requested basis set is STO-3G
 There are 44 shells and 89 basis functions

 Total QAlloc Memory Limit   4000 MB
 Mega-Array Size       392 MB
 MEM_STATIC part       400 MB
 A cutoff of  1.0D-12 yielded    865 shell pairs
 There are      3901 function pairs
 
 -------------------------------------------------------
 OpenMP Integral Computing Module                       
 Release: version 1.0, May 2013, Q-Chem Inc. Pittsburgh 
 -------------------------------------------------------
 Integral Job Info:
 Integral job number is                      11
 Integral operator is                         1
 short-range coefficients                     0
 long-range coefficients              100000000
 Omega coefficients                           0
 if combine SR and LR in K                    0
 Integral screening is                        0
 Integral computing path is                   2
 max size of driver memory is            800000
 size of driver memory is                 45569
 size of scratch memory is               945100
 max col of scratch BK array                289
 max len of scratch array in speh3           22
 max len of scratch index in speh4            8
 max int batch size is                      520
 min int batch size is                       52
 fixed nKL is                                52
 max L of basis functions is                  1
 order of int derivative is                   0
 number of shells is                         44
 number of basis is                          89
 number of cartesian basis is                89
 number of contracted shell pairs           865
 number of primitive shell pairs           4854
 maxK2 (contraction) of shell pair            9
 max number of K2 of shell pair               1
 max number of CS2 of shell pair            117
 max number of PS2 of shell pair            570
 mem total for path MDJ                   27818
 -------------------------------------------------------
 Smallest overlap matrix eigenvalue = 1.94E-01

 Scale SEOQF with 1.000000e-01/1.000000e-01/1.000000e-01

 Standard Electronic Orientation quadrupole field applied
 Nucleus-field energy     =     0.0000000330 hartrees
 Guess from superposition of atomic densities
 Warning:  Energy on first SCF cycle will be non-variational
 A restricted hybrid HF-DFT SCF calculation will be
 performed using Pulay DIIS extrapolation
 Exchange:     0.2000 Hartree-Fock + 0.0800 Slater + 0.7200 B88
 Correlation:  0.1900 VWN1RPA + 0.8100 LYP
 Using SG-1 standard quadrature grid
 Dispersion:   Grimme D3
 SCF converges when DIIS error is below 1.0E-08
 -------------------------------------------------------
 OpenMP Integral computing Module                
 Release: version 1.0, May 2013, Q-Chem Inc. Pittsburgh 
 -------------------------------------------------------
 -------------------------------------------------------
 OpenMP BLAS3 based DFT computing Module                
 Release: version 1.0, May 2013, Q-Chem Inc. Pittsburgh 
 -------------------------------------------------------
 ---------------------------------------
  Cycle       Energy         DIIS Error
 ---------------------------------------
    1    -755.1333775847      1.15E-01
    2    -755.4330515638      1.43E-02
    3    -754.4849215495      3.46E-02
    4    -755.6668951176      4.97E-03
    5    -755.6923795685      1.60E-03
    6    -755.6952387513      2.89E-04
    7    -755.6953280194      8.61E-05
    8    -755.6953339718      4.56E-05
    9    -755.6953363169      5.67E-06
   10    -755.6953363555      1.52E-06
   11    -755.6953363583      3.20E-07
   12    -755.6953363584      9.74E-08
   13    -755.6953363584      1.84E-08
   14    -755.6953363584      6.30E-09 Convergence criterion met
 ---------------------------------------
 SCF time:  CPU 60.85 s  wall 2.82 s
 SCF   energy in the final basis set = -755.6953363584
 Total energy in the final basis set = -755.6953363584
 
 --------------------------------------------------------------
 
                    Orbital Energies (a.u.)
 --------------------------------------------------------------
 
 Alpha MOs
 -- Occupied --
-18.943 -18.934 -18.872 -18.868 -18.859 -10.111 -10.104 -10.073
-10.066 -10.061 -10.055 -10.036 -10.033 -10.014 -10.012  -1.042
 -1.033  -0.990  -0.953  -0.945  -0.775  -0.736  -0.726  -0.683
 -0.671  -0.604  -0.551  -0.537  -0.526  -0.488  -0.473  -0.461
 -0.440  -0.428  -0.426  -0.421  -0.415  -0.386  -0.375  -0.365
 -0.353  -0.345  -0.341  -0.326  -0.314  -0.310  -0.301  -0.289
 -0.277  -0.247  -0.240  -0.219  -0.182  -0.172  -0.155  -0.144
 -0.134
 -- Virtual --
  0.113   0.127   0.251   0.273   0.299   0.310   0.345   0.356
  0.375   0.385   0.402   0.409   0.410   0.426   0.432   0.435
  0.443   0.451   0.455   0.460   0.460   0.465   0.475   0.480
  0.491   0.502   0.518   0.541   0.575   0.584   0.702   0.708
 --------------------------------------------------------------
 
          Ground-State Mulliken Net Atomic Charges

     Atom                 Charge (a.u.)
  ----------------------------------------
      1 C                    -0.082971
      2 C                    -0.085571
      3 C                     0.240451
      4 C                     0.242231
      5 O                    -0.189960
      6 O                    -0.229387
      7 O                    -0.191160
      8 O                    -0.229880
      9 C                    -0.125822
     10 C                    -0.130239
     11 C                     0.028296
     12 C                    -0.148142
     13 C                    -0.147404
     14 C                     0.027402
     15 O                    -0.209209
     16 H                     0.089321
     17 H                     0.087279
     18 H                     0.100295
     19 H                     0.102343
     20 H                     0.088273
     21 H                     0.078598
     22 H                     0.072977
     23 H                     0.078897
     24 H                     0.071806
     25 H                     0.097598
     26 H                     0.087949
     27 H                     0.092564
     28 H                     0.092952
     29 H                     0.090514
  ----------------------------------------
  Sum of atomic charges =    -0.000000

 -----------------------------------------------------------------
                    Cartesian Multipole Moments
 -----------------------------------------------------------------
    Charge (ESU x 10^10)
                 0.0000
    Dipole Moment (Debye)
         X      -0.4166      Y      -1.4010      Z      -2.3203
       Tot       2.7423
    Quadrupole Moments (Debye-Ang)
        XX     -73.2573     XY       1.4702     YY     -76.5838
        XZ      -0.8786     YZ      -4.0885     ZZ     -84.4320
    Octopole Moments (Debye-Ang^2)
       XXX     -32.0675    XXY       2.6418    XYY     -21.2123
       YYY     -18.0132    XXZ      -1.5320    XYZ       2.6868
       YYZ       0.4941    XZZ      -5.4483    YZZ      -0.5880
       ZZZ       2.8189
    Hexadecapole Moments (Debye-Ang^3)
      XXXX   -1766.3352   XXXY      -9.1296   XXYY    -491.3941
      XYYY      25.6612   YYYY   -1433.0856   XXXZ      29.3497
      XXYZ       1.9950   XYYZ       9.5677   YYYZ     -42.5702
      XXZZ    -358.3887   XYZZ       4.2414   YYZZ    -298.1186
      XZZZ      -2.0840   YZZZ       6.4186   ZZZZ    -270.9550
 -----------------------------------------------------------------
 Calculating analytic gradient of the SCF energy
 Gradient of SCF Energy
            1           2           3           4           5           6
    1   0.0021799  -0.0079730  -0.0035713  -0.0118003  -0.0264753   0.0361920
    2   0.0147913  -0.0097851  -0.0216101   0.0028776   0.0360793  -0.0275161
    3   0.0422889   0.0229121   0.0047460  -0.0042293   0.0358437  -0.0453326
            7           8           9          10          11          12
    1   0.0164333   0.0007554   0.0161062   0.0147445  -0.0138282  -0.0217591
    2   0.0367505  -0.0371405  -0.0106249   0.0095456   0.0058728   0.0198850
    3   0.0447053  -0.0455882  -0.0072183  -0.0088297  -0.0065146   0.0225080
           13          14          15          16          17          18
    1  -0.0241050  -0.0105318   0.0070337  -0.0006561  -0.0000244   0.0002217
    2  -0.0176790  -0.0004173   0.0029261   0.0044461   0.0029786  -0.0041832
    3   0.0175573  -0.0072092  -0.0670699   0.0053539   0.0078343  -0.0111811
           19          20          21          22          23          24
    1   0.0033618   0.0038078  -0.0013620   0.0001313  -0.0031001  -0.0009921
    2  -0.0087182   0.0089398   0.0060041   0.0020688  -0.0049969  -0.0034859
    3  -0.0085645  -0.0049610  -0.0006986   0.0063589  -0.0026417   0.0059499
           25          26          27          28          29
    1   0.0056966   0.0025947   0.0072903  -0.0031770   0.0128064
    2  -0.0092234  -0.0145968   0.0054778   0.0113557  -0.0000218
    3  -0.0076017  -0.0009062   0.0069966  -0.0001980   0.0056898
 Max gradient component =       6.707E-02
 RMS gradient           =       1.788E-02
 Gradient time:  CPU 24.52 s  wall 1.17 s
 Geometry Optimization Parameters
   NAtoms,    NIC,     NZ,  NCons,   NDum,   NFix, NCnnct, MaxDiis
       29     227       0       2       0       0       0       0


** CONSTRAINED OPTIMIZATION IN DELOCALIZED INTERNAL COORDINATES **
   Searching for a Minimum

   Optimization Cycle:   1

                       Coordinates (Angstroms)
     ATOM                X               Y               Z
      1  C         0.3697342729   -0.6344652785   -0.5682185024
      2  C         0.5830892856    0.8866305416   -0.5085431759
      3  C        -0.8699014548   -1.2078766031    0.0919214188
      4  C        -0.5598235439    1.7339384151    0.0021824174
      5  O        -1.0906277378   -2.4603631032   -0.4080500553
      6  O        -1.5566019091   -0.6636803128    0.9403504869
      7  O        -1.6498149946    1.5482939899   -0.8007775971
      8  O        -0.4799332706    2.5718972711    0.8880308806
      9  C        -2.8044492191    2.2858543985   -0.3968092184
     10  C        -2.2289112229   -3.1547881210    0.1108156327
     11  C         1.5897974066   -1.1573410878    0.1940667708
     12  C         2.8778742489   -0.9023938644   -0.5914807846
     13  C         3.0736984138    0.6062805862   -0.4118163796
     14  C         1.8273869003    0.9943712392    0.3874040257
     15  O         1.7087539834   -0.1697627505    1.2404077097
     16  H         0.3688686773   -0.9646705244   -1.6141868320
     17  H         0.8207486346    1.2891342672   -1.5030002060
     18  H        -2.9457124994    2.2580152575    0.6891040690
     19  H        -2.5806906233   -2.7639184006    1.0709042303
     20  H         1.5042519872   -2.1684976679    0.6000401094
     21  H         3.7202931181   -1.4355074158   -0.1367617613
     22  H         2.8052766319   -1.2051355012   -1.6399525713
     23  H         3.9784423183    0.7875324718    0.1780566756
     24  H         3.1670514341    1.1432862684   -1.3598201301
     25  H         1.9410338999    1.9133998678    0.9660893801
     26  H        -2.7227111035    3.3187026777   -0.7489218606
     27  H        -3.6791460159    1.8248750106   -0.8631197561
     28  H        -1.9485029726   -4.2023825341    0.2522304790
     29  H        -3.0343825811   -3.1071758873   -0.6274864507
   Point Group: c1    Number of degrees of freedom:    81


   Energy is   -755.695336358

              Constraints and their Current Values
                                        Value     Constraint
   Dihedral:        2   1   3   5      161.585      157.300
   Dihedral:        1   2   4   7      -59.895      -61.600

 Attempting to Generate Delocalized Internal Coordinates

   Using Lagrange Multiplier Algorithm


 83 Hessian modes will be used to form the next step
  Hessian Eigenvalues:
    -0.977753   -0.977753    0.045000    0.045000    0.045000    0.045000
     0.045004    0.045352    0.045530    0.048627    0.058814    0.061923
     0.065581    0.067904    0.070808    0.072130    0.074343    0.075916
     0.081732    0.083785    0.084157    0.085390    0.086890    0.088227
     0.091114    0.091429    0.097232    0.098159    0.112260    0.112299
     0.113404    0.116979    0.117194    0.120275    0.121575    0.138015
     0.140421    0.160000    0.160000    0.160000    0.160000    0.160000
     0.160000    0.168655    0.174257    0.246664    0.248450    0.249983
     0.250000    0.250000    0.250000    0.250000    0.257040    0.266186
     0.268519    0.290485    0.293737    0.306576    0.311874    0.329392
     0.338114    0.340326    0.341575    0.341941    0.342237    0.342787
     0.342803    0.343231    0.343866    0.343905    0.343937    0.344082
     0.344477    0.344724    0.345856    0.408772    0.412181    0.516485
     0.516574    0.945024    0.955398    1.022753    1.022753

 Minimum Search - Taking P-RFO Step
 Searching for Lamda that Maximizes Along the Constraint modes Only
 Value Taken    Lamda =   0.00395849
 Searching for Lamda that Minimizes Along All other modes
 Value Taken    Lamda =  -0.06796443
 Calculated Step too Large.  Step scaled by  0.710841
 Step Taken.  Stepsize is  0.300000

                             Maximum     Tolerance    Cnvgd?
         Gradient            0.093336       0.000300      NO
         Displacement        0.104861       0.001200      NO
         Energy change     *********       0.000001      NO


 New Cartesian Coordinates Obtained by Inverse Iteration

 Displacement from previous Coordinates is:  0.942189
 Adding empirical dispersion correction 
 ----------------------------------------------------------------
 Doing -D3(op) with
 s6 =   1.00000
 s8 =   0.78311
 a1 =   0.30000
 a2 =   4.25000
 n  =  10.00000
 -D3 energy without 3body term =     -0.0299533739 hartrees
 ----------------------------------------------------------------
             Standard Nuclear Orientation (Angstroms)
    I     Atom           X                Y                Z
 ----------------------------------------------------------------
    1      C       0.4206967899    -0.6619911969    -0.5648540830
    2      C       0.6103124450     0.8816948412    -0.5137753487
    3      C      -0.8687034778    -1.2093095270     0.1027705442
    4      C      -0.5874282739     1.7170771007     0.0147566986
    5      O      -1.1354085712    -2.4749785427    -0.4349299518
    6      O      -1.5697436888    -0.6329625815     0.9524842997
    7      O      -1.6881941586     1.5063146235    -0.8271899734
    8      O      -0.5508335145     2.5561607705     0.9320431558
    9      C      -2.8779897054     2.2316008355    -0.4001384669
   10      C      -2.3377950318    -3.0995595442     0.0987476286
   11      C       1.6783034299    -1.1723517990     0.2192573171
   12      C       2.9774163064    -0.9086417977    -0.6131799667
   13      C       3.1522978820     0.6333589874    -0.4342299258
   14      C       1.8816699351     0.9970339634     0.4069107572
   15      O       1.7815338283    -0.1752613716     1.2985224848
   16      H       0.4232083315    -1.0021438274    -1.6138682659
   17      H       0.8462285829     1.2866064993    -1.5138136560
   18      H      -3.0189503525     2.1850131745     0.6953512836
   19      H      -2.6489340891    -2.6569131013     1.0626545274
   20      H       1.5981757945    -2.1897866763     0.6361684355
   21      H       3.8315613970    -1.4420215280    -0.1713737789
   22      H       2.8894673145    -1.2183081230    -1.6648154018
   23      H       4.0630667675     0.8439113863     0.1447629774
   24      H       3.2190842302     1.1770200460    -1.3879983229
   25      H       1.9662693280     1.9274605723     0.9916326107
   26      H      -2.8336192683     3.2899403145    -0.7197561607
   27      H      -3.7454933639     1.7529320098    -0.8855878459
   28      H      -2.1269161391    -4.1727045291     0.2520140983
   29      H      -3.1641906636    -3.0049377692    -0.6299066660
 ----------------------------------------------------------------
 Molecular Point Group                 C1    NOp =  1
 Largest Abelian Subgroup              C1    NOp =  1
 Nuclear Repulsion Energy =  1092.6456836507 hartrees
 There are       57 alpha and       57 beta electrons
 Applying Cartesian multipole field
    Component          Value
    ---------          -----
     (2,0,0)        1.00000E-11
     (0,2,0)        2.00000E-11
     (0,0,2)       -3.00000E-11
 Nucleus-field energy     =     0.0000000332 hartrees
 Requested basis set is STO-3G
 There are 44 shells and 89 basis functions
 A cutoff of  1.0D-12 yielded    862 shell pairs
 There are      3892 function pairs
 Smallest overlap matrix eigenvalue = 2.07E-01
 Guess MOs from SCF MO coefficient file
 Reading MOs from coefficient file
 Reading MOs from coefficient file
 A restricted hybrid HF-DFT SCF calculation will be
 performed using Pulay DIIS extrapolation
 Exchange:     0.2000 Hartree-Fock + 0.0800 Slater + 0.7200 B88
 Correlation:  0.1900 VWN1RPA + 0.8100 LYP
 Using SG-1 standard quadrature grid
 Dispersion:   Grimme D3
 SCF converges when DIIS error is below 1.0E-08
 Geometry optimization detected.  Setting ReadMinima to 0
 Setting SaveMinima to 0
 -------------------------------------------------------
 OpenMP Integral computing Module                
 Release: version 1.0, May 2013, Q-Chem Inc. Pittsburgh 
 -------------------------------------------------------
 -------------------------------------------------------
 OpenMP BLAS3 based DFT computing Module                
 Release: version 1.0, May 2013, Q-Chem Inc. Pittsburgh 
 -------------------------------------------------------
 ---------------------------------------
  Cycle       Energy         DIIS Error
 ---------------------------------------
    1    -755.5651473395      5.82E-03
    2    -755.7205115089      2.08E-03
    3    -755.7143440988      3.17E-03
    4    -755.7249653702      6.64E-04
    5    -755.7254858641      1.08E-04
    6    -755.7255003835      2.34E-05
    7    -755.7255006132      2.07E-05
    8    -755.7255010841      4.69E-06
    9    -755.7255011121      8.42E-07
   10    -755.7255011130      3.70E-07
   11    -755.7255011132      5.82E-08
   12    -755.7255011132      2.46E-08
   13    -755.7255011132      4.07E-09 Convergence criterion met
 ---------------------------------------
 SCF time:  CPU 52.40 s  wall 2.20 s
 SCF   energy in the final basis set = -755.7255011132
 Total energy in the final basis set = -755.7255011132
 
 --------------------------------------------------------------
 
                    Orbital Energies (a.u.)
 --------------------------------------------------------------
 
 Alpha MOs
 -- Occupied --
-18.941 -18.929 -18.879 -18.872 -18.861 -10.105 -10.097 -10.068
-10.062 -10.060 -10.054 -10.037 -10.034 -10.017 -10.015  -1.024
 -1.013  -0.972  -0.943  -0.932  -0.765  -0.726  -0.711  -0.672
 -0.662  -0.596  -0.546  -0.535  -0.515  -0.480  -0.462  -0.452
 -0.432  -0.418  -0.417  -0.411  -0.407  -0.380  -0.366  -0.357
 -0.348  -0.340  -0.333  -0.322  -0.309  -0.305  -0.299  -0.283
 -0.274  -0.249  -0.241  -0.227  -0.180  -0.169  -0.155  -0.144
 -0.138
 -- Virtual --
  0.102   0.118   0.239   0.260   0.278   0.292   0.324   0.343
  0.357   0.361   0.379   0.382   0.394   0.415   0.419   0.422
  0.425   0.432   0.435   0.442   0.445   0.448   0.450   0.453
  0.465   0.476   0.501   0.517   0.554   0.562   0.664   0.667
 --------------------------------------------------------------
 
          Ground-State Mulliken Net Atomic Charges

     Atom                 Charge (a.u.)
  ----------------------------------------
      1 C                    -0.078839
      2 C                    -0.081286
      3 C                     0.223994
      4 C                     0.225359
      5 O                    -0.179087
      6 O                    -0.217689
      7 O                    -0.182371
      8 O                    -0.219559
      9 C                    -0.124475
     10 C                    -0.128862
     11 C                     0.025380
     12 C                    -0.145462
     13 C                    -0.144696
     14 C                     0.024610
     15 O                    -0.195312
     16 H                     0.087689
     17 H                     0.084948
     18 H                     0.097452
     19 H                     0.099976
     20 H                     0.084859
     21 H                     0.077610
     22 H                     0.073118
     23 H                     0.077680
     24 H                     0.071714
     25 H                     0.092710
     26 H                     0.084699
     27 H                     0.089207
     28 H                     0.089601
     29 H                     0.087029
  ----------------------------------------
  Sum of atomic charges =    -0.000000

 -----------------------------------------------------------------
                    Cartesian Multipole Moments
 -----------------------------------------------------------------
    Charge (ESU x 10^10)
                 0.0000
    Dipole Moment (Debye)
         X      -0.2986      Y      -1.3461      Z      -2.2950
       Tot       2.6773
    Quadrupole Moments (Debye-Ang)
        XX     -72.5384     XY       1.5719     YY     -77.0246
        XZ      -1.2151     YZ      -4.0126     ZZ     -84.5116
    Octopole Moments (Debye-Ang^2)
       XXX     -34.1004    XXY       2.2412    XYY     -20.4930
       YYY     -14.6474    XXZ      -2.7085    XYZ       3.0647
       YYZ       0.5905    XZZ      -5.5924    YZZ      -0.4672
       ZZZ       1.8244
    Hexadecapole Moments (Debye-Ang^3)
      XXXX   -1868.9792   XXXY      -9.2511   XXYY    -502.7234
      XYYY      23.8854   YYYY   -1409.4685   XXXZ      27.2819
      XXYZ       0.7265   XYYZ       9.4902   YYYZ     -44.5575
      XXZZ    -380.2866   XYZZ       3.9704   YYZZ    -296.4044
      XZZZ      -3.3014   YZZZ       2.7763   ZZZZ    -282.9460
 -----------------------------------------------------------------
 Calculating analytic gradient of the SCF energy
 Gradient of SCF Energy
            1           2           3           4           5           6
    1   0.0031307  -0.0068775   0.0028282  -0.0084950  -0.0130368   0.0083579
    2   0.0135804  -0.0095886  -0.0180245  -0.0071728   0.0161231  -0.0056380
    3   0.0211166   0.0026432  -0.0023796  -0.0089985   0.0160859  -0.0124862
            7           8           9          10          11          12
    1   0.0069694   0.0019906   0.0081067   0.0105236  -0.0071934  -0.0065676
    2   0.0173137  -0.0061747  -0.0058475   0.0056432  -0.0027320   0.0046616
    3   0.0211246  -0.0124267  -0.0052684  -0.0071150  -0.0050321   0.0064309
           13          14          15          16          17          18
    1  -0.0066507  -0.0062630   0.0035351  -0.0007439   0.0008130  -0.0010757
    2  -0.0055500   0.0035934  -0.0006367   0.0038331   0.0033003  -0.0016535
    3   0.0059672  -0.0031416  -0.0176599   0.0006577   0.0029150  -0.0029150
           19          20          21          22          23          24
    1   0.0001232   0.0023316  -0.0000260   0.0019201  -0.0007238   0.0014681
    2  -0.0040581   0.0032854   0.0026032  -0.0001318  -0.0023794  -0.0007433
    3  -0.0013384  -0.0008495  -0.0007218   0.0017579  -0.0013282   0.0017373
           25          26          27          28          29
    1   0.0033778   0.0000460   0.0006203  -0.0014829   0.0029942
    2  -0.0033369  -0.0037236   0.0019844   0.0025246  -0.0010548
    3  -0.0022439  -0.0012188   0.0028236   0.0007141   0.0011495
 Max gradient component =       2.112E-02
 RMS gradient           =       7.162E-03
 Gradient time:  CPU 13.57 s  wall 0.57 s
 Geometry Optimization Parameters
   NAtoms,    NIC,     NZ,  NCons,   NDum,   NFix, NCnnct, MaxDiis
       29     227       0       2       0       0       0       0

 Cartesian Hessian Update
 Hessian Updated using BFGS Update


** CONSTRAINED OPTIMIZATION IN DELOCALIZED INTERNAL COORDINATES **
   Searching for a Minimum

   Optimization Cycle:   2

                       Coordinates (Angstroms)
     ATOM                X               Y               Z
      1  C         0.4206967899   -0.6619911969   -0.5648540830
      2  C         0.6103124450    0.8816948412   -0.5137753487
      3  C        -0.8687034778   -1.2093095270    0.1027705442
      4  C        -0.5874282739    1.7170771007    0.0147566986
      5  O        -1.1354085712   -2.4749785427   -0.4349299518
      6  O        -1.5697436888   -0.6329625815    0.9524842997
      7  O        -1.6881941586    1.5063146235   -0.8271899734
      8  O        -0.5508335145    2.5561607705    0.9320431558
      9  C        -2.8779897054    2.2316008355   -0.4001384669
     10  C        -2.3377950318   -3.0995595442    0.0987476286
     11  C         1.6783034299   -1.1723517990    0.2192573171
     12  C         2.9774163064   -0.9086417977   -0.6131799667
     13  C         3.1522978820    0.6333589874   -0.4342299258
     14  C         1.8816699351    0.9970339634    0.4069107572
     15  O         1.7815338283   -0.1752613716    1.2985224848
     16  H         0.4232083315   -1.0021438274   -1.6138682659
     17  H         0.8462285829    1.2866064993   -1.5138136560
     18  H        -3.0189503525    2.1850131745    0.6953512836
     19  H        -2.6489340891   -2.6569131013    1.0626545274
     20  H         1.5981757945   -2.1897866763    0.6361684355
     21  H         3.8315613970   -1.4420215280   -0.1713737789
     22  H         2.8894673145   -1.2183081230   -1.6648154018
     23  H         4.0630667675    0.8439113863    0.1447629774
     24  H         3.2190842302    1.1770200460   -1.3879983229
     25  H         1.9662693280    1.9274605723    0.9916326107
     26  H        -2.8336192683    3.2899403145   -0.7197561607
     27  H        -3.7454933639    1.7529320098   -0.8855878459
     28  H        -2.1269161391   -4.1727045291    0.2520140983
     29  H        -3.1641906636   -3.0049377692   -0.6299066660
   Point Group: c1    Number of degrees of freedom:    81


   Energy is   -755.725501113

              Constraints and their Current Values
                                        Value     Constraint
   Dihedral:        2   1   3   5      158.633      157.300
   Dihedral:        1   2   4   7      -61.076      -61.600
 Hessian Updated using BFGS Update

   Using Lagrange Multiplier Algorithm


 75 Hessian modes will be used to form the next step
  Hessian Eigenvalues:
    -0.977854   -0.977363    0.044926    0.045000    0.045005    0.045314
     0.045531    0.048627    0.058816    0.061732    0.065577    0.067823
     0.070827    0.072139    0.074328    0.075923    0.081730    0.083661
     0.084112    0.085496    0.086827    0.088236    0.091038    0.091425
     0.097091    0.098160    0.112176    0.112462    0.113352    0.116981
     0.117199    0.121322    0.122449    0.137769    0.141114    0.159152
     0.161054    0.167724    0.174224    0.240235    0.246861    0.248561
     0.249983    0.250214    0.256861    0.267279    0.268594    0.291949
     0.299304    0.308612    0.320600    0.329612    0.338146    0.340344
     0.341557    0.341950    0.342219    0.342761    0.343176    0.343739
     0.343867    0.343923    0.344073    0.344424    0.344659    0.345778
     0.382158    0.406107    0.416240    0.503727    0.516528    0.949319
     0.971380    1.022718    1.024632

 Minimum Search - Taking P-RFO Step
 Searching for Lamda that Maximizes Along the Constraint modes Only
 Value Taken    Lamda =   0.00028147
 Searching for Lamda that Minimizes Along All other modes
 Value Taken    Lamda =  -0.01147260
 Step Taken.  Stepsize is  0.250658

                             Maximum     Tolerance    Cnvgd?
         Gradient            0.031719       0.000300      NO
         Displacement        0.072611       0.001200      NO
         Energy change     -0.030165       0.000001      NO


 New Cartesian Coordinates Obtained by Inverse Iteration

 Displacement from previous Coordinates is:  0.935645
 Adding empirical dispersion correction 
 ----------------------------------------------------------------
 Doing -D3(op) with
 s6 =   1.00000
 s8 =   0.78311
 a1 =   0.30000
 a2 =   4.25000
 n  =  10.00000
 -D3 energy without 3body term =     -0.0301184244 hartrees
 ----------------------------------------------------------------
             Standard Nuclear Orientation (Angstroms)
    I     Atom           X                Y                Z
 ----------------------------------------------------------------
    1      C       0.4641705226    -0.6946594554    -0.5923044421
    2      C       0.6399112700     0.8691696971    -0.5313451017
    3      C      -0.8607296780    -1.2008487664     0.0697572261
    4      C      -0.5983987651     1.6684232753     0.0087587198
    5      O      -1.1733630124    -2.4752565213    -0.4840956548
    6      O      -1.5573881937    -0.6034349653     0.9212843738
    7      O      -1.6927705022     1.4290653744    -0.8736986156
    8      O      -0.6199827984     2.4705074740     0.9682221489
    9      C      -2.8933494266     2.1306624092    -0.3841295056
   10      C      -2.4231158753    -2.9964002618     0.1028964180
   11      C       1.7294436694    -1.1749841448     0.2315441412
   12      C       3.0313242939    -0.8935522188    -0.6137177841
   13      C       3.1830319598     0.6655487307    -0.4381474622
   14      C       1.9018018243     1.0003855723     0.4175194147
   15      O       1.8024304784    -0.1708665931     1.3224505152
   16      H       0.4841460281    -1.0573571100    -1.6362056384
   17      H       0.8815295917     1.2729228075    -1.5320254312
   18      H      -3.0016407747     2.0378376030     0.7155025896
   19      H      -2.6584654490    -2.4787314297     1.0548653986
   20      H       1.6452417323    -2.1952667167     0.6547823478
   21      H       3.8918586041    -1.4245731091    -0.1752443741
   22      H       2.9279838472    -1.2068145970    -1.6653798465
   23      H       4.0913824388     0.9076669365     0.1375736948
   24      H       3.2205200360     1.2120347946    -1.3945425750
   25      H       1.9433599494     1.9384965393     1.0052472809
   26      H      -2.8655697634     3.2088875120    -0.6482199775
   27      H      -3.7573033594     1.6549292108    -0.8856792668
   28      H      -2.2867543898    -4.0806397055     0.2825563243
   29      H      -3.2642121937    -2.8488991320    -0.6055659138
 ----------------------------------------------------------------
 Molecular Point Group                 C1    NOp =  1
 Largest Abelian Subgroup              C1    NOp =  1
 Nuclear Repulsion Energy =  1090.0856594878 hartrees
 There are       57 alpha and       57 beta electrons
 Applying Cartesian multipole field
    Component          Value
    ---------          -----
     (2,0,0)        1.00000E-11
     (0,2,0)        2.00000E-11
     (0,0,2)       -3.00000E-11
 Nucleus-field energy     =     0.0000000322 hartrees
 Requested basis set is STO-3G
 There are 44 shells and 89 basis functions
 A cutoff of  1.0D-12 yielded    862 shell pairs
 There are      3892 function pairs
 Smallest overlap matrix eigenvalue = 2.13E-01
 Guess MOs from SCF MO coefficient file
 Reading MOs from coefficient file
 Reading MOs from coefficient file
 A restricted hybrid HF-DFT SCF calculation will be
 performed using Pulay DIIS extrapolation
 Exchange:     0.2000 Hartree-Fock + 0.0800 Slater + 0.7200 B88
 Correlation:  0.1900 VWN1RPA + 0.8100 LYP
 Using SG-1 standard quadrature grid
 Dispersion:   Grimme D3
 SCF converges when DIIS error is below 1.0E-08
 Geometry optimization detected.  Setting ReadMinima to 0
 Setting SaveMinima to 0
 -------------------------------------------------------
 OpenMP Integral computing Module                
 Release: version 1.0, May 2013, Q-Chem Inc. Pittsburgh 
 -------------------------------------------------------
 -------------------------------------------------------
 OpenMP BLAS3 based DFT computing Module                
 Release: version 1.0, May 2013, Q-Chem Inc. Pittsburgh 
 -------------------------------------------------------
 ---------------------------------------
  Cycle       Energy         DIIS Error
 ---------------------------------------
    1    -755.6407061385      4.46E-03
    2    -755.7294781087      1.36E-03
    3    -755.7251802408      2.41E-03
    4    -755.7314528646      3.98E-04
    5    -755.7316368198      9.26E-05
    6    -755.7316469478      2.41E-05
    7    -755.7316471703      2.10E-05
    8    -755.7316476657      4.06E-06
    9    -755.7316476871      6.28E-07
   10    -755.7316476875      3.36E-07
   11    -755.7316476877      4.09E-08
   12    -755.7316476877      1.76E-08
   13    -755.7316476877      4.92E-09 Convergence criterion met
 ---------------------------------------
 SCF time:  CPU 52.97 s  wall 2.23 s
 SCF   energy in the final basis set = -755.7316476877
 Total energy in the final basis set = -755.7316476877
 
 --------------------------------------------------------------
 
                    Orbital Energies (a.u.)
 --------------------------------------------------------------
 
 Alpha MOs
 -- Occupied --
-18.939 -18.925 -18.883 -18.877 -18.864 -10.102 -10.093 -10.063
-10.060 -10.057 -10.054 -10.038 -10.033 -10.020 -10.017  -1.016
 -1.003  -0.967  -0.939  -0.928  -0.762  -0.722  -0.706  -0.665
 -0.654  -0.593  -0.544  -0.536  -0.510  -0.475  -0.456  -0.450
 -0.430  -0.415  -0.413  -0.406  -0.403  -0.376  -0.360  -0.354
 -0.346  -0.339  -0.330  -0.322  -0.310  -0.302  -0.297  -0.279
 -0.272  -0.252  -0.246  -0.231  -0.180  -0.167  -0.158  -0.145
 -0.141
 -- Virtual --
  0.096   0.115   0.237   0.256   0.272   0.284   0.313   0.332
  0.344   0.348   0.363   0.373   0.386   0.407   0.414   0.419
  0.421   0.428   0.429   0.434   0.436   0.439   0.443   0.444
  0.452   0.468   0.490   0.509   0.545   0.552   0.648   0.652
 --------------------------------------------------------------
 
          Ground-State Mulliken Net Atomic Charges

     Atom                 Charge (a.u.)
  ----------------------------------------
      1 C                    -0.077490
      2 C                    -0.080428
      3 C                     0.216456
      4 C                     0.217410
      5 O                    -0.170877
      6 O                    -0.212044
      7 O                    -0.176553
      8 O                    -0.214475
      9 C                    -0.127036
     10 C                    -0.132760
     11 C                     0.024502
     12 C                    -0.143844
     13 C                    -0.143331
     14 C                     0.023801
     15 O                    -0.189596
     16 H                     0.087230
     17 H                     0.083387
     18 H                     0.097189
     19 H                     0.100882
     20 H                     0.083316
     21 H                     0.077773
     22 H                     0.073602
     23 H                     0.077250
     24 H                     0.072409
     25 H                     0.090861
     26 H                     0.082878
     27 H                     0.086652
     28 H                     0.087699
     29 H                     0.085138
  ----------------------------------------
  Sum of atomic charges =    -0.000000

 -----------------------------------------------------------------
                    Cartesian Multipole Moments
 -----------------------------------------------------------------
    Charge (ESU x 10^10)
                 0.0000
    Dipole Moment (Debye)
         X      -0.1031      Y      -1.2342      Z      -2.2061
       Tot       2.5299
    Quadrupole Moments (Debye-Ang)
        XX     -72.5074     XY       1.6884     YY     -77.5744
        XZ      -1.5031     YZ      -3.8652     ZZ     -84.5999
    Octopole Moments (Debye-Ang^2)
       XXX     -34.1893    XXY       1.8059    XYY     -17.7807
       YYY      -8.5543    XXZ      -2.1860    XYZ       3.2974
       YYZ       1.9411    XZZ      -5.3813    YZZ      -0.0553
       ZZZ       3.1808
    Hexadecapole Moments (Debye-Ang^3)
      XXXX   -1924.2198   XXXY     -12.7662   XXYY    -505.3381
      XYYY      14.1615   YYYY   -1347.1634   XXXZ      26.5194
      XXYZ      -0.7874   XYYZ       8.4109   YYYZ     -45.6404
      XXZZ    -391.5144   XYZZ       1.7453   YYZZ    -286.9428
      XZZZ      -4.3966   YZZZ      -1.6485   ZZZZ    -290.1999
 -----------------------------------------------------------------
 Calculating analytic gradient of the SCF energy
 Gradient of SCF Energy
            1           2           3           4           5           6
    1   0.0029827  -0.0030078  -0.0001486  -0.0055830  -0.0015978  -0.0018005
    2   0.0034406  -0.0048150  -0.0086242  -0.0033060   0.0026691   0.0015801
    3   0.0065065  -0.0020129   0.0007158  -0.0036004   0.0005204  -0.0018312
            7           8           9          10          11          12
    1   0.0018076   0.0007667   0.0047028   0.0045954  -0.0009677  -0.0024861
    2   0.0013416   0.0031994  -0.0014365   0.0044335  -0.0029762   0.0000260
    3   0.0028108   0.0006375   0.0001364  -0.0018473  -0.0047921   0.0001452
           13          14          15          16          17          18
    1  -0.0027396  -0.0015921   0.0020420  -0.0009541   0.0017530  -0.0002292
    2  -0.0000045   0.0020106   0.0007494   0.0015873   0.0014774   0.0001895
    3  -0.0006096  -0.0004159   0.0001451  -0.0011552   0.0008013   0.0004653
           19          20          21          22          23          24
    1  -0.0006791  -0.0002232   0.0004477   0.0008956  -0.0000123   0.0013370
    2  -0.0007669   0.0001605   0.0004254  -0.0008984  -0.0001408   0.0005719
    3   0.0008824   0.0010807   0.0003290   0.0000131   0.0005889  -0.0000022
           25          26          27          28          29
    1   0.0010248  -0.0000453  -0.0000288  -0.0000155  -0.0002445
    2   0.0000760   0.0001618  -0.0006364  -0.0004160  -0.0000794
    3   0.0006561  -0.0004597   0.0000371   0.0004576  -0.0002025
 Max gradient component =       8.624E-03
 RMS gradient           =       2.199E-03
 Gradient time:  CPU 14.13 s  wall 0.59 s
 Geometry Optimization Parameters
   NAtoms,    NIC,     NZ,  NCons,   NDum,   NFix, NCnnct, MaxDiis
       29     227       0       2       0       0       0       0

 Cartesian Hessian Update
 Hessian Updated using BFGS Update


** CONSTRAINED OPTIMIZATION IN DELOCALIZED INTERNAL COORDINATES **
   Searching for a Minimum

   Optimization Cycle:   3

                       Coordinates (Angstroms)
     ATOM                X               Y               Z
      1  C         0.4641705226   -0.6946594554   -0.5923044421
      2  C         0.6399112700    0.8691696971   -0.5313451017
      3  C        -0.8607296780   -1.2008487664    0.0697572261
      4  C        -0.5983987651    1.6684232753    0.0087587198
      5  O        -1.1733630124   -2.4752565213   -0.4840956548
      6  O        -1.5573881937   -0.6034349653    0.9212843738
      7  O        -1.6927705022    1.4290653744   -0.8736986156
      8  O        -0.6199827984    2.4705074740    0.9682221489
      9  C        -2.8933494266    2.1306624092   -0.3841295056
     10  C        -2.4231158753   -2.9964002618    0.1028964180
     11  C         1.7294436694   -1.1749841448    0.2315441412
     12  C         3.0313242939   -0.8935522188   -0.6137177841
     13  C         3.1830319598    0.6655487307   -0.4381474622
     14  C         1.9018018243    1.0003855723    0.4175194147
     15  O         1.8024304784   -0.1708665931    1.3224505152
     16  H         0.4841460281   -1.0573571100   -1.6362056384
     17  H         0.8815295917    1.2729228075   -1.5320254312
     18  H        -3.0016407747    2.0378376030    0.7155025896
     19  H        -2.6584654490   -2.4787314297    1.0548653986
     20  H         1.6452417323   -2.1952667167    0.6547823478
     21  H         3.8918586041   -1.4245731091   -0.1752443741
     22  H         2.9279838472   -1.2068145970   -1.6653798465
     23  H         4.0913824388    0.9076669365    0.1375736948
     24  H         3.2205200360    1.2120347946   -1.3945425750
     25  H         1.9433599494    1.9384965393    1.0052472809
     26  H        -2.8655697634    3.2088875120   -0.6482199775
     27  H        -3.7573033594    1.6549292108   -0.8856792668
     28  H        -2.2867543898   -4.0806397055    0.2825563243
     29  H        -3.2642121937   -2.8488991320   -0.6055659138
   Point Group: c1    Number of degrees of freedom:    81


   Energy is   -755.731647688

              Constraints and their Current Values
                                        Value     Constraint
   Dihedral:        2   1   3   5      157.307      157.300
   Dihedral:        1   2   4   7      -61.594      -61.600
 Hessian Updated using BFGS Update

   Using Lagrange Multiplier Algorithm


 78 Hessian modes will be used to form the next step
  Hessian Eigenvalues:
    -0.977636   -0.975870    0.041898    0.045000    0.045003    0.045020
     0.045342    0.045580    0.048626    0.058807    0.059885    0.065526
     0.066729    0.070801    0.072134    0.074264    0.075905    0.081714
     0.083073    0.084111    0.085113    0.086791    0.088236    0.091226
     0.091431    0.096263    0.098160    0.111944    0.112677    0.113310
     0.116984    0.117194    0.121735    0.122268    0.138830    0.141158
     0.157967    0.160566    0.161055    0.170354    0.174969    0.244939
     0.247561    0.249528    0.249986    0.250185    0.253933    0.267097
     0.268575    0.275779    0.291961    0.300049    0.308662    0.319342
     0.330519    0.338112    0.340329    0.341606    0.341724    0.342296
     0.342488    0.343110    0.343565    0.343870    0.343920    0.344075
     0.344412    0.344770    0.345941    0.382028    0.394413    0.412511
     0.479726    0.516604    0.949887    0.981855    1.022988    1.033688

 Minimum Search - Taking P-RFO Step
 Searching for Lamda that Maximizes Along the Constraint modes Only
 Value Taken    Lamda =   0.00002498
 Searching for Lamda that Minimizes Along All other modes
 Value Taken    Lamda =  -0.00148747
 Step Taken.  Stepsize is  0.146585

                             Maximum     Tolerance    Cnvgd?
         Gradient            0.006399       0.000300      NO
         Displacement        0.058375       0.001200      NO
         Energy change     -0.006147       0.000001      NO


 New Cartesian Coordinates Obtained by Inverse Iteration

 Displacement from previous Coordinates is:  0.274790
 Adding empirical dispersion correction 
 ----------------------------------------------------------------
 Doing -D3(op) with
 s6 =   1.00000
 s8 =   0.78311
 a1 =   0.30000
 a2 =   4.25000
 n  =  10.00000
 -D3 energy without 3body term =     -0.0301760625 hartrees
 ----------------------------------------------------------------
             Standard Nuclear Orientation (Angstroms)
    I     Atom           X                Y                Z
 ----------------------------------------------------------------
    1      C       0.4706149115    -0.6925839816    -0.6118966524
    2      C       0.6534216819     0.8777870533    -0.5360141009
    3      C      -0.8534272282    -1.1875481563     0.0638042001
    4      C      -0.5926504260     1.6710096393     0.0065880148
    5      O      -1.1960504960    -2.4632992927    -0.4932731174
    6      O      -1.5154645341    -0.5995645596     0.9496665833
    7      O      -1.6916503289     1.4402559360    -0.8893824239
    8      O      -0.6305207308     2.4406230626     0.9906069023
    9      C      -2.9138953562     2.1206812986    -0.3989383450
   10      C      -2.4411286905    -2.9910293192     0.1195399105
   11      C       1.7348787676    -1.1737771482     0.2249206542
   12      C       3.0442365419    -0.8919006351    -0.6148618697
   13      C       3.2003272045     0.6653640146    -0.4291342636
   14      C       1.9119312665     0.9953868411     0.4224482853
   15      O       1.7957903774    -0.1779829013     1.3226904743
   16      H       0.4941976093    -1.0594453476    -1.6534469800
   17      H       0.8918195284     1.2818058704    -1.5370437199
   18      H      -3.0357062760     1.9930477195     0.6951613111
   19      H      -2.6443191718    -2.4697933486     1.0760992995
   20      H       1.6437903169    -2.1976995342     0.6379221292
   21      H       3.9002108191    -1.4336373366    -0.1811415610
   22      H       2.9342923630    -1.1930883578    -1.6692611138
   23      H       4.1091899875     0.9063446547     0.1459377603
   24      H       3.2307981993     1.2151183649    -1.3834028288
   25      H       1.9420204823     1.9319568918     1.0129029202
   26      H      -2.8893057189     3.2071536923    -0.6263012668
   27      H      -3.7662747141     1.6566590659    -0.9298337544
   28      H      -2.3047262021    -4.0767561583     0.2856878509
   29      H      -3.2973081192    -2.8308348179    -0.5673852938
 ----------------------------------------------------------------
 Molecular Point Group                 C1    NOp =  1
 Largest Abelian Subgroup              C1    NOp =  1
 Nuclear Repulsion Energy =  1088.2861837222 hartrees
 There are       57 alpha and       57 beta electrons
 Applying Cartesian multipole field
    Component          Value
    ---------          -----
     (2,0,0)        1.00000E-11
     (0,2,0)        2.00000E-11
     (0,0,2)       -3.00000E-11
 Nucleus-field energy     =     0.0000000320 hartrees
 Requested basis set is STO-3G
 There are 44 shells and 89 basis functions
 A cutoff of  1.0D-12 yielded    862 shell pairs
 There are      3895 function pairs
 Smallest overlap matrix eigenvalue = 2.13E-01
 Guess MOs from SCF MO coefficient file
 Reading MOs from coefficient file
 Reading MOs from coefficient file
 A restricted hybrid HF-DFT SCF calculation will be
 performed using Pulay DIIS extrapolation
 Exchange:     0.2000 Hartree-Fock + 0.0800 Slater + 0.7200 B88
 Correlation:  0.1900 VWN1RPA + 0.8100 LYP
 Using SG-1 standard quadrature grid
 Dispersion:   Grimme D3
 SCF converges when DIIS error is below 1.0E-08
 Geometry optimization detected.  Setting ReadMinima to 0
 Setting SaveMinima to 0
 -------------------------------------------------------
 OpenMP Integral computing Module                
 Release: version 1.0, May 2013, Q-Chem Inc. Pittsburgh 
 -------------------------------------------------------
 -------------------------------------------------------
 OpenMP BLAS3 based DFT computing Module                
 Release: version 1.0, May 2013, Q-Chem Inc. Pittsburgh 
 -------------------------------------------------------
 ---------------------------------------
  Cycle       Energy         DIIS Error
 ---------------------------------------
    1    -755.7131656064      2.41E-03
    2    -755.7321216950      4.73E-04
    3    -755.7311400804      1.05E-03
    4    -755.7323937045      7.67E-05
    5    -755.7324000091      3.34E-05
    6    -755.7324010886      1.49E-05
    7    -755.7324012717      8.25E-06
    8    -755.7324013506      8.85E-07
    9    -755.7324013516      2.03E-07
   10    -755.7324013516      5.66E-08
   11    -755.7324013516      2.52E-08
   12    -755.7324013516      5.28E-09 Convergence criterion met
 ---------------------------------------
 SCF time:  CPU 49.89 s  wall 2.10 s
 SCF   energy in the final basis set = -755.7324013516
 Total energy in the final basis set = -755.7324013516
 
 --------------------------------------------------------------
 
                    Orbital Energies (a.u.)
 --------------------------------------------------------------
 
 Alpha MOs
 -- Occupied --
-18.935 -18.922 -18.885 -18.878 -18.866 -10.100 -10.092 -10.061
-10.060 -10.056 -10.055 -10.038 -10.033 -10.020 -10.018  -1.012
 -0.999  -0.967  -0.936  -0.926  -0.761  -0.721  -0.705  -0.664
 -0.653  -0.593  -0.544  -0.536  -0.508  -0.473  -0.455  -0.450
 -0.430  -0.414  -0.411  -0.405  -0.402  -0.375  -0.360  -0.353
 -0.346  -0.339  -0.330  -0.323  -0.310  -0.302  -0.296  -0.279
 -0.272  -0.250  -0.244  -0.233  -0.178  -0.166  -0.158  -0.145
 -0.142
 -- Virtual --
  0.095   0.115   0.233   0.252   0.267   0.283   0.312   0.331
  0.341   0.346   0.359   0.372   0.384   0.404   0.412   0.419
  0.422   0.425   0.429   0.432   0.436   0.439   0.442   0.444
  0.451   0.466   0.488   0.507   0.543   0.551   0.645   0.651
 --------------------------------------------------------------
 
          Ground-State Mulliken Net Atomic Charges

     Atom                 Charge (a.u.)
  ----------------------------------------
      1 C                    -0.077144
      2 C                    -0.079884
      3 C                     0.214241
      4 C                     0.215310
      5 O                    -0.170459
      6 O                    -0.211052
      7 O                    -0.176313
      8 O                    -0.212633
      9 C                    -0.128799
     10 C                    -0.134293
     11 C                     0.024798
     12 C                    -0.143882
     13 C                    -0.143322
     14 C                     0.023914
     15 O                    -0.188207
     16 H                     0.087467
     17 H                     0.083241
     18 H                     0.096672
     19 H                     0.100593
     20 H                     0.083003
     21 H                     0.078079
     22 H                     0.073891
     23 H                     0.077799
     24 H                     0.073012
     25 H                     0.090754
     26 H                     0.082907
     27 H                     0.087000
     28 H                     0.088202
     29 H                     0.085105
  ----------------------------------------
  Sum of atomic charges =    -0.000000

 -----------------------------------------------------------------
                    Cartesian Multipole Moments
 -----------------------------------------------------------------
    Charge (ESU x 10^10)
                 0.0000
    Dipole Moment (Debye)
         X      -0.0502      Y      -1.1869      Z      -2.2181
       Tot       2.5161
    Quadrupole Moments (Debye-Ang)
        XX     -72.1414     XY       1.6729     YY     -77.4682
        XZ      -1.5231     YZ      -3.8472     ZZ     -84.7879
    Octopole Moments (Debye-Ang^2)
       XXX     -35.2644    XXY       1.7926    XYY     -17.8075
       YYY      -8.0977    XXZ      -2.1363    XYZ       3.5330
       YYZ       2.2063    XZZ      -5.2188    YZZ      -0.1741
       ZZZ       2.9970
    Hexadecapole Moments (Debye-Ang^3)
      XXXX   -1933.2907   XXXY     -13.2283   XXYY    -505.9166
      XYYY      13.7886   YYYY   -1334.1080   XXXZ      27.0286
      XXYZ      -0.9442   XYYZ       7.9347   YYYZ     -43.4457
      XXZZ    -394.8858   XYZZ       1.7481   YYZZ    -287.1405
      XZZZ      -4.3434   YZZZ      -0.3981   ZZZZ    -295.4098
 -----------------------------------------------------------------
 Calculating analytic gradient of the SCF energy
 Gradient of SCF Energy
            1           2           3           4           5           6
    1   0.0014572  -0.0002323   0.0023946   0.0008850  -0.0003933  -0.0017106
    2   0.0001083  -0.0009863  -0.0011749  -0.0006762   0.0002680   0.0017038
    3   0.0011914   0.0001677   0.0001884  -0.0019818  -0.0005277   0.0002944
            7           8           9          10          11          12
    1   0.0001500   0.0002829  -0.0023941  -0.0011943   0.0005889  -0.0002056
    2  -0.0001874   0.0017945  -0.0003515  -0.0021143  -0.0011406  -0.0002709
    3   0.0003885   0.0010794  -0.0002825   0.0000609  -0.0024735  -0.0007602
           13          14          15          16          17          18
    1  -0.0002129   0.0000855   0.0007810  -0.0006127   0.0006898   0.0002302
    2   0.0005263  -0.0001049   0.0005204   0.0009237   0.0005981   0.0004487
    3  -0.0012835   0.0000345   0.0025842  -0.0005333   0.0005196  -0.0000473
           19          20          21          22          23          24
    1   0.0002314  -0.0006333   0.0002490   0.0003120   0.0001406   0.0006418
    2   0.0002150   0.0001598   0.0002563  -0.0005199  -0.0001906   0.0002902
    3  -0.0003127   0.0006980   0.0003329  -0.0000306   0.0003205   0.0001178
           25          26          27          28          29
    1  -0.0000912  -0.0002208  -0.0005181  -0.0003382  -0.0003624
    2  -0.0000270   0.0002129   0.0000127  -0.0003857   0.0000919
    3   0.0002508  -0.0000887   0.0000891  -0.0000855   0.0000891
 Max gradient component =       2.584E-03
 RMS gradient           =       8.576E-04
 Gradient time:  CPU 13.68 s  wall 0.57 s
 Geometry Optimization Parameters
   NAtoms,    NIC,     NZ,  NCons,   NDum,   NFix, NCnnct, MaxDiis
       29     227       0       2       0       0       0       0

 Cartesian Hessian Update
 Hessian Updated using BFGS Update


** CONSTRAINED OPTIMIZATION IN DELOCALIZED INTERNAL COORDINATES **
   Searching for a Minimum

   Optimization Cycle:   4

                       Coordinates (Angstroms)
     ATOM                X               Y               Z
      1  C         0.4706149115   -0.6925839816   -0.6118966524
      2  C         0.6534216819    0.8777870533   -0.5360141009
      3  C        -0.8534272282   -1.1875481563    0.0638042001
      4  C        -0.5926504260    1.6710096393    0.0065880148
      5  O        -1.1960504960   -2.4632992927   -0.4932731174
      6  O        -1.5154645341   -0.5995645596    0.9496665833
      7  O        -1.6916503289    1.4402559360   -0.8893824239
      8  O        -0.6305207308    2.4406230626    0.9906069023
      9  C        -2.9138953562    2.1206812986   -0.3989383450
     10  C        -2.4411286905   -2.9910293192    0.1195399105
     11  C         1.7348787676   -1.1737771482    0.2249206542
     12  C         3.0442365419   -0.8919006351   -0.6148618697
     13  C         3.2003272045    0.6653640146   -0.4291342636
     14  C         1.9119312665    0.9953868411    0.4224482853
     15  O         1.7957903774   -0.1779829013    1.3226904743
     16  H         0.4941976093   -1.0594453476   -1.6534469800
     17  H         0.8918195284    1.2818058704   -1.5370437199
     18  H        -3.0357062760    1.9930477195    0.6951613111
     19  H        -2.6443191718   -2.4697933486    1.0760992995
     20  H         1.6437903169   -2.1976995342    0.6379221292
     21  H         3.9002108191   -1.4336373366   -0.1811415610
     22  H         2.9342923630   -1.1930883578   -1.6692611138
     23  H         4.1091899875    0.9063446547    0.1459377603
     24  H         3.2307981993    1.2151183649   -1.3834028288
     25  H         1.9420204823    1.9319568918    1.0129029202
     26  H        -2.8893057189    3.2071536923   -0.6263012668
     27  H        -3.7662747141    1.6566590659   -0.9298337544
     28  H        -2.3047262021   -4.0767561583    0.2856878509
     29  H        -3.2973081192   -2.8308348179   -0.5673852938
   Point Group: c1    Number of degrees of freedom:    81


   Energy is   -755.732401352

              Constraints and their Current Values
                                        Value     Constraint
   Dihedral:        2   1   3   5      157.300      157.300
   Dihedral:        1   2   4   7      -61.600      -61.600
 Hessian Updated using BFGS Update

   Using Lagrange Multiplier Algorithm


 81 Hessian modes will be used to form the next step
  Hessian Eigenvalues:
    -0.976627   -0.974486    0.028527    0.045000    0.045000    0.045015
     0.045095    0.045425    0.045576    0.048622    0.056762    0.058862
     0.065350    0.066231    0.070867    0.072127    0.074216    0.075881
     0.081688    0.082909    0.084103    0.084870    0.086735    0.088252
     0.091237    0.091439    0.096696    0.098172    0.112466    0.112653
     0.113733    0.116983    0.117249    0.121809    0.123245    0.138609
     0.141148    0.158848    0.160055    0.160917    0.161891    0.170624
     0.174991    0.244645    0.247312    0.249425    0.249988    0.250000
     0.250192    0.253885    0.267222    0.268583    0.291721    0.294741
     0.301979    0.308665    0.324331    0.330454    0.338227    0.340438
     0.341596    0.342142    0.342270    0.343086    0.343433    0.343870
     0.343909    0.344016    0.344399    0.344520    0.345038    0.346359
     0.391398    0.410542    0.446139    0.516169    0.558631    0.949334
     0.978746    1.026605    1.036896

 Minimum Search - Taking P-RFO Step
 Searching for Lamda that Maximizes Along the Constraint modes Only
 Value Taken    Lamda =   0.00000281
 Searching for Lamda that Minimizes Along All other modes
 Value Taken    Lamda =  -0.00038369
 Step Taken.  Stepsize is  0.090899

                             Maximum     Tolerance    Cnvgd?
         Gradient            0.004335       0.000300      NO
         Displacement        0.040002       0.001200      NO
         Energy change     -0.000754       0.000001      NO


 New Cartesian Coordinates Obtained by Inverse Iteration

 Displacement from previous Coordinates is:  0.219889
 Adding empirical dispersion correction 
 ----------------------------------------------------------------
 Doing -D3(op) with
 s6 =   1.00000
 s8 =   0.78311
 a1 =   0.30000
 a2 =   4.25000
 n  =  10.00000
 -D3 energy without 3body term =     -0.0302742776 hartrees
 ----------------------------------------------------------------
             Standard Nuclear Orientation (Angstroms)
    I     Atom           X                Y                Z
 ----------------------------------------------------------------
    1      C       0.4713998610    -0.6915360354    -0.6280857653
    2      C       0.6557501322     0.8792470326    -0.5432751594
    3      C      -0.8496558946    -1.1809414221     0.0536335669
    4      C      -0.5948387604     1.6627366532    -0.0000677003
    5      O      -1.2036128748    -2.4528477783    -0.5053422800
    6      O      -1.4914564301    -0.6033442321     0.9601169399
    7      O      -1.6878022870     1.4314563632    -0.9046818951
    8      O      -0.6473814468     2.4129692628     0.9968387692
    9      C      -2.9095166341     2.1017436419    -0.4015838934
   10      C      -2.4428970551    -2.9649810124     0.1311591038
   11      C       1.7311295631    -1.1742950895     0.2181671156
   12      C       3.0462215317    -0.8894365503    -0.6126795326
   13      C       3.2020933702     0.6663394564    -0.4189399712
   14      C       1.9073854029     0.9927418491     0.4238939381
   15      O       1.7805520936    -0.1836109085     1.3180478015
   16      H       0.5004046409    -1.0607143652    -1.6682542950
   17      H       0.8926834241     1.2839326000    -1.5446167510
   18      H      -3.0358126497     1.9455475825     0.6885099060
   19      H      -2.6257869862    -2.4374018584     1.0887242891
   20      H       1.6392996853    -2.2013178803     0.6228982088
   21      H       3.8985175555    -1.4374375410    -0.1803990972
   22      H       2.9374645609    -1.1812631355    -1.6696496522
   23      H       4.1085535106     0.9082587878     0.1588280183
   24      H       3.2312697797     1.2177376283    -1.3721602453
   25      H       1.9300918309     1.9280988031     1.0164370861
   26      H      -2.8828239050     3.1932691913    -0.6021982111
   27      H      -3.7582435271     1.6504592616    -0.9482180858
   28      H      -2.3103093874    -4.0503900866     0.2993250075
   29      H      -3.3075870400    -2.8007670086    -0.5437682113
 ----------------------------------------------------------------
 Molecular Point Group                 C1    NOp =  1
 Largest Abelian Subgroup              C1    NOp =  1
 Nuclear Repulsion Energy =  1090.1790144742 hartrees
 There are       57 alpha and       57 beta electrons
 Applying Cartesian multipole field
    Component          Value
    ---------          -----
     (2,0,0)        1.00000E-11
     (0,2,0)        2.00000E-11
     (0,0,2)       -3.00000E-11
 Nucleus-field energy     =     0.0000000316 hartrees
 Requested basis set is STO-3G
 There are 44 shells and 89 basis functions
 A cutoff of  1.0D-12 yielded    863 shell pairs
 There are      3896 function pairs
 Smallest overlap matrix eigenvalue = 2.13E-01
 Guess MOs from SCF MO coefficient file
 Reading MOs from coefficient file
 Reading MOs from coefficient file
 A restricted hybrid HF-DFT SCF calculation will be
 performed using Pulay DIIS extrapolation
 Exchange:     0.2000 Hartree-Fock + 0.0800 Slater + 0.7200 B88
 Correlation:  0.1900 VWN1RPA + 0.8100 LYP
 Using SG-1 standard quadrature grid
 Dispersion:   Grimme D3
 SCF converges when DIIS error is below 1.0E-08
 Geometry optimization detected.  Setting ReadMinima to 0
 Setting SaveMinima to 0
 -------------------------------------------------------
 OpenMP Integral computing Module                
 Release: version 1.0, May 2013, Q-Chem Inc. Pittsburgh 
 -------------------------------------------------------
 -------------------------------------------------------
 OpenMP BLAS3 based DFT computing Module                
 Release: version 1.0, May 2013, Q-Chem Inc. Pittsburgh 
 -------------------------------------------------------
 ---------------------------------------
  Cycle       Energy         DIIS Error
 ---------------------------------------
    1    -755.7324808610      1.43E-03
    2    -755.7325968180      1.06E-04
    3    -755.7325852243      1.72E-04
    4    -755.7326168428      4.47E-05
    5    -755.7326188798      1.57E-05
    6    -755.7326191700      3.91E-06
    7    -755.7326191880      1.09E-06
    8    -755.7326191885      9.48E-07
    9    -755.7326191895      1.05E-07
   10    -755.7326191896      4.08E-08
   11    -755.7326191896      1.15E-08
   12    -755.7326191896      1.65E-09 Convergence criterion met
 ---------------------------------------
 SCF time:  CPU 49.35 s  wall 2.08 s
 SCF   energy in the final basis set = -755.7326191896
 Total energy in the final basis set = -755.7326191896
 
 --------------------------------------------------------------
 
                    Orbital Energies (a.u.)
 --------------------------------------------------------------
 
 Alpha MOs
 -- Occupied --
-18.935 -18.922 -18.886 -18.878 -18.867 -10.100 -10.092 -10.061
-10.060 -10.056 -10.055 -10.038 -10.033 -10.020 -10.018  -1.012
 -0.999  -0.968  -0.937  -0.927  -0.761  -0.722  -0.705  -0.663
 -0.653  -0.593  -0.544  -0.536  -0.508  -0.472  -0.455  -0.451
 -0.430  -0.414  -0.411  -0.405  -0.402  -0.375  -0.360  -0.353
 -0.346  -0.339  -0.331  -0.324  -0.310  -0.302  -0.295  -0.279
 -0.272  -0.251  -0.246  -0.233  -0.178  -0.167  -0.158  -0.146
 -0.143
 -- Virtual --
  0.095   0.115   0.235   0.253   0.268   0.284   0.312   0.331
  0.341   0.345   0.358   0.372   0.384   0.403   0.411   0.420
  0.423   0.425   0.429   0.432   0.437   0.439   0.441   0.444
  0.450   0.466   0.488   0.508   0.543   0.551   0.646   0.653
 --------------------------------------------------------------
 
          Ground-State Mulliken Net Atomic Charges

     Atom                 Charge (a.u.)
  ----------------------------------------
      1 C                    -0.077319
      2 C                    -0.080011
      3 C                     0.214533
      4 C                     0.215384
      5 O                    -0.169897
      6 O                    -0.211470
      7 O                    -0.176251
      8 O                    -0.212178
      9 C                    -0.129171
     10 C                    -0.135063
     11 C                     0.025188
     12 C                    -0.144007
     13 C                    -0.143365
     14 C                     0.024117
     15 O                    -0.188220
     16 H                     0.087470
     17 H                     0.083051
     18 H                     0.096687
     19 H                     0.101227
     20 H                     0.082911
     21 H                     0.078160
     22 H                     0.073880
     23 H                     0.078030
     24 H                     0.073132
     25 H                     0.090800
     26 H                     0.083033
     27 H                     0.086712
     28 H                     0.087817
     29 H                     0.084820
  ----------------------------------------
  Sum of atomic charges =     0.000000

 -----------------------------------------------------------------
                    Cartesian Multipole Moments
 -----------------------------------------------------------------
    Charge (ESU x 10^10)
                -0.0000
    Dipole Moment (Debye)
         X      -0.0107      Y      -1.1395      Z      -2.2151
       Tot       2.4910
    Quadrupole Moments (Debye-Ang)
        XX     -72.1563     XY       1.6295     YY     -77.5163
        XZ      -1.5212     YZ      -3.8184     ZZ     -84.8795
    Octopole Moments (Debye-Ang^2)
       XXX     -34.8782    XXY       1.8802    XYY     -17.0205
       YYY      -6.8158    XXZ      -1.7558    XYZ       3.6796
       YYZ       2.6134    XZZ      -4.9571    YZZ      -0.0562
       ZZZ       3.4207
    Hexadecapole Moments (Debye-Ang^3)
      XXXX   -1930.2200   XXXY     -13.0433   XXYY    -504.6301
      XYYY      12.3102   YYYY   -1317.6738   XXXZ      27.3449
      XXYZ      -0.9840   XYYZ       7.7216   YYYZ     -42.0865
      XXZZ    -394.5946   XYZZ       1.8704   YYZZ    -284.9767
      XZZZ      -4.0522   YZZZ       0.2140   ZZZZ    -297.7330
 -----------------------------------------------------------------
 Calculating analytic gradient of the SCF energy
 Gradient of SCF Energy
            1           2           3           4           5           6
    1   0.0003058  -0.0001943   0.0002427   0.0004453   0.0008398  -0.0009319
    2  -0.0009538  -0.0001755   0.0005539   0.0016111  -0.0011488   0.0003708
    3  -0.0009394   0.0016417   0.0010045  -0.0007366  -0.0016612   0.0001637
            7           8           9          10          11          12
    1  -0.0005340  -0.0000003  -0.0010546  -0.0008747   0.0006557   0.0004997
    2  -0.0013263   0.0003722   0.0001817  -0.0001887  -0.0003364  -0.0004142
    3  -0.0011246   0.0004422   0.0005097   0.0008680  -0.0007012  -0.0006160
           13          14          15          16          17          18
    1   0.0005109   0.0003670   0.0001421  -0.0001478   0.0001181   0.0002440
    2   0.0004588  -0.0005028   0.0001592   0.0005977   0.0000151   0.0002672
    3  -0.0007137   0.0004098   0.0013557  -0.0002736  -0.0000517   0.0001560
           19          20          21          22          23          24
    1  -0.0000054  -0.0004457  -0.0000122   0.0000562   0.0000172   0.0001118
    2   0.0001992   0.0000792   0.0001347  -0.0002060  -0.0001710   0.0001271
    3   0.0000752   0.0002426   0.0002043   0.0000172   0.0000943   0.0001034
           25          26          27          28          29
    1  -0.0003646  -0.0000941   0.0000649   0.0001809  -0.0001425
    2   0.0000879   0.0001572  -0.0002035   0.0000421   0.0002116
    3  -0.0000255  -0.0002166   0.0000557  -0.0002473  -0.0000366
 Max gradient component =       1.661E-03
 RMS gradient           =       5.732E-04
 Gradient time:  CPU 13.76 s  wall 0.58 s
 Geometry Optimization Parameters
   NAtoms,    NIC,     NZ,  NCons,   NDum,   NFix, NCnnct, MaxDiis
       29     227       0       2       0       0       0       0

 Cartesian Hessian Update
 Hessian Updated using BFGS Update


** CONSTRAINED OPTIMIZATION IN DELOCALIZED INTERNAL COORDINATES **
   Searching for a Minimum

   Optimization Cycle:   5

                       Coordinates (Angstroms)
     ATOM                X               Y               Z
      1  C         0.4713998610   -0.6915360354   -0.6280857653
      2  C         0.6557501322    0.8792470326   -0.5432751594
      3  C        -0.8496558946   -1.1809414221    0.0536335669
      4  C        -0.5948387604    1.6627366532   -0.0000677003
      5  O        -1.2036128748   -2.4528477783   -0.5053422800
      6  O        -1.4914564301   -0.6033442321    0.9601169399
      7  O        -1.6878022870    1.4314563632   -0.9046818951
      8  O        -0.6473814468    2.4129692628    0.9968387692
      9  C        -2.9095166341    2.1017436419   -0.4015838934
     10  C        -2.4428970551   -2.9649810124    0.1311591038
     11  C         1.7311295631   -1.1742950895    0.2181671156
     12  C         3.0462215317   -0.8894365503   -0.6126795326
     13  C         3.2020933702    0.6663394564   -0.4189399712
     14  C         1.9073854029    0.9927418491    0.4238939381
     15  O         1.7805520936   -0.1836109085    1.3180478015
     16  H         0.5004046409   -1.0607143652   -1.6682542950
     17  H         0.8926834241    1.2839326000   -1.5446167510
     18  H        -3.0358126497    1.9455475825    0.6885099060
     19  H        -2.6257869862   -2.4374018584    1.0887242891
     20  H         1.6392996853   -2.2013178803    0.6228982088
     21  H         3.8985175555   -1.4374375410   -0.1803990972
     22  H         2.9374645609   -1.1812631355   -1.6696496522
     23  H         4.1085535106    0.9082587878    0.1588280183
     24  H         3.2312697797    1.2177376283   -1.3721602453
     25  H         1.9300918309    1.9280988031    1.0164370861
     26  H        -2.8828239050    3.1932691913   -0.6021982111
     27  H        -3.7582435271    1.6504592616   -0.9482180858
     28  H        -2.3103093874   -4.0503900866    0.2993250075
     29  H        -3.3075870400   -2.8007670086   -0.5437682113
   Point Group: c1    Number of degrees of freedom:    81


   Energy is   -755.732619190

              Constraints and their Current Values
                                        Value     Constraint
   Dihedral:        2   1   3   5      157.300      157.300
   Dihedral:        1   2   4   7      -61.600      -61.600
 Hessian Updated using BFGS Update

 78 Hessian modes will be used to form the next step
  Hessian Eigenvalues:
     0.020796    0.045000    0.045007    0.045024    0.045259    0.045561
     0.045990    0.048683    0.056311    0.058858    0.065341    0.066629
     0.070932    0.072185    0.074224    0.075965    0.081707    0.083464
     0.084108    0.085037    0.086760    0.088258    0.091235    0.091433
     0.096992    0.098169    0.112307    0.112738    0.113496    0.116978
     0.117253    0.121643    0.122427    0.138836    0.140994    0.158989
     0.159980    0.160180    0.160914    0.162567    0.170159    0.176174
     0.245246    0.247623    0.249672    0.249975    0.250113    0.251386
     0.255991    0.267264    0.268592    0.291826    0.299808    0.308591
     0.318621    0.328811    0.336609    0.339089    0.340446    0.341639
     0.342236    0.342306    0.343134    0.343673    0.343864    0.343892
     0.344088    0.344371    0.344774    0.345864    0.358342    0.383288
     0.411169    0.453088    0.514176    0.531580    0.949452    0.974505

 Minimum Search - Taking Simple RFO Step
 Searching for Lamda that Minimizes Along All modes
 Value Taken    Lamda =  -0.00012075
 Step Taken.  Stepsize is  0.056543

                             Maximum     Tolerance    Cnvgd?
         Gradient           0.001923      0.000300      NO
         Displacement       0.022600      0.001200      NO
         Energy change     -0.000218      0.000001      NO


 New Cartesian Coordinates Obtained by Inverse Iteration

 Displacement from previous Coordinates is:  0.098899
[...]
 C         -0.000  0.000  0.000    0.042 -0.036 -0.035   -0.003  0.002 -0.003
 C         -0.000 -0.000  0.000    0.050  0.033 -0.019    0.002  0.003  0.004
 C         -0.000  0.000 -0.000   -0.001  0.008  0.003    0.003 -0.009 -0.008
 O          0.000 -0.000  0.000   -0.001 -0.000  0.000   -0.000 -0.003 -0.002
 H          0.001  0.001  0.000    0.025  0.002 -0.003    0.195  0.068 -0.045
 H         -0.002  0.001 -0.001    0.053 -0.027 -0.000   -0.042 -0.009 -0.003
 H          0.128  0.597  0.287    0.007 -0.001  0.002   -0.046 -0.007 -0.033
 H          0.007 -0.015 -0.144   -0.000 -0.000  0.001    0.040  0.113  0.001
 H          0.001  0.000  0.001    0.021 -0.016 -0.003   -0.001 -0.003  0.009
 H         -0.000 -0.001 -0.001   -0.052  0.194  0.467   -0.017 -0.006  0.017
 H          0.001 -0.001  0.000   -0.407  0.307 -0.046    0.001  0.006 -0.004
 H          0.001 -0.000 -0.001   -0.143 -0.288  0.354    0.013 -0.012 -0.011
 H          0.001  0.000  0.000   -0.431 -0.164 -0.156   -0.002 -0.003 -0.001
 H         -0.000 -0.000  0.001    0.016  0.015 -0.002    0.001 -0.016 -0.014
 H         -0.207 -0.037  0.591    0.005 -0.000  0.001   -0.063 -0.009 -0.040
 H          0.228 -0.080 -0.216    0.006 -0.003 -0.005   -0.073  0.066  0.048
 H          0.122 -0.055 -0.025   -0.000  0.003  0.000    0.069  0.095  0.032
 H         -0.058  0.002  0.015    0.000  0.001 -0.002    0.147  0.050 -0.104
 TransDip   0.056  0.010  0.054   -0.047  0.001  0.063   -0.234  0.097  0.068

 Mode:                67                     68                     69
 Frequency:      1805.34                3049.44                3049.76
 Force Cnst:     22.0138                 5.6397                 5.6421
 Red. Mass:      11.4638                 1.0294                 1.0296
 IR Active:          YES                    YES                    YES
 IR Intens:      396.274                 25.114                 45.797
 Raman Active:       YES                    YES                    YES
               X      Y      Z        X      Y      Z        X      Y      Z
 C          0.023 -0.008 -0.031   -0.000 -0.000 -0.001    0.000  0.000  0.001
 C          0.016 -0.028 -0.035   -0.001 -0.001  0.003   -0.000 -0.000  0.001
 C         -0.216  0.139  0.292    0.000  0.001  0.001   -0.000 -0.002 -0.001
 C         -0.043  0.419  0.525   -0.002 -0.001 -0.002   -0.001 -0.000 -0.001
 O          0.012 -0.010 -0.018   -0.001 -0.001  0.000    0.002  0.002 -0.000
 O          0.128 -0.102 -0.187    0.000 -0.000 -0.000   -0.000  0.000  0.001
 O         -0.003 -0.022 -0.033    0.002 -0.001  0.000    0.001 -0.000  0.000
 O          0.006 -0.267 -0.339    0.000  0.000  0.001   -0.000  0.000  0.000
 C         -0.019  0.015  0.012    0.027 -0.020 -0.018    0.016 -0.012 -0.011
 C         -0.012 -0.004  0.009   -0.018 -0.005  0.013    0.030  0.009 -0.022
 C          0.010  0.001  0.010   -0.000 -0.000  0.000   -0.000  0.000 -0.000
 C         -0.002  0.001 -0.003   -0.000  0.000  0.000    0.000 -0.000 -0.000
 C         -0.004 -0.003 -0.006    0.001  0.001 -0.000    0.001  0.000 -0.000
 C          0.004  0.005  0.016   -0.000  0.000 -0.000   -0.000  0.000  0.000
 O         -0.001 -0.002 -0.008    0.000 -0.000 -0.000    0.000  0.000  0.000
 H          0.120  0.048 -0.042    0.000  0.003  0.010   -0.000 -0.002 -0.006
 H          0.115 -0.121 -0.026    0.010  0.015 -0.041    0.003  0.005 -0.013
 H          0.108 -0.044  0.051   -0.161 -0.207  0.467   -0.095 -0.122  0.276
 H          0.022  0.064  0.001    0.266 -0.180  0.042   -0.451  0.305 -0.070
 H         -0.021 -0.007 -0.013    0.000  0.002 -0.001   -0.000 -0.002  0.001
 H         -0.015 -0.012  0.009    0.002 -0.001  0.001   -0.004  0.003 -0.002
 H          0.006  0.003 -0.004   -0.000 -0.001 -0.003    0.001  0.001  0.005
 H         -0.022  0.015  0.021   -0.006 -0.001 -0.005   -0.006 -0.001 -0.004
 H          0.006 -0.003 -0.004   -0.000 -0.006  0.010   -0.000 -0.004  0.007
 H         -0.055  0.042 -0.003   -0.000 -0.001 -0.000    0.000 -0.001 -0.000
 H          0.117  0.013  0.028    0.082  0.537  0.039    0.049  0.316  0.023
 H          0.130 -0.100 -0.083   -0.257 -0.083 -0.286   -0.151 -0.049 -0.168
 H          0.039  0.054  0.020   -0.059  0.049 -0.309    0.100 -0.083  0.526
 H          0.084  0.029 -0.061    0.016  0.195  0.110   -0.028 -0.331 -0.187
 TransDip  -0.029  0.426  0.473    0.074 -0.140  0.023    0.207  0.049 -0.039

 Mode:                70                     71                     72
 Frequency:      3056.98                3061.26                3067.79
 Force Cnst:      5.8656                 5.9354                 5.8916
 Red. Mass:       1.0653                 1.0750                 1.0625
 IR Active:          YES                    YES                    YES
 IR Intens:       14.258                 16.121                 35.969
 Raman Active:       YES                    YES                    YES
               X      Y      Z        X      Y      Z        X      Y      Z
 C         -0.000  0.002  0.007    0.000  0.001  0.005   -0.000  0.002  0.007
 C          0.009  0.014 -0.037    0.014  0.023 -0.060    0.005  0.008 -0.022
 C         -0.000 -0.000  0.000   -0.000 -0.000  0.000   -0.000 -0.000  0.000
 C         -0.000 -0.000 -0.001   -0.000 -0.000 -0.002   -0.000  0.000 -0.001
 O          0.000  0.000 -0.000    0.000  0.000 -0.000    0.000  0.000 -0.000
 O          0.000 -0.000 -0.000    0.000 -0.000 -0.000    0.000 -0.000 -0.000
 O          0.000 -0.000  0.000    0.000 -0.000  0.000    0.000 -0.000  0.000
 O          0.000  0.000  0.000    0.000  0.000  0.000    0.000  0.000  0.000
 C          0.001 -0.001 -0.001    0.001 -0.001 -0.001    0.000 -0.000  0.000
 C         -0.000 -0.000  0.000   -0.000 -0.000  0.000   -0.000 -0.000  0.000
 C          0.000  0.002 -0.001    0.000 -0.002  0.001   -0.000  0.004 -0.002
 C          0.018 -0.023 -0.026   -0.018  0.024  0.026    0.016 -0.024 -0.028
 C         -0.029 -0.028  0.019    0.009  0.004  0.001    0.038  0.032 -0.014
 C          0.001  0.001  0.001    0.001 -0.000 -0.001   -0.001 -0.002 -0.002
 O         -0.000  0.000  0.000   -0.000 -0.000  0.000   -0.000 -0.000  0.000
 H          0.002 -0.028 -0.088   -0.001 -0.018 -0.059    0.003 -0.027 -0.085
 H         -0.111 -0.169  0.445   -0.180 -0.276  0.728   -0.064 -0.098  0.259
 H         -0.007 -0.008  0.019   -0.007 -0.008  0.020   -0.000  0.000 -0.000
 H          0.005 -0.004  0.001    0.002 -0.001  0.000    0.006 -0.004  0.001
 H         -0.001 -0.025  0.008    0.001  0.023 -0.007   -0.003 -0.048  0.017
 H         -0.266  0.181 -0.136    0.268 -0.183  0.137   -0.250  0.172 -0.130
 H          0.061  0.095  0.441   -0.062 -0.095 -0.441    0.064  0.101  0.457
 H          0.313  0.056  0.215   -0.096 -0.019 -0.062   -0.428 -0.078 -0.290
 H          0.015  0.271 -0.441   -0.002 -0.031  0.055   -0.014 -0.285  0.463
 H         -0.003 -0.013 -0.008    0.000  0.007  0.004    0.005  0.035  0.022
 H          0.003  0.022  0.002    0.003  0.024  0.002    0.000  0.001  0.000
 H         -0.011 -0.004 -0.012   -0.011 -0.004 -0.012   -0.000 -0.000 -0.001
 H         -0.001  0.001 -0.007   -0.001  0.000 -0.003   -0.001  0.001 -0.008
 H          0.000  0.004  0.002    0.000  0.002  0.001    0.000  0.004  0.002
 TransDip  -0.028 -0.109 -0.045   -0.031  0.125  0.006    0.149  0.047 -0.112

 Mode:                73                     74                     75
 Frequency:      3096.92                3110.35                3117.26
 Force Cnst:      6.2546                 6.2236                 6.3027
 Red. Mass:       1.1068                 1.0919                 1.1009
 IR Active:          YES                    YES                    YES
 IR Intens:        0.943                  7.393                 36.758
 Raman Active:       YES                    YES                    YES
               X      Y      Z        X      Y      Z        X      Y      Z
 C         -0.000  0.003  0.011    0.001 -0.022 -0.067    0.001 -0.014 -0.041
 C         -0.001 -0.002  0.005    0.001  0.003 -0.005    0.002  0.004 -0.008
 C          0.000  0.000  0.000   -0.001 -0.001 -0.001   -0.000 -0.001 -0.001
 C         -0.000  0.000  0.000   -0.000  0.000 -0.000   -0.000  0.000 -0.000
 O         -0.000 -0.000 -0.000    0.000  0.000  0.000   -0.000  0.000  0.000
 O         -0.000 -0.000 -0.000   -0.000  0.000  0.000   -0.000  0.000  0.000
 O          0.000  0.000 -0.000    0.000 -0.000  0.000    0.000 -0.000  0.000
 O         -0.000 -0.000 -0.000    0.000 -0.000 -0.000    0.000  0.000  0.000
 C         -0.000  0.000 -0.000    0.000  0.000  0.000   -0.000 -0.000  0.000
 C         -0.000 -0.000 -0.000    0.001  0.000  0.000    0.001 -0.000  0.001
 C         -0.001 -0.007  0.002    0.002  0.008 -0.003   -0.001 -0.005  0.001
 C         -0.043  0.019 -0.052    0.015 -0.008  0.016   -0.033  0.013 -0.046
 C          0.031 -0.013  0.052    0.024 -0.008  0.037   -0.029  0.011 -0.046
 C          0.000 -0.002 -0.001    0.001 -0.002 -0.001   -0.000  0.002 -0.000
 O         -0.000  0.000 -0.000   -0.000  0.000  0.000    0.000  0.000  0.001
 H          0.004 -0.041 -0.127   -0.014  0.255  0.791   -0.006  0.158  0.493
 H          0.016  0.026 -0.068   -0.017 -0.026  0.062   -0.022 -0.038  0.095
 H         -0.000 -0.000  0.000    0.000  0.001 -0.001    0.001  0.001 -0.003
 H          0.000 -0.000  0.000   -0.005  0.003 -0.001   -0.011  0.007 -0.001
 H          0.009  0.087 -0.033   -0.011 -0.094  0.036    0.005  0.055 -0.021
 H          0.464 -0.322  0.216   -0.172  0.121 -0.080    0.348 -0.245  0.162
 H          0.044  0.096  0.404   -0.012 -0.028 -0.108    0.045  0.095  0.393
 H         -0.397 -0.080 -0.253   -0.304 -0.062 -0.195    0.364  0.076  0.234
 H          0.025  0.232 -0.369    0.017  0.159 -0.250   -0.022 -0.203  0.318
 H          0.001  0.020  0.014    0.002  0.027  0.019   -0.001 -0.011 -0.007
 H         -0.000 -0.002 -0.000   -0.000 -0.000  0.000    0.001  0.004  0.000
 H          0.000  0.000  0.000   -0.001 -0.000 -0.001   -0.001 -0.000 -0.001
 H          0.000  0.000  0.000   -0.000 -0.001  0.002   -0.001  0.001 -0.006
 H         -0.000  0.000  0.000   -0.000 -0.004 -0.002    0.000 -0.003 -0.001
 TransDip  -0.020 -0.003  0.023    0.071 -0.050  0.003   -0.101  0.010 -0.166

 Mode:                76                     77                     78
 Frequency:      3122.73                3124.54                3132.07
 Force Cnst:      6.3605                 6.3697                 6.2993
 Red. Mass:       1.1071                 1.1074                 1.0899
 IR Active:          YES                    YES                    YES
 IR Intens:       18.692                 15.453                 21.745
 Raman Active:       YES                    YES                    YES
               X      Y      Z        X      Y      Z        X      Y      Z
 C         -0.000 -0.000 -0.001    0.000  0.000  0.000   -0.000 -0.001 -0.005
 C          0.000  0.000 -0.000   -0.000 -0.000  0.000   -0.000  0.001 -0.001
 C          0.000 -0.000  0.000   -0.000  0.000  0.000   -0.000 -0.001  0.000
 C         -0.000 -0.000 -0.000    0.000  0.000 -0.000   -0.000  0.000 -0.000
 O          0.000 -0.000  0.000    0.000 -0.000 -0.000    0.000  0.000 -0.000
 O          0.000 -0.000  0.000    0.000 -0.000 -0.000    0.000  0.000 -0.000
 O          0.000 -0.000  0.000    0.000  0.000 -0.000    0.000 -0.000  0.000
 O          0.000  0.000  0.000   -0.000  0.000 -0.000    0.000 -0.000  0.000
 C          0.001  0.003 -0.001   -0.028 -0.080  0.044   -0.000 -0.000  0.000
 C         -0.058  0.042 -0.062   -0.002  0.001 -0.002    0.001 -0.000  0.001
 C         -0.000 -0.001  0.000   -0.000  0.000 -0.000   -0.008 -0.079  0.031
 C         -0.000  0.000 -0.001    0.000 -0.000  0.000    0.010 -0.005  0.006
 C         -0.000  0.000 -0.001    0.000 -0.000  0.000    0.003  0.001  0.001
 C         -0.000 -0.000 -0.000   -0.000  0.000  0.000   -0.000 -0.003 -0.003
 O          0.000 -0.000  0.000    0.000  0.000 -0.000   -0.000 -0.000 -0.000
 H          0.000  0.003  0.009    0.000 -0.001 -0.003    0.001  0.017  0.057
 H         -0.001 -0.001  0.002    0.000  0.001 -0.001   -0.003 -0.006  0.014
 H         -0.007 -0.009  0.022    0.203  0.254 -0.618    0.001  0.001 -0.002
 H          0.577 -0.397  0.073    0.020 -0.014  0.003   -0.008  0.005 -0.001
 H          0.001  0.010 -0.004   -0.000 -0.001  0.000    0.094  0.909 -0.358
 H          0.002 -0.002  0.001   -0.001  0.001 -0.000   -0.111  0.075 -0.049
 H          0.001  0.001  0.005   -0.000 -0.000 -0.002   -0.004 -0.008 -0.025
 H          0.004  0.001  0.002   -0.002 -0.000 -0.001   -0.025 -0.005 -0.016
 H         -0.000 -0.003  0.004    0.000  0.002 -0.003    0.000  0.001  0.000
 H          0.000  0.001  0.001    0.000 -0.001 -0.001    0.003  0.049  0.035
 H         -0.004 -0.026 -0.002    0.109  0.696  0.066    0.000 -0.000 -0.000
 H         -0.002 -0.000 -0.003    0.015 -0.008  0.031   -0.001 -0.000 -0.001
 H          0.118 -0.093  0.686    0.005 -0.004  0.026   -0.001  0.001 -0.006
 H         -0.013 -0.010 -0.023   -0.000  0.001  0.000    0.000 -0.002 -0.001
 TransDip  -0.084  0.064 -0.089   -0.027 -0.112  0.052    0.012 -0.146  0.031

 Mode:                79                     80                     81
 Frequency:      3153.05                3155.98                3162.04
 Force Cnst:      6.4808                 6.4915                 6.4247
 Red. Mass:       1.1064                 1.1062                 1.0906
 IR Active:          YES                    YES                    YES
 IR Intens:       14.124                 14.349                  5.638
 Raman Active:       YES                    YES                    YES
               X      Y      Z        X      Y      Z        X      Y      Z
 C         -0.000 -0.000 -0.000   -0.000  0.000 -0.000    0.001  0.001  0.002
 C          0.000  0.000  0.000    0.000  0.000 -0.000    0.000 -0.000  0.001
 C         -0.000 -0.000 -0.000    0.001  0.000 -0.001    0.000  0.000 -0.000
 C          0.001 -0.001 -0.001    0.000  0.000 -0.000    0.000 -0.001 -0.001
 O          0.000  0.000  0.000   -0.000  0.000  0.000   -0.000 -0.000  0.000
 O         -0.000  0.000  0.000   -0.000  0.000  0.000   -0.000 -0.000  0.000
 O          0.000  0.000  0.000   -0.000 -0.000  0.000   -0.000  0.000  0.000
 O         -0.000  0.000  0.000   -0.000 -0.000 -0.000    0.000  0.000  0.000
 C         -0.043 -0.028 -0.079   -0.000  0.000 -0.000   -0.000 -0.000 -0.001
 C         -0.000  0.000  0.000    0.009 -0.074 -0.059    0.000  0.000  0.000
 C         -0.000 -0.000  0.000   -0.000 -0.000  0.000    0.001  0.006 -0.001
 C          0.000 -0.000 -0.000    0.000 -0.000 -0.000   -0.001  0.001  0.001
 C          0.000  0.000  0.000    0.000  0.000 -0.000   -0.005 -0.000 -0.002
 C          0.000  0.001  0.001   -0.000 -0.000 -0.000   -0.005 -0.070 -0.051
 O         -0.000  0.000  0.000   -0.000  0.000  0.000   -0.000 -0.000  0.000
 H         -0.000  0.001  0.002   -0.000  0.000  0.001   -0.000 -0.005 -0.017
 H         -0.000 -0.000  0.001   -0.000 -0.000  0.000    0.001  0.003 -0.010
 H         -0.109 -0.140  0.286   -0.001 -0.001  0.003   -0.001 -0.002  0.003
 H          0.003 -0.002  0.000   -0.242  0.154 -0.051    0.000 -0.000  0.000
 H          0.000  0.003 -0.001    0.000  0.000 -0.000   -0.005 -0.050  0.020
 H         -0.000  0.000 -0.000   -0.001  0.000 -0.000    0.010 -0.006  0.004
 H          0.000  0.000  0.001    0.000  0.000  0.001   -0.001 -0.001 -0.008
 H         -0.001 -0.000 -0.001   -0.000 -0.000 -0.000    0.052  0.009  0.029
 H         -0.000 -0.000  0.000   -0.000 -0.000  0.000    0.002  0.002 -0.006
 H         -0.000 -0.009 -0.007    0.000  0.003  0.002    0.049  0.801  0.585
 H          0.040  0.291  0.006   -0.000 -0.000 -0.000    0.001  0.005  0.000
 H          0.580  0.187  0.648    0.003  0.001  0.003    0.006  0.002  0.007
 H          0.000  0.000  0.000    0.064 -0.062  0.305   -0.000  0.000 -0.001
 H         -0.000 -0.003 -0.002    0.066  0.778  0.441   -0.000 -0.003 -0.001
 TransDip  -0.074 -0.028 -0.091   -0.007 -0.103 -0.063   -0.043 -0.058 -0.024

 STANDARD THERMODYNAMIC QUANTITIES AT   298.15 K  AND     1.00 ATM

   This Molecule has  0 Imaginary Frequencies
   Zero point vibrational energy:      149.056 kcal/mol

   Atom    1 Element C  Has Mass   12.00000
   Atom    2 Element C  Has Mass   12.00000
   Atom    3 Element C  Has Mass   12.00000
   Atom    4 Element C  Has Mass   12.00000
   Atom    5 Element O  Has Mass   15.99491
   Atom    6 Element O  Has Mass   15.99491
   Atom    7 Element O  Has Mass   15.99491
   Atom    8 Element O  Has Mass   15.99491
   Atom    9 Element C  Has Mass   12.00000
   Atom   10 Element C  Has Mass   12.00000
   Atom   11 Element C  Has Mass   12.00000
   Atom   12 Element C  Has Mass   12.00000
   Atom   13 Element C  Has Mass   12.00000
   Atom   14 Element C  Has Mass   12.00000
   Atom   15 Element O  Has Mass   15.99491
   Atom   16 Element H  Has Mass    1.00783
   Atom   17 Element H  Has Mass    1.00783
   Atom   18 Element H  Has Mass    1.00783
   Atom   19 Element H  Has Mass    1.00783
   Atom   20 Element H  Has Mass    1.00783
   Atom   21 Element H  Has Mass    1.00783
   Atom   22 Element H  Has Mass    1.00783
   Atom   23 Element H  Has Mass    1.00783
   Atom   24 Element H  Has Mass    1.00783
   Atom   25 Element H  Has Mass    1.00783
   Atom   26 Element H  Has Mass    1.00783
   Atom   27 Element H  Has Mass    1.00783
   Atom   28 Element H  Has Mass    1.00783
   Atom   29 Element H  Has Mass    1.00783
   Molecular Mass:   214.084170 amu
   Principal axes and moments of inertia in amu*Bohr^2:
                             1           2           3
    Eigenvalues --     2456.55192  2965.49890  4688.06622
          X               0.99987     0.01238    -0.00996
          Y              -0.01246     0.99989    -0.00751
          Z               0.00987     0.00763     0.99992
   Rotational Symmetry Number is   1
   The Molecule is an Asymmetric Top
   Translational Enthalpy:        0.889 kcal/mol
   Rotational Enthalpy:           0.889 kcal/mol
   Vibrational Enthalpy:        156.327 kcal/mol
   gas constant (RT):             0.592 kcal/mol
   Translational Entropy:        41.987  cal/mol.K
   Rotational Entropy:           31.902  cal/mol.K
   Vibrational Entropy:          48.188  cal/mol.K

   Total Enthalpy:              158.697 kcal/mol
   Total Entropy:               122.076  cal/mol.K
Archival summary:
1\1\nid04576\FREQ\ProcedureUnspecified\BasisUnspecified\51014\junteng\WedOct420:12:212017WedOct420:12:212017\0\\#,FREQ,ProcedureUnspecified,BasisUnspecified,\\0,1\O\C,1,1.42794\H,2,1.08803,1,110.175\C,1,1.43928,2,97.1286,3,179.424,0\H,4,1.08579,1,109.764,2,177.486,0\C,4,1.54205,1,102.069,2,-57.6765,0\H,6,1.09086,4,110.173,1,-80.4151,0\H,6,1.09181,4,112.863,1,158.398,0\C,2,1.5468,1,103.42,3,-124.212,0\H,9,1.09072,2,110.303,1,87.0606,0\H,9,1.09188,2,112.374,1,-152.271,0\C,4,1.55004,1,103.2,2,55.1742,0\H,12,1.09372,4,110.813,1,-144.986,0\C,12,1.51879,4,114.081,1,96.5194,0\O,14,1.20321,12,125.908,4,6.22144,0\O,14,1.35101,12,109.814,4,-178.192,0\C,16,1.43902,14,115.977,12,175.198,0\H,17,1.08804,16,105.482,14,-179.899,0\H,17,1.09092,16,110.686,14,60.4376,0\H,17,1.09106,16,109.756,14,-60.6426,0\C,2,1.56336,1,101.924,3,121.931,0\H,21,1.08913,2,111.386,1,157.724,0\C,21,1.5135,2,108.827,1,-83.1054,0\O,23,1.20441,21,126.85,2,88.7266,0\O,23,1.3537,21,109.711,2,-88.2264,0\C,25,1.44017,23,115.97,21,176.239,0\H,26,1.08781,25,105.452,23,-178.908,0\H,26,1.091,25,110.513,23,-59.2481,0\H,26,1.0911,25,110.385,23,61.6494,0\\\@

 Total job time:  7397.47s(wall), 39695.34s(cpu) 
 Wed Oct  4 20:12:21 2017

        *************************************************************
        *                                                           *
        *  Thank you very much for using Q-Chem.  Have a nice day.  *
        *                                                           *
        *************************************************************


