nid04580 10.128.18
Q-Chem Developer Version! Running on 10.128.18.*
                  Welcome to Q-Chem
     A Quantum Leap Into The Future Of Chemistry


 Q-Chem 5.0, Q-Chem, Inc., Pleasanton, CA (2017)

 Yihan Shao,  Zhengting Gan,  E. Epifanovsky,  A. T. B. Gilbert,  M. Wormit,  
 J. Kussmann,  A. W. Lange,  A. Behn,  Jia Deng,  Xintian Feng,  D. Ghosh,  
 M. Goldey,  P. R. Horn,  L. D. Jacobson,  I. Kaliman,  T. Kus,  A. Landau,  
 Jie Liu,  E. I. Proynov,  R. M. Richard,  R. P. Steele,  E. J. Sundstrom,  
 H. L. Woodcock III,  P. M. Zimmerman,  D. Zuev,  B. Albrecht,  E. Alguire,  
 S. A. Baeppler,  Z. Benda,  Y. A. Bernard,  E. J. Berquist,  K. B. Bravaya,  
 D. Casanova,  Chun-Min Chang,  Yunqing Chen,  A. Chien,  K. D. Closser,  
 M. P. Coons,  S. Dasgupta,  M. Diedenhofen,  Hainam Do,  R. G. Edgar,  
 Po-Tung Fang,  S. Fatehi,  Qingguo Feng,  Qinghui Ge,  A. Ghysels,  
 J. Gomes,  J. Gonthier,  A. Gunina,  M. W. D. Hanson-Heine,  
 P. H. P. Harbach,  A. W. Hauser,  J. E. Herr,  E. G. Hohenstein,  
 Z. C. Holden,  Kerwin Hui,  T.-C. Jagau,  Hyunjun Ji,  B. Kaduk,  
 K. Khistyaev,  Jaehoon Kim,  P. Klunzinger,  K. Koh,  D. Kosenkov,  
 T. Kowalczyk,  C. M. Krauter,  A. Kunitsa,  Ka Un Lao,  A. Laurent,  
 K. V. Lawler,  Joonho Lee,  D. Lefrancois,  S. Lehtola,  D. S. Levine,  
 Yi-Pei Li,  You-Sheng Lin,  Fenglai Liu,  E. Livshits,  A. Luenser,  
 P. Manohar,  E. Mansoor,  S. F. Manzer,  Shan-Ping Mao,  Yuezhi Mao,  
 N. Mardirossian,  A. V. Marenich,  L. A. Martinez-Martinez,  S. A. Maurer,  
 N. J. Mayhall,  S. C. McKenzie,  J.-M. Mewes,  A. F. Morrison,  K. Nanda,  
 T. S. Nguyen-Beck,  R. Olivares-Amaya,  J. A. Parkhill,  T. M. Perrine,  
 F. Plasser,  S. Prager,  A. Prociuk,  D. R. Rehn,  F. Rob,  M. Schneider,  
 N. Sergueev,  S. M. Sharada,  S. Sharma,  D. W. Small,  T. Stauch,  
 T. Stein,  Yu-Chuan Su,  A. J. W. Thom,  T. Tsuchimochi,  L. Vogt,  
 O. Vydrov,  M. A. Watson,  J. Wenzel,  M. de Wergifosse,  T. A. Wesolowski,  
 A. White,  J. Witte,  A. Yamada,  Jun Yang,  K. Yao,  S. Yeganeh,  
 S. R. Yost,  Zhi-Qiang You,  A. Zech,  Igor Ying Zhang,  Xing Zhang,  
 Yan Zhao,  Ying Zhu,  B. R. Brooks,  G. K. L. Chan,  C. J. Cramer,  
 M. S. Gordon,  W. J. Hehre,  A. Klamt,  M. W. Schmidt,  C. D. Sherrill,  
 D. G. Truhlar,  A. Aspuru-Guzik,  R. Baer,  A. T. Bell,  N. A. Besley,  
 Jeng-Da Chai,  A. Dreuw,  B. D. Dunietz,  T. R. Furlani,  Chao-Ping Hsu,  
 Yousung Jung,  Jing Kong,  D. S. Lambrecht,  WanZhen Liang,  C. Ochsenfeld,  
 V. A. Rassolov,  L. V. Slipchenko,  J. E. Subotnik,  T. Van Voorhis,  
 J. M. Herbert,  A. I. Krylov,  P. M. W. Gill,  M. Head-Gordon

 Contributors to earlier versions of Q-Chem not listed above: 
 R. D. Adamson,  B. Austin,  J. Baker,  G. J. O. Beran,  K. Brandhorst,  
 S. T. Brown,  E. F. C. Byrd,  A. K. Chakraborty,  C.-L. Cheng,  
 Siu Hung Chien,  D. M. Chipman,  D. L. Crittenden,  H. Dachsel,  
 R. A. DiStasio Jr.,  R. J. Doerksen,  A. D. Dutoi,  L. Fusti-Molnar,  
 W. A. Goddard III,  A. Golubeva-Zadorozhnaya,  S. R. Gwaltney,  G. Hawkins,  
 A. Heyden,  S. Hirata,  G. Kedziora,  F. J. Keil,  C. Kelley,  Jihan Kim,  
 R. A. King,  R. Z. Khaliullin,  P. P. Korambath,  W. Kurlancheek,  
 A. M. Lee,  M. S. Lee,  S. V. Levchenko,  Ching Yeh Lin,  D. Liotard,  
 R. C. Lochan,  I. Lotan,  P. E. Maslen,  N. Nair,  D. P. O'Neill,  
 D. Neuhauser,  E. Neuscamman,  C. M. Oana,  R. Olson,  B. Peters,  
 R. Peverati,  P. A. Pieniazek,  Y. M. Rhee,  J. Ritchie,  M. A. Rohrdanz,  
 E. Rosta,  N. J. Russ,  H. F. Schaefer III,  N. E. Schultz,  N. Shenvi,  
 A. C. Simmonett,  A. Sodt,  D. Stuck,  K. S. Thanthiriwatte,  V. Vanovschi,  
 Tao Wang,  A. Warshel,  C. F. Williams,  Q. Wu,  X. Xu,  W. Zhang

 Please cite Q-Chem as follows:
 Y. Shao et al., Mol. Phys. 113, 184-215 (2015)
 DOI: 10.1080/00268976.2014.952696

 Q-Chem 5.0.0 for Intel X86 EM64T Linux

 Parts of Q-Chem use Armadillo 5.200.1 (Boston Tea Smuggler).
 http://arma.sourceforge.net/

 Q-Chem begins on Wed Oct  4 17:29:54 2017  

Host: nid04580
0

     Scratch files written to /global/cscratch1/sd/junteng/scratch/13/opt_1001+o.save//

Checking the input file for inconsistencies... 	...done.

--------------------------------------------------------------
User input:
--------------------------------------------------------------
$molecule
0  1
C    0.656  -1.997   0.550
C   -0.379  -2.055   1.685
C    1.075  -0.633   0.035
C   -0.743  -0.756   2.367
O    2.254  -0.766  -0.643
O    0.466   0.414   0.178
O    0.380  -0.211   2.923
O   -1.879  -0.339   2.537
C    0.159   1.039   3.578
C    2.798   0.433  -1.203
C   -0.074  -2.721  -0.584
C   -0.239  -4.209  -0.268
C   -1.341  -4.194   0.796
C   -1.585  -2.694   0.978
O   -1.425  -2.250  -0.391
H    1.566  -2.528   0.855
H   -0.041  -2.721   2.491
H   -0.505   1.690   2.999
H    2.061   1.233  -1.326
H    0.286  -2.514  -1.595
H   -0.592  -4.755  -1.150
H    0.687  -4.677   0.078
H   -2.237  -4.682   0.398
H   -1.053  -4.703   1.720
H   -2.574  -2.451   1.372
H   -0.249   0.863   4.578
H    1.124   1.543   3.677
H    3.204   0.190  -2.189
H    3.617   0.777  -0.565
$end


$opt
CONSTRAINT
tors    2    1    3    5    167.3
tors    1    2    4    7    -61.6
ENDCONSTRAINT
$end

$rem
JOBTYPE                   OPT
METHOD                    B3LYP
DFT_D                     D3_OP
BASIS                     STO-3G
GEOM_OPT_MAX_CYCLES       500
SYMMETRY                  False
THRESH                    12
SCF_CONVERGENCE           8
MAX_SUB_FILE_NUM          128
MEM_STATIC                400
MEM_TOTAL                 4000
$end

--------------------------------------------------------------
 Adding empirical dispersion correction 
 ----------------------------------------------------------------
 Doing -D3(op) with
 s6 =   1.00000
 s8 =   0.78311
 a1 =   0.30000
 a2 =   4.25000
 n  =  10.00000
 -D3 energy without 3body term =     -0.0301175666 hartrees
 ----------------------------------------------------------------
             Standard Nuclear Orientation (Angstroms)
    I     Atom           X                Y                Z
 ----------------------------------------------------------------
    1      C       0.3697342729    -0.6344652785    -0.5682185024
    2      C       0.5830892856     0.8866305416    -0.5085431759
    3      C      -0.8699014548    -1.2078766031     0.0919214188
    4      C      -0.5598235439     1.7339384151     0.0021824174
    5      O      -1.0906277378    -2.4603631032    -0.4080500553
    6      O      -1.5566019091    -0.6636803128     0.9403504869
    7      O      -1.6498149946     1.5482939899    -0.8007775971
    8      O      -0.4799332706     2.5718972711     0.8880308806
    9      C      -2.8044492191     2.2858543985    -0.3968092184
   10      C      -2.2289112229    -3.1547881210     0.1108156327
   11      C       1.5897974066    -1.1573410878     0.1940667708
   12      C       2.8778742489    -0.9023938644    -0.5914807846
   13      C       3.0736984138     0.6062805862    -0.4118163796
   14      C       1.8273869003     0.9943712392     0.3874040257
   15      O       1.7087539834    -0.1697627505     1.2404077097
   16      H       0.3688686773    -0.9646705244    -1.6141868320
   17      H       0.8207486346     1.2891342672    -1.5030002060
   18      H      -2.9457124994     2.2580152575     0.6891040690
   19      H      -2.5806906233    -2.7639184006     1.0709042303
   20      H       1.5042519872    -2.1684976679     0.6000401094
   21      H       3.7202931181    -1.4355074158    -0.1367617613
   22      H       2.8052766319    -1.2051355012    -1.6399525713
   23      H       3.9784423183     0.7875324718     0.1780566756
   24      H       3.1670514341     1.1432862684    -1.3598201301
   25      H       1.9410338999     1.9133998678     0.9660893801
   26      H      -2.7227111035     3.3187026777    -0.7489218606
   27      H      -3.6791460159     1.8248750106    -0.8631197561
   28      H      -1.9485029726    -4.2023825341     0.2522304790
   29      H      -3.0343825811    -3.1071758873    -0.6274864507
 ----------------------------------------------------------------
 Molecular Point Group                 C1    NOp =  1
 Largest Abelian Subgroup              C1    NOp =  1
 Nuclear Repulsion Energy =  1110.7745787068 hartrees
 There are       57 alpha and       57 beta electrons
 Requested basis set is STO-3G
 There are 44 shells and 89 basis functions

 Total QAlloc Memory Limit   4000 MB
 Mega-Array Size       392 MB
 MEM_STATIC part       400 MB
 A cutoff of  1.0D-12 yielded    865 shell pairs
 There are      3901 function pairs
 
 -------------------------------------------------------
 OpenMP Integral Computing Module                       
 Release: version 1.0, May 2013, Q-Chem Inc. Pittsburgh 
 -------------------------------------------------------
 Integral Job Info:
 Integral job number is                      11
 Integral operator is                         1
 short-range coefficients                     0
 long-range coefficients              100000000
 Omega coefficients                           0
 if combine SR and LR in K                    0
 Integral screening is                        0
 Integral computing path is                   2
 max size of driver memory is            800000
 size of driver memory is                 45569
 size of scratch memory is               945100
 max col of scratch BK array                289
 max len of scratch array in speh3           22
 max len of scratch index in speh4            8
 max int batch size is                      520
 min int batch size is                       52
 fixed nKL is                                52
 max L of basis functions is                  1
 order of int derivative is                   0
 number of shells is                         44
 number of basis is                          89
 number of cartesian basis is                89
 number of contracted shell pairs           865
 number of primitive shell pairs           4854
 maxK2 (contraction) of shell pair            9
 max number of K2 of shell pair               1
 max number of CS2 of shell pair            117
 max number of PS2 of shell pair            570
 mem total for path MDJ                   27818
 -------------------------------------------------------
 Smallest overlap matrix eigenvalue = 1.94E-01

 Scale SEOQF with 1.000000e-01/1.000000e-01/1.000000e-01

 Standard Electronic Orientation quadrupole field applied
 Nucleus-field energy     =     0.0000000330 hartrees
 Guess from superposition of atomic densities
 Warning:  Energy on first SCF cycle will be non-variational
 A restricted hybrid HF-DFT SCF calculation will be
 performed using Pulay DIIS extrapolation
 Exchange:     0.2000 Hartree-Fock + 0.0800 Slater + 0.7200 B88
 Correlation:  0.1900 VWN1RPA + 0.8100 LYP
 Using SG-1 standard quadrature grid
 Dispersion:   Grimme D3
 SCF converges when DIIS error is below 1.0E-08
 -------------------------------------------------------
 OpenMP Integral computing Module                
 Release: version 1.0, May 2013, Q-Chem Inc. Pittsburgh 
 -------------------------------------------------------
 -------------------------------------------------------
 OpenMP BLAS3 based DFT computing Module                
 Release: version 1.0, May 2013, Q-Chem Inc. Pittsburgh 
 -------------------------------------------------------
 ---------------------------------------
  Cycle       Energy         DIIS Error
 ---------------------------------------
    1    -755.1333775847      1.15E-01
    2    -755.4330515638      1.43E-02
    3    -754.4849215495      3.46E-02
    4    -755.6668951176      4.97E-03
    5    -755.6923795685      1.60E-03
    6    -755.6952387513      2.89E-04
    7    -755.6953280194      8.61E-05
    8    -755.6953339718      4.56E-05
    9    -755.6953363169      5.67E-06
   10    -755.6953363555      1.52E-06
   11    -755.6953363583      3.20E-07
   12    -755.6953363584      9.74E-08
   13    -755.6953363584      1.84E-08
   14    -755.6953363584      6.30E-09 Convergence criterion met
 ---------------------------------------
 SCF time:  CPU 60.98 s  wall 2.82 s
 SCF   energy in the final basis set = -755.6953363584
 Total energy in the final basis set = -755.6953363584
 
 --------------------------------------------------------------
 
                    Orbital Energies (a.u.)
 --------------------------------------------------------------
 
 Alpha MOs
 -- Occupied --
-18.943 -18.934 -18.872 -18.868 -18.859 -10.111 -10.104 -10.073
-10.066 -10.061 -10.055 -10.036 -10.033 -10.014 -10.012  -1.042
 -1.033  -0.990  -0.953  -0.945  -0.775  -0.736  -0.726  -0.683
 -0.671  -0.604  -0.551  -0.537  -0.526  -0.488  -0.473  -0.461
 -0.440  -0.428  -0.426  -0.421  -0.415  -0.386  -0.375  -0.365
 -0.353  -0.345  -0.341  -0.326  -0.314  -0.310  -0.301  -0.289
 -0.277  -0.247  -0.240  -0.219  -0.182  -0.172  -0.155  -0.144
 -0.134
 -- Virtual --
  0.113   0.127   0.251   0.273   0.299   0.310   0.345   0.356
  0.375   0.385   0.402   0.409   0.410   0.426   0.432   0.435
  0.443   0.451   0.455   0.460   0.460   0.465   0.475   0.480
  0.491   0.502   0.518   0.541   0.575   0.584   0.702   0.708
 --------------------------------------------------------------
 
          Ground-State Mulliken Net Atomic Charges

     Atom                 Charge (a.u.)
  ----------------------------------------
      1 C                    -0.082971
      2 C                    -0.085571
      3 C                     0.240451
      4 C                     0.242231
      5 O                    -0.189960
      6 O                    -0.229387
      7 O                    -0.191160
      8 O                    -0.229880
      9 C                    -0.125822
     10 C                    -0.130239
     11 C                     0.028296
     12 C                    -0.148142
     13 C                    -0.147404
     14 C                     0.027402
     15 O                    -0.209209
     16 H                     0.089321
     17 H                     0.087279
     18 H                     0.100295
     19 H                     0.102343
     20 H                     0.088273
     21 H                     0.078598
     22 H                     0.072977
     23 H                     0.078897
     24 H                     0.071806
     25 H                     0.097598
     26 H                     0.087949
     27 H                     0.092564
     28 H                     0.092952
     29 H                     0.090514
  ----------------------------------------
  Sum of atomic charges =    -0.000000

 -----------------------------------------------------------------
                    Cartesian Multipole Moments
 -----------------------------------------------------------------
    Charge (ESU x 10^10)
                 0.0000
    Dipole Moment (Debye)
         X      -0.4166      Y      -1.4010      Z      -2.3203
       Tot       2.7423
    Quadrupole Moments (Debye-Ang)
        XX     -73.2573     XY       1.4702     YY     -76.5838
        XZ      -0.8786     YZ      -4.0885     ZZ     -84.4320
    Octopole Moments (Debye-Ang^2)
       XXX     -32.0675    XXY       2.6418    XYY     -21.2123
       YYY     -18.0132    XXZ      -1.5320    XYZ       2.6868
       YYZ       0.4941    XZZ      -5.4483    YZZ      -0.5880
       ZZZ       2.8189
    Hexadecapole Moments (Debye-Ang^3)
      XXXX   -1766.3352   XXXY      -9.1296   XXYY    -491.3941
      XYYY      25.6612   YYYY   -1433.0856   XXXZ      29.3497
      XXYZ       1.9950   XYYZ       9.5677   YYYZ     -42.5702
      XXZZ    -358.3887   XYZZ       4.2414   YYZZ    -298.1186
      XZZZ      -2.0840   YZZZ       6.4186   ZZZZ    -270.9550
 -----------------------------------------------------------------
 Calculating analytic gradient of the SCF energy
 Gradient of SCF Energy
            1           2           3           4           5           6
    1   0.0021799  -0.0079730  -0.0035713  -0.0118003  -0.0264753   0.0361920
    2   0.0147913  -0.0097851  -0.0216101   0.0028776   0.0360793  -0.0275161
    3   0.0422889   0.0229121   0.0047460  -0.0042293   0.0358437  -0.0453326
            7           8           9          10          11          12
    1   0.0164333   0.0007554   0.0161062   0.0147445  -0.0138282  -0.0217591
    2   0.0367505  -0.0371405  -0.0106249   0.0095456   0.0058728   0.0198850
    3   0.0447053  -0.0455882  -0.0072183  -0.0088297  -0.0065146   0.0225080
           13          14          15          16          17          18
    1  -0.0241050  -0.0105318   0.0070337  -0.0006561  -0.0000244   0.0002217
    2  -0.0176790  -0.0004173   0.0029261   0.0044461   0.0029786  -0.0041832
    3   0.0175573  -0.0072092  -0.0670699   0.0053539   0.0078343  -0.0111811
           19          20          21          22          23          24
    1   0.0033618   0.0038078  -0.0013620   0.0001313  -0.0031001  -0.0009921
    2  -0.0087182   0.0089398   0.0060041   0.0020688  -0.0049969  -0.0034859
    3  -0.0085645  -0.0049610  -0.0006986   0.0063589  -0.0026417   0.0059499
           25          26          27          28          29
    1   0.0056966   0.0025947   0.0072903  -0.0031770   0.0128064
    2  -0.0092234  -0.0145968   0.0054778   0.0113557  -0.0000218
    3  -0.0076017  -0.0009062   0.0069966  -0.0001980   0.0056898
 Max gradient component =       6.707E-02
 RMS gradient           =       1.788E-02
 Gradient time:  CPU 24.66 s  wall 1.18 s
 Geometry Optimization Parameters
   NAtoms,    NIC,     NZ,  NCons,   NDum,   NFix, NCnnct, MaxDiis
       29     227       0       2       0       0       0       0


** CONSTRAINED OPTIMIZATION IN DELOCALIZED INTERNAL COORDINATES **
   Searching for a Minimum

   Optimization Cycle:   1

                       Coordinates (Angstroms)
     ATOM                X               Y               Z
      1  C         0.3697342729   -0.6344652785   -0.5682185024
      2  C         0.5830892856    0.8866305416   -0.5085431759
      3  C        -0.8699014548   -1.2078766031    0.0919214188
      4  C        -0.5598235439    1.7339384151    0.0021824174
      5  O        -1.0906277378   -2.4603631032   -0.4080500553
      6  O        -1.5566019091   -0.6636803128    0.9403504869
      7  O        -1.6498149946    1.5482939899   -0.8007775971
      8  O        -0.4799332706    2.5718972711    0.8880308806
      9  C        -2.8044492191    2.2858543985   -0.3968092184
     10  C        -2.2289112229   -3.1547881210    0.1108156327
     11  C         1.5897974066   -1.1573410878    0.1940667708
     12  C         2.8778742489   -0.9023938644   -0.5914807846
     13  C         3.0736984138    0.6062805862   -0.4118163796
     14  C         1.8273869003    0.9943712392    0.3874040257
     15  O         1.7087539834   -0.1697627505    1.2404077097
     16  H         0.3688686773   -0.9646705244   -1.6141868320
     17  H         0.8207486346    1.2891342672   -1.5030002060
     18  H        -2.9457124994    2.2580152575    0.6891040690
     19  H        -2.5806906233   -2.7639184006    1.0709042303
     20  H         1.5042519872   -2.1684976679    0.6000401094
     21  H         3.7202931181   -1.4355074158   -0.1367617613
     22  H         2.8052766319   -1.2051355012   -1.6399525713
     23  H         3.9784423183    0.7875324718    0.1780566756
     24  H         3.1670514341    1.1432862684   -1.3598201301
     25  H         1.9410338999    1.9133998678    0.9660893801
     26  H        -2.7227111035    3.3187026777   -0.7489218606
     27  H        -3.6791460159    1.8248750106   -0.8631197561
     28  H        -1.9485029726   -4.2023825341    0.2522304790
     29  H        -3.0343825811   -3.1071758873   -0.6274864507
   Point Group: c1    Number of degrees of freedom:    81


   Energy is   -755.695336358

              Constraints and their Current Values
                                        Value     Constraint
   Dihedral:        2   1   3   5      161.585      167.300
   Dihedral:        1   2   4   7      -59.895      -61.600

 Attempting to Generate Delocalized Internal Coordinates

   Using Lagrange Multiplier Algorithm


 83 Hessian modes will be used to form the next step
  Hessian Eigenvalues:
    -0.977753   -0.977753    0.045000    0.045000    0.045000    0.045000
     0.045004    0.045352    0.045530    0.048627    0.058814    0.061923
     0.065581    0.067904    0.070808    0.072130    0.074343    0.075916
     0.081732    0.083785    0.084157    0.085390    0.086890    0.088227
     0.091114    0.091429    0.097232    0.098159    0.112260    0.112299
     0.113404    0.116979    0.117194    0.120275    0.121575    0.138015
     0.140421    0.160000    0.160000    0.160000    0.160000    0.160000
     0.160000    0.168655    0.174257    0.246664    0.248450    0.249983
     0.250000    0.250000    0.250000    0.250000    0.257040    0.266186
     0.268519    0.290485    0.293737    0.306576    0.311874    0.329392
     0.338114    0.340326    0.341575    0.341941    0.342237    0.342787
     0.342803    0.343231    0.343866    0.343905    0.343937    0.344082
     0.344477    0.344724    0.345856    0.408772    0.412181    0.516485
     0.516574    0.945024    0.955398    1.022753    1.022753

 Minimum Search - Taking P-RFO Step
 Searching for Lamda that Maximizes Along the Constraint modes Only
 Value Taken    Lamda =   0.00543768
 Searching for Lamda that Minimizes Along All other modes
 Value Taken    Lamda =  -0.07022131
 Calculated Step too Large.  Step scaled by  0.707837
 Step Taken.  Stepsize is  0.300000

                             Maximum     Tolerance    Cnvgd?
         Gradient            0.099739       0.000300      NO
         Displacement        0.103984       0.001200      NO
         Energy change     *********       0.000001      NO


 New Cartesian Coordinates Obtained by Inverse Iteration

 Displacement from previous Coordinates is:  0.723354
 Adding empirical dispersion correction 
 ----------------------------------------------------------------
 Doing -D3(op) with
 s6 =   1.00000
 s8 =   0.78311
 a1 =   0.30000
 a2 =   4.25000
 n  =  10.00000
 -D3 energy without 3body term =     -0.0299587354 hartrees
 ----------------------------------------------------------------
             Standard Nuclear Orientation (Angstroms)
    I     Atom           X                Y                Z
 ----------------------------------------------------------------
    1      C       0.3863727783    -0.6484437890    -0.6195252964
    2      C       0.6058745093     0.8951817889    -0.5197701229
    3      C      -0.9038277081    -1.2021302778     0.0404361451
    4      C      -0.5843182538     1.7338971470     0.0192027559
    5      O      -1.1046195352    -2.5083744699    -0.4230371431
    6      O      -1.6110597096    -0.6302695136     0.8878253035
    7      O      -1.6771951605     1.5674658840    -0.8422520307
    8      O      -0.5445156956     2.5470465542     0.9592405802
    9      C      -2.8594621793     2.3012825289    -0.4097781265
   10      C      -2.2720425709    -3.1635186281     0.1495837820
   11      C       1.6333914257    -1.1759063067     0.1844446296
   12      C       2.9493170637    -0.9124725796    -0.6217366539
   13      C       3.1384548754     0.6229769504    -0.4126587607
   14      C       1.8607452906     0.9811865483     0.4173874470
   15      O       1.7337563763    -0.2016533630     1.2810185095
   16      H       0.4060172031    -0.9881216153    -1.6684518807
   17      H       0.8620034229     1.3205556076    -1.5061889474
   18      H      -3.0158595358     2.2256958350     0.6818943483
   19      H      -2.6054721223    -2.6839459669     1.0879151834
   20      H       1.5352608419    -2.1979249689     0.5857618431
   21      H       3.7918538609    -1.4601871566    -0.1752979336
   22      H       2.8743154835    -1.2056646057    -1.6790205944
   23      H       4.0422321873     0.8130151888     0.1840346756
   24      H       3.2260140979     1.1837258782    -1.3547104638
   25      H       1.9460333024     1.8985453850     1.0221295407
   26      H      -2.7919562076     3.3672092171    -0.6982046899
   27      H      -3.7287001966     1.8525574585    -0.9198786084
   28      H      -2.0050646690    -4.2136032626     0.3626979066
   29      H      -3.1024571109    -3.1538722583    -0.5804023935
 ----------------------------------------------------------------
 Molecular Point Group                 C1    NOp =  1
 Largest Abelian Subgroup              C1    NOp =  1
 Nuclear Repulsion Energy =  1092.7705236003 hartrees
 There are       57 alpha and       57 beta electrons
 Applying Cartesian multipole field
    Component          Value
    ---------          -----
     (2,0,0)        1.00000E-11
     (0,2,0)        2.00000E-11
     (0,0,2)       -3.00000E-11
 Nucleus-field energy     =     0.0000000335 hartrees
 Requested basis set is STO-3G
 There are 44 shells and 89 basis functions
 A cutoff of  1.0D-12 yielded    864 shell pairs
 There are      3900 function pairs
 Smallest overlap matrix eigenvalue = 2.07E-01
 Guess MOs from SCF MO coefficient file
 Reading MOs from coefficient file
 Reading MOs from coefficient file
 A restricted hybrid HF-DFT SCF calculation will be
 performed using Pulay DIIS extrapolation
 Exchange:     0.2000 Hartree-Fock + 0.0800 Slater + 0.7200 B88
 Correlation:  0.1900 VWN1RPA + 0.8100 LYP
 Using SG-1 standard quadrature grid
 Dispersion:   Grimme D3
 SCF converges when DIIS error is below 1.0E-08
 Geometry optimization detected.  Setting ReadMinima to 0
 Setting SaveMinima to 0
 -------------------------------------------------------
 OpenMP Integral computing Module                
 Release: version 1.0, May 2013, Q-Chem Inc. Pittsburgh 
 -------------------------------------------------------
 -------------------------------------------------------
 OpenMP BLAS3 based DFT computing Module                
 Release: version 1.0, May 2013, Q-Chem Inc. Pittsburgh 
 -------------------------------------------------------
 ---------------------------------------
  Cycle       Energy         DIIS Error
 ---------------------------------------
    1    -755.5644475866      6.00E-03
    2    -755.7207806471      2.09E-03
    3    -755.7144006838      3.20E-03
    4    -755.7252662957      6.69E-04
    5    -755.7257948889      1.10E-04
    6    -755.7258098697      2.27E-05
    7    -755.7258100451      2.06E-05
    8    -755.7258105077      4.87E-06
    9    -755.7258105366      8.45E-07
   10    -755.7258105374      3.28E-07
   11    -755.7258105376      4.67E-08
   12    -755.7258105376      1.76E-08
   13    -755.7258105376      3.31E-09 Convergence criterion met
 ---------------------------------------
 SCF time:  CPU 52.62 s  wall 2.22 s
 SCF   energy in the final basis set = -755.7258105376
 Total energy in the final basis set = -755.7258105376
 
 --------------------------------------------------------------
 
                    Orbital Energies (a.u.)
 --------------------------------------------------------------
 
 Alpha MOs
 -- Occupied --
-18.941 -18.929 -18.880 -18.872 -18.861 -10.105 -10.096 -10.068
-10.061 -10.060 -10.054 -10.038 -10.034 -10.017 -10.015  -1.024
 -1.012  -0.974  -0.943  -0.932  -0.765  -0.726  -0.711  -0.672
 -0.661  -0.597  -0.545  -0.536  -0.515  -0.480  -0.462  -0.453
 -0.432  -0.418  -0.417  -0.411  -0.407  -0.380  -0.367  -0.355
 -0.349  -0.340  -0.334  -0.323  -0.309  -0.305  -0.299  -0.283
 -0.273  -0.249  -0.241  -0.227  -0.180  -0.169  -0.155  -0.144
 -0.139
 -- Virtual --
  0.103   0.118   0.243   0.258   0.279   0.295   0.325   0.344
  0.358   0.363   0.377   0.382   0.395   0.414   0.419   0.422
  0.424   0.432   0.433   0.442   0.445   0.448   0.450   0.453
  0.467   0.476   0.501   0.518   0.553   0.561   0.664   0.668
 --------------------------------------------------------------
 
          Ground-State Mulliken Net Atomic Charges

     Atom                 Charge (a.u.)
  ----------------------------------------
      1 C                    -0.078653
      2 C                    -0.081336
      3 C                     0.223977
      4 C                     0.225715
      5 O                    -0.179768
      6 O                    -0.217662
      7 O                    -0.182117
      8 O                    -0.220075
      9 C                    -0.124480
     10 C                    -0.128923
     11 C                     0.026075
     12 C                    -0.145705
     13 C                    -0.144855
     14 C                     0.025340
     15 O                    -0.196497
     16 H                     0.087803
     17 H                     0.085081
     18 H                     0.097364
     19 H                     0.100292
     20 H                     0.084682
     21 H                     0.077729
     22 H                     0.073007
     23 H                     0.077499
     24 H                     0.071736
     25 H                     0.093252
     26 H                     0.084584
     27 H                     0.089216
     28 H                     0.089830
     29 H                     0.086889
  ----------------------------------------
  Sum of atomic charges =    -0.000000

 -----------------------------------------------------------------
                    Cartesian Multipole Moments
 -----------------------------------------------------------------
    Charge (ESU x 10^10)
                 0.0000
    Dipole Moment (Debye)
         X      -0.2415      Y      -1.3207      Z      -2.2628
       Tot       2.6311
    Quadrupole Moments (Debye-Ang)
        XX     -72.8335     XY       1.6319     YY     -76.7127
        XZ      -1.1944     YZ      -3.9861     ZZ     -84.3882
    Octopole Moments (Debye-Ang^2)
       XXX     -31.3153    XXY       2.7092    XYY     -20.7499
       YYY     -14.6233    XXZ      -1.7858    XYZ       3.2751
       YYZ       1.3961    XZZ      -4.9785    YZZ      -0.9131
       ZZZ       3.7661
    Hexadecapole Moments (Debye-Ang^3)
      XXXX   -1835.2777   XXXY      -5.3509   XXYY    -502.6914
      XYYY      28.9367   YYYY   -1442.1745   XXXZ      29.4330
      XXYZ       1.2846   XYYZ       9.2017   YYYZ     -44.7108
      XXZZ    -372.6663   XYZZ       6.7770   YYZZ    -303.7472
      XZZZ      -1.5707   YZZZ       5.2373   ZZZZ    -282.7473
 -----------------------------------------------------------------
 Calculating analytic gradient of the SCF energy
 Gradient of SCF Energy
            1           2           3           4           5           6
    1  -0.0027301  -0.0022092   0.0002261  -0.0077095  -0.0130021   0.0101706
    2   0.0096458  -0.0081644  -0.0165606  -0.0069180   0.0158978  -0.0072114
    3   0.0150747   0.0074817  -0.0065397  -0.0080628   0.0170254  -0.0105699
            7           8           9          10          11          12
    1   0.0071134   0.0019756   0.0081656   0.0104602  -0.0061544  -0.0064722
    2   0.0168562  -0.0058925  -0.0058440   0.0055796   0.0006040   0.0053121
    3   0.0216878  -0.0129143  -0.0053213  -0.0070751  -0.0040570   0.0070507
           13          14          15          16          17          18
    1  -0.0077478  -0.0073736   0.0047690  -0.0007563   0.0015737  -0.0010629
    2  -0.0057081   0.0022221   0.0025644   0.0012289   0.0027688  -0.0015886
    3   0.0058300  -0.0022902  -0.0200353   0.0012780   0.0031615  -0.0030509
           19          20          21          22          23          24
    1   0.0001808   0.0019699   0.0003186   0.0016214  -0.0008500   0.0016513
    2  -0.0042485   0.0036286   0.0030330  -0.0004344  -0.0022560  -0.0008166
    3  -0.0012093  -0.0005200  -0.0007495   0.0018945  -0.0012862   0.0017558
           25          26          27          28          29
    1   0.0036687   0.0000312   0.0006767  -0.0017358   0.0032311
    2  -0.0036276  -0.0037782   0.0019225   0.0024880  -0.0007031
    3  -0.0019627  -0.0013447   0.0029103   0.0005981   0.0012403
 Max gradient component =       2.169E-02
 RMS gradient           =       6.977E-03
 Gradient time:  CPU 13.92 s  wall 0.59 s
 Geometry Optimization Parameters
   NAtoms,    NIC,     NZ,  NCons,   NDum,   NFix, NCnnct, MaxDiis
       29     227       0       2       0       0       0       0

 Cartesian Hessian Update
 Hessian Updated using BFGS Update


** CONSTRAINED OPTIMIZATION IN DELOCALIZED INTERNAL COORDINATES **
   Searching for a Minimum

   Optimization Cycle:   2

                       Coordinates (Angstroms)
     ATOM                X               Y               Z
      1  C         0.3863727783   -0.6484437890   -0.6195252964
      2  C         0.6058745093    0.8951817889   -0.5197701229
      3  C        -0.9038277081   -1.2021302778    0.0404361451
      4  C        -0.5843182538    1.7338971470    0.0192027559
      5  O        -1.1046195352   -2.5083744699   -0.4230371431
      6  O        -1.6110597096   -0.6302695136    0.8878253035
      7  O        -1.6771951605    1.5674658840   -0.8422520307
      8  O        -0.5445156956    2.5470465542    0.9592405802
      9  C        -2.8594621793    2.3012825289   -0.4097781265
     10  C        -2.2720425709   -3.1635186281    0.1495837820
     11  C         1.6333914257   -1.1759063067    0.1844446296
     12  C         2.9493170637   -0.9124725796   -0.6217366539
     13  C         3.1384548754    0.6229769504   -0.4126587607
     14  C         1.8607452906    0.9811865483    0.4173874470
     15  O         1.7337563763   -0.2016533630    1.2810185095
     16  H         0.4060172031   -0.9881216153   -1.6684518807
     17  H         0.8620034229    1.3205556076   -1.5061889474
     18  H        -3.0158595358    2.2256958350    0.6818943483
     19  H        -2.6054721223   -2.6839459669    1.0879151834
     20  H         1.5352608419   -2.1979249689    0.5857618431
     21  H         3.7918538609   -1.4601871566   -0.1752979336
     22  H         2.8743154835   -1.2056646057   -1.6790205944
     23  H         4.0422321873    0.8130151888    0.1840346756
     24  H         3.2260140979    1.1837258782   -1.3547104638
     25  H         1.9460333024    1.8985453850    1.0221295407
     26  H        -2.7919562076    3.3672092171   -0.6982046899
     27  H        -3.7287001966    1.8525574585   -0.9198786084
     28  H        -2.0050646690   -4.2136032626    0.3626979066
     29  H        -3.1024571109   -3.1538722583   -0.5804023935
   Point Group: c1    Number of degrees of freedom:    81


   Energy is   -755.725810538

              Constraints and their Current Values
                                        Value     Constraint
   Dihedral:        2   1   3   5      165.487      167.300
   Dihedral:        1   2   4   7      -61.069      -61.600
 Hessian Updated using BFGS Update

   Using Lagrange Multiplier Algorithm


 75 Hessian modes will be used to form the next step
  Hessian Eigenvalues:
    -0.977898   -0.977167    0.044984    0.045000    0.045023    0.045294
     0.045531    0.048627    0.058814    0.061748    0.065571    0.067894
     0.070809    0.072082    0.074332    0.075887    0.081722    0.083674
     0.084158    0.085427    0.086860    0.088231    0.091048    0.091422
     0.097098    0.098158    0.112207    0.112488    0.113350    0.116981
     0.117190    0.121300    0.123179    0.138127    0.140660    0.159039
     0.161055    0.167413    0.174313    0.241197    0.246847    0.248607
     0.249983    0.250191    0.257496    0.267085    0.268602    0.291814
     0.299057    0.308729    0.320989    0.329241    0.338147    0.340343
     0.341560    0.341936    0.342220    0.342738    0.343144    0.343696
     0.343869    0.343920    0.344072    0.344416    0.344652    0.345785
     0.379130    0.406349    0.415404    0.503320    0.516530    0.949365
     0.970211    1.022698    1.025259

 Minimum Search - Taking P-RFO Step
 Searching for Lamda that Maximizes Along the Constraint modes Only
 Value Taken    Lamda =   0.00048782
 Searching for Lamda that Minimizes Along All other modes
 Value Taken    Lamda =  -0.01171313
 Step Taken.  Stepsize is  0.245156

                             Maximum     Tolerance    Cnvgd?
         Gradient            0.032296       0.000300      NO
         Displacement        0.078900       0.001200      NO
         Energy change     -0.030474       0.000001      NO


 New Cartesian Coordinates Obtained by Inverse Iteration

 Displacement from previous Coordinates is:  0.962891
 Adding empirical dispersion correction 
 ----------------------------------------------------------------
 Doing -D3(op) with
 s6 =   1.00000
 s8 =   0.78311
 a1 =   0.30000
 a2 =   4.25000
 n  =  10.00000
 -D3 energy without 3body term =     -0.0302132869 hartrees
 ----------------------------------------------------------------
             Standard Nuclear Orientation (Angstroms)
    I     Atom           X                Y                Z
 ----------------------------------------------------------------
    1      C       0.4311154781    -0.6606642403    -0.6647046349
    2      C       0.6342631832     0.8941660078    -0.5368918500
    3      C      -0.8944206322    -1.1686242156    -0.0089715489
    4      C      -0.6030971269     1.6884009142     0.0136225237
    5      O      -1.1102371951    -2.5085800170    -0.4405734339
    6      O      -1.6152977315    -0.5566863341     0.8114935121
    7      O      -1.6845652405     1.5039217563    -0.8970589341
    8      O      -0.6304844877     2.4487896596     1.0061517180
    9      C      -2.8840950690     2.2004620783    -0.3981849019
   10      C      -2.3309491702    -3.0562212127     0.1807837257
   11      C       1.6726557427    -1.1918325940     0.1745551517
   12      C       2.9959732778    -0.9077573569    -0.6355704104
   13      C       3.1726354982     0.6414244504    -0.4029239135
   14      C       1.8788047596     0.9686248057     0.4379177404
   15      O       1.7407958348    -0.2307661365     1.2984961074
   16      H       0.4753044559    -1.0059965018    -1.7131263779
   17      H       0.8975093646     1.3331979966    -1.5172447171
   18      H      -3.0131213907     2.0614856690     0.6942545630
   19      H      -2.6142867224    -2.4669567830     1.0763378059
   20      H       1.5603629568    -2.2239730430     0.5616437629
   21      H       3.8360528166    -1.4711405253    -0.1980298039
   22      H       2.9093129199    -1.1826904562    -1.6992873697
   23      H       4.0734806349     0.8461878365     0.1984856719
   24      H       3.2391938693     1.2199444193    -1.3385143922
   25      H       1.9219296395     1.8849067456     1.0589036020
   26      H      -2.8370691739     3.2885184118    -0.6144519972
   27      H      -3.7453881826     1.7593185806    -0.9345521182
   28      H      -2.1217546601    -4.1055417223     0.4657863643
   29      H      -3.1695315847    -3.0376649832    -0.5456868407
 ----------------------------------------------------------------
 Molecular Point Group                 C1    NOp =  1
 Largest Abelian Subgroup              C1    NOp =  1
 Nuclear Repulsion Energy =  1091.7139414767 hartrees
 There are       57 alpha and       57 beta electrons
 Applying Cartesian multipole field
    Component          Value
    ---------          -----
     (2,0,0)        1.00000E-11
     (0,2,0)        2.00000E-11
     (0,0,2)       -3.00000E-11
 Nucleus-field energy     =     0.0000000324 hartrees
 Requested basis set is STO-3G
 There are 44 shells and 89 basis functions
 A cutoff of  1.0D-12 yielded    863 shell pairs
 There are      3893 function pairs
 Smallest overlap matrix eigenvalue = 2.13E-01
 Guess MOs from SCF MO coefficient file
 Reading MOs from coefficient file
 Reading MOs from coefficient file
 A restricted hybrid HF-DFT SCF calculation will be
 performed using Pulay DIIS extrapolation
 Exchange:     0.2000 Hartree-Fock + 0.0800 Slater + 0.7200 B88
 Correlation:  0.1900 VWN1RPA + 0.8100 LYP
 Using SG-1 standard quadrature grid
 Dispersion:   Grimme D3
 SCF converges when DIIS error is below 1.0E-08
 Geometry optimization detected.  Setting ReadMinima to 0
 Setting SaveMinima to 0
 -------------------------------------------------------
 OpenMP Integral computing Module                
 Release: version 1.0, May 2013, Q-Chem Inc. Pittsburgh 
 -------------------------------------------------------
 -------------------------------------------------------
 OpenMP BLAS3 based DFT computing Module                
 Release: version 1.0, May 2013, Q-Chem Inc. Pittsburgh 
 -------------------------------------------------------
 ---------------------------------------
  Cycle       Energy         DIIS Error
 ---------------------------------------
    1    -755.6349207306      5.13E-03
    2    -755.7297498491      1.34E-03
    3    -755.7255216010      2.39E-03
    4    -755.7316730452      4.18E-04
    5    -755.7318749643      1.03E-04
    6    -755.7318873829      2.44E-05
    7    -755.7318876191      2.12E-05
    8    -755.7318881158      4.64E-06
    9    -755.7318881427      6.56E-07
   10    -755.7318881431      3.22E-07
   11    -755.7318881433      4.10E-08
   12    -755.7318881433      1.64E-08
   13    -755.7318881433      3.96E-09 Convergence criterion met
 ---------------------------------------
 SCF time:  CPU 53.44 s  wall 2.25 s
 SCF   energy in the final basis set = -755.7318881433
 Total energy in the final basis set = -755.7318881433
 
 --------------------------------------------------------------
 
                    Orbital Energies (a.u.)
 --------------------------------------------------------------
 
 Alpha MOs
 -- Occupied --
-18.939 -18.924 -18.884 -18.879 -18.862 -10.103 -10.092 -10.063
-10.060 -10.056 -10.054 -10.038 -10.032 -10.019 -10.017  -1.017
 -1.002  -0.968  -0.940  -0.926  -0.762  -0.722  -0.706  -0.665
 -0.654  -0.593  -0.544  -0.536  -0.510  -0.475  -0.456  -0.451
 -0.430  -0.415  -0.413  -0.405  -0.402  -0.377  -0.361  -0.353
 -0.344  -0.339  -0.330  -0.322  -0.311  -0.302  -0.298  -0.279
 -0.271  -0.253  -0.244  -0.232  -0.181  -0.166  -0.158  -0.144
 -0.141
 -- Virtual --
  0.096   0.115   0.240   0.254   0.274   0.285   0.314   0.333
  0.345   0.349   0.361   0.373   0.387   0.406   0.412   0.419
  0.421   0.427   0.430   0.434   0.436   0.440   0.443   0.445
  0.453   0.468   0.490   0.511   0.545   0.552   0.647   0.654
 --------------------------------------------------------------
 
          Ground-State Mulliken Net Atomic Charges

     Atom                 Charge (a.u.)
  ----------------------------------------
      1 C                    -0.077421
      2 C                    -0.080876
      3 C                     0.217593
      4 C                     0.218045
      5 O                    -0.171309
      6 O                    -0.210953
      7 O                    -0.176883
      8 O                    -0.215954
      9 C                    -0.126849
     10 C                    -0.132958
     11 C                     0.025156
     12 C                    -0.144116
     13 C                    -0.143354
     14 C                     0.024041
     15 O                    -0.190652
     16 H                     0.087390
     17 H                     0.083368
     18 H                     0.097116
     19 H                     0.101201
     20 H                     0.083717
     21 H                     0.077636
     22 H                     0.073425
     23 H                     0.077317
     24 H                     0.072535
     25 H                     0.090953
     26 H                     0.082468
     27 H                     0.086404
     28 H                     0.087954
     29 H                     0.085008
  ----------------------------------------
  Sum of atomic charges =     0.000000

 -----------------------------------------------------------------
                    Cartesian Multipole Moments
 -----------------------------------------------------------------
    Charge (ESU x 10^10)
                 0.0000
    Dipole Moment (Debye)
         X      -0.0323      Y      -1.2404      Z      -2.1610
       Tot       2.4919
    Quadrupole Moments (Debye-Ang)
        XX     -72.8646     XY       1.9101     YY     -77.3891
        XZ      -1.4971     YZ      -3.7911     ZZ     -84.3409
    Octopole Moments (Debye-Ang^2)
       XXX     -30.8050    XXY       2.1031    XYY     -17.7588
       YYY      -8.5175    XXZ      -1.0337    XYZ       3.6639
       YYZ       2.9319    XZZ      -4.7338    YZZ      -0.8079
       ZZZ       5.5911
    Hexadecapole Moments (Debye-Ang^3)
      XXXX   -1884.5840   XXXY      -1.5687   XXYY    -503.7757
      XYYY      26.3078   YYYY   -1375.6607   XXXZ      30.2607
      XXYZ       0.3084   XYYZ       8.5533   YYYZ     -44.4154
      XXZZ    -381.9558   XYZZ       8.1054   YYZZ    -293.1943
      XZZZ      -0.8323   YZZZ       2.6180   ZZZZ    -289.5703
 -----------------------------------------------------------------
 Calculating analytic gradient of the SCF energy
 Gradient of SCF Energy
            1           2           3           4           5           6
    1   0.0000079  -0.0019018  -0.0029029  -0.0051257  -0.0001461  -0.0002807
    2   0.0038099  -0.0046739  -0.0049634  -0.0028898   0.0014141   0.0007976
    3   0.0019555   0.0011033  -0.0022684  -0.0045356   0.0019877  -0.0001503
            7           8           9          10          11          12
    1   0.0018540   0.0006794   0.0044443   0.0044530  -0.0005646  -0.0026893
    2   0.0006244   0.0028113  -0.0014619   0.0047985  -0.0012001   0.0000200
    3   0.0039749   0.0007011   0.0001192  -0.0023139  -0.0025092  -0.0000658
           13          14          15          16          17          18
    1  -0.0024124  -0.0021335   0.0021082   0.0007497   0.0015004  -0.0002825
    2   0.0003472   0.0011807  -0.0003372   0.0001736   0.0012476   0.0001863
    3  -0.0008082  -0.0007292  -0.0009815  -0.0003754   0.0005817   0.0004228
           19          20          21          22          23          24
    1  -0.0005875  -0.0000725   0.0002243   0.0010208   0.0000679   0.0014482
    2  -0.0007202   0.0001249   0.0002154  -0.0008597  -0.0002719   0.0005775
    3   0.0008002   0.0015721   0.0004156  -0.0000245   0.0004359   0.0002058
           25          26          27          28          29
    1   0.0007205   0.0000129  -0.0000337   0.0001627  -0.0003208
    2  -0.0000446   0.0000674  -0.0005958  -0.0002452  -0.0001326
    3   0.0006177  -0.0004385   0.0000433   0.0004088  -0.0001451
 Max gradient component =       5.126E-03
 RMS gradient           =       1.836E-03
 Gradient time:  CPU 14.85 s  wall 0.63 s
 Geometry Optimization Parameters
   NAtoms,    NIC,     NZ,  NCons,   NDum,   NFix, NCnnct, MaxDiis
       29     227       0       2       0       0       0       0

 Cartesian Hessian Update
 Hessian Updated using BFGS Update


** CONSTRAINED OPTIMIZATION IN DELOCALIZED INTERNAL COORDINATES **
   Searching for a Minimum

   Optimization Cycle:   3

                       Coordinates (Angstroms)
     ATOM                X               Y               Z
      1  C         0.4311154781   -0.6606642403   -0.6647046349
      2  C         0.6342631832    0.8941660078   -0.5368918500
      3  C        -0.8944206322   -1.1686242156   -0.0089715489
      4  C        -0.6030971269    1.6884009142    0.0136225237
      5  O        -1.1102371951   -2.5085800170   -0.4405734339
      6  O        -1.6152977315   -0.5566863341    0.8114935121
      7  O        -1.6845652405    1.5039217563   -0.8970589341
      8  O        -0.6304844877    2.4487896596    1.0061517180
      9  C        -2.8840950690    2.2004620783   -0.3981849019
     10  C        -2.3309491702   -3.0562212127    0.1807837257
     11  C         1.6726557427   -1.1918325940    0.1745551517
     12  C         2.9959732778   -0.9077573569   -0.6355704104
     13  C         3.1726354982    0.6414244504   -0.4029239135
     14  C         1.8788047596    0.9686248057    0.4379177404
     15  O         1.7407958348   -0.2307661365    1.2984961074
     16  H         0.4753044559   -1.0059965018   -1.7131263779
     17  H         0.8975093646    1.3331979966   -1.5172447171
     18  H        -3.0131213907    2.0614856690    0.6942545630
     19  H        -2.6142867224   -2.4669567830    1.0763378059
     20  H         1.5603629568   -2.2239730430    0.5616437629
     21  H         3.8360528166   -1.4711405253   -0.1980298039
     22  H         2.9093129199   -1.1826904562   -1.6992873697
     23  H         4.0734806349    0.8461878365    0.1984856719
     24  H         3.2391938693    1.2199444193   -1.3385143922
     25  H         1.9219296395    1.8849067456    1.0589036020
     26  H        -2.8370691739    3.2885184118   -0.6144519972
     27  H        -3.7453881826    1.7593185806   -0.9345521182
     28  H        -2.1217546601   -4.1055417223    0.4657863643
     29  H        -3.1695315847   -3.0376649832   -0.5456868407
   Point Group: c1    Number of degrees of freedom:    81


   Energy is   -755.731888143

              Constraints and their Current Values
                                        Value     Constraint
   Dihedral:        2   1   3   5      167.290      167.300
   Dihedral:        1   2   4   7      -61.594      -61.600
 Hessian Updated using BFGS Update

   Using Lagrange Multiplier Algorithm


 78 Hessian modes will be used to form the next step
  Hessian Eigenvalues:
    -0.977716   -0.975388    0.043878    0.045000    0.045007    0.045066
     0.045189    0.045707    0.048634    0.058802    0.060698    0.065586
     0.067459    0.070839    0.071844    0.074365    0.075777    0.081763
     0.083432    0.084193    0.085248    0.087315    0.088294    0.091171
     0.091438    0.096064    0.098153    0.111907    0.112707    0.113310
     0.116983    0.117193    0.122284    0.123197    0.138043    0.141168
     0.157737    0.160517    0.161057    0.171832    0.174303    0.245585
     0.248020    0.248795    0.249988    0.250144    0.255158    0.266162
     0.268522    0.279322    0.292431    0.299058    0.308721    0.319308
     0.328829    0.337852    0.339688    0.340749    0.341626    0.342232
     0.342307    0.342998    0.343459    0.343873    0.343920    0.344069
     0.344387    0.344906    0.345962    0.368767    0.392143    0.412107
     0.478205    0.516714    0.949829    0.976904    1.022899    1.034862

 Minimum Search - Taking P-RFO Step
 Searching for Lamda that Maximizes Along the Constraint modes Only
 Value Taken    Lamda =   0.00002456
 Searching for Lamda that Minimizes Along All other modes
 Value Taken    Lamda =  -0.00113482
 Step Taken.  Stepsize is  0.108926

                             Maximum     Tolerance    Cnvgd?
         Gradient            0.007198       0.000300      NO
         Displacement        0.031794       0.001200      NO
         Energy change     -0.006078       0.000001      NO


 New Cartesian Coordinates Obtained by Inverse Iteration

 Displacement from previous Coordinates is:  0.234262
 Adding empirical dispersion correction 
 ----------------------------------------------------------------
 Doing -D3(op) with
 s6 =   1.00000
 s8 =   0.78311
 a1 =   0.30000
 a2 =   4.25000
 n  =  10.00000
 -D3 energy without 3body term =     -0.0302055774 hartrees
 ----------------------------------------------------------------
             Standard Nuclear Orientation (Angstroms)
    I     Atom           X                Y                Z
 ----------------------------------------------------------------
    1      C       0.4359481557    -0.6594839272    -0.6718349983
    2      C       0.6447072542     0.9015808355    -0.5317968954
    3      C      -0.8852895720    -1.1675527770    -0.0007077900
    4      C      -0.5986323972     1.6970358696     0.0153921901
    5      O      -1.1235689666    -2.5115873710    -0.4357930125
    6      O      -1.5916290350    -0.5574564673     0.8341473699
    7      O      -1.6817428714     1.5212791082    -0.9108841189
    8      O      -0.6408150937     2.4324300021     1.0248749092
    9      C      -2.9000408974     2.2053755480    -0.4189867976
   10      C      -2.3448906097    -3.0664868974     0.1985688543
   11      C       1.6805533647    -1.1940932247     0.1665677566
   12      C       3.0066038348    -0.9042457659    -0.6425801582
   13      C       3.1858593381     0.6414004703    -0.3952195852
   14      C       1.8901527289     0.9626212286     0.4480258925
   15      O       1.7402763059    -0.2423683816     1.3012447196
   16      H       0.4731551228    -0.9984467243    -1.7220833914
   17      H       0.9026385569     1.3408851354    -1.5128228328
   18      H      -3.0453134152     2.0390832935     0.6669459215
   19      H      -2.6091377444    -2.4725588698     1.0961287817
   20      H       1.5649157054    -2.2316783395     0.5368588269
   21      H       3.8462490688    -1.4771561457    -0.2172002064
   22      H       2.9085208929    -1.1627684117    -1.7092244714
   23      H       4.0895302099     0.8450049647     0.2020188498
   24      H       3.2396590312     1.2253945845    -1.3278684515
   25      H       1.9272721549     1.8770513094     1.0718653517
   26      H      -2.8520083758     3.2988370826    -0.6051354080
   27      H      -3.7499199087     1.7769508679    -0.9825822195
   28      H      -2.1370736762    -4.1183100709     0.4729945412
   29      H      -3.1908870976    -3.0364837165    -0.5182546233
 ----------------------------------------------------------------
 Molecular Point Group                 C1    NOp =  1
 Largest Abelian Subgroup              C1    NOp =  1
 Nuclear Repulsion Energy =  1088.8772639657 hartrees
 There are       57 alpha and       57 beta electrons
 Applying Cartesian multipole field
    Component          Value
    ---------          -----
     (2,0,0)        1.00000E-11
     (0,2,0)        2.00000E-11
     (0,0,2)       -3.00000E-11
 Nucleus-field energy     =     0.0000000325 hartrees
 Requested basis set is STO-3G
 There are 44 shells and 89 basis functions
 A cutoff of  1.0D-12 yielded    863 shell pairs
 There are      3893 function pairs
 Smallest overlap matrix eigenvalue = 2.13E-01
 Guess MOs from SCF MO coefficient file
 Reading MOs from coefficient file
 Reading MOs from coefficient file
 A restricted hybrid HF-DFT SCF calculation will be
 performed using Pulay DIIS extrapolation
 Exchange:     0.2000 Hartree-Fock + 0.0800 Slater + 0.7200 B88
 Correlation:  0.1900 VWN1RPA + 0.8100 LYP
 Using SG-1 standard quadrature grid
 Dispersion:   Grimme D3
 SCF converges when DIIS error is below 1.0E-08
 Geometry optimization detected.  Setting ReadMinima to 0
 Setting SaveMinima to 0
 -------------------------------------------------------
 OpenMP Integral computing Module                
 Release: version 1.0, May 2013, Q-Chem Inc. Pittsburgh 
 -------------------------------------------------------
 -------------------------------------------------------
 OpenMP BLAS3 based DFT computing Module                
 Release: version 1.0, May 2013, Q-Chem Inc. Pittsburgh 
 -------------------------------------------------------
 ---------------------------------------
  Cycle       Energy         DIIS Error
 ---------------------------------------
    1    -755.7154526535      1.69E-03
    2    -755.7321870667      4.29E-04
    3    -755.7314286776      9.28E-04
    4    -755.7324024109      6.04E-05
    5    -755.7324063677      2.47E-05
    6    -755.7324069254      1.17E-05
    7    -755.7324070419      5.84E-06
    8    -755.7324070816      8.65E-07
    9    -755.7324070826      1.72E-07
   10    -755.7324070826      7.39E-08
   11    -755.7324070826      1.50E-08
   12    -755.7324070826      4.22E-09 Convergence criterion met
 ---------------------------------------
 SCF time:  CPU 51.39 s  wall 2.17 s
 SCF   energy in the final basis set = -755.7324070826
 Total energy in the final basis set = -755.7324070826
 
 --------------------------------------------------------------
 
                    Orbital Energies (a.u.)
 --------------------------------------------------------------
 
 Alpha MOs
 -- Occupied --
-18.935 -18.920 -18.885 -18.879 -18.864 -10.101 -10.091 -10.062
-10.060 -10.055 -10.055 -10.039 -10.033 -10.020 -10.018  -1.013
 -0.998  -0.968  -0.937  -0.925  -0.761  -0.722  -0.705  -0.664
 -0.653  -0.593  -0.544  -0.536  -0.509  -0.473  -0.454  -0.451
 -0.430  -0.414  -0.412  -0.404  -0.401  -0.375  -0.361  -0.352
 -0.344  -0.340  -0.330  -0.323  -0.310  -0.302  -0.297  -0.278
 -0.271  -0.251  -0.243  -0.233  -0.178  -0.165  -0.158  -0.145
 -0.142
 -- Virtual --
  0.096   0.115   0.235   0.250   0.268   0.284   0.312   0.331
  0.343   0.346   0.358   0.372   0.385   0.404   0.410   0.419
  0.421   0.425   0.430   0.433   0.436   0.440   0.442   0.444
  0.452   0.467   0.489   0.509   0.543   0.551   0.644   0.653
 --------------------------------------------------------------
 
          Ground-State Mulliken Net Atomic Charges

     Atom                 Charge (a.u.)
  ----------------------------------------
      1 C                    -0.076833
      2 C                    -0.080253
      3 C                     0.215371
      4 C                     0.216067
      5 O                    -0.171276
      6 O                    -0.210112
      7 O                    -0.176475
      8 O                    -0.214197
      9 C                    -0.128468
     10 C                    -0.134160
     11 C                     0.024806
     12 C                    -0.144099
     13 C                    -0.143266
     14 C                     0.023852
     15 O                    -0.189134
     16 H                     0.087597
     17 H                     0.083123
     18 H                     0.096607
     19 H                     0.100922
     20 H                     0.083708
     21 H                     0.077955
     22 H                     0.073744
     23 H                     0.077807
     24 H                     0.073016
     25 H                     0.090840
     26 H                     0.082459
     27 H                     0.086773
     28 H                     0.088489
     29 H                     0.085136
  ----------------------------------------
  Sum of atomic charges =    -0.000000

 -----------------------------------------------------------------
                    Cartesian Multipole Moments
 -----------------------------------------------------------------
    Charge (ESU x 10^10)
                 0.0000
    Dipole Moment (Debye)
         X       0.0156      Y      -1.1971      Z      -2.1741
       Tot       2.4820
    Quadrupole Moments (Debye-Ang)
        XX     -72.5919     XY       1.9308     YY     -77.2697
        XZ      -1.4794     YZ      -3.7793     ZZ     -84.4608
    Octopole Moments (Debye-Ang^2)
       XXX     -31.7096    XXY       2.1338    XYY     -18.0534
       YYY      -8.2005    XXZ      -1.2815    XYZ       3.9665
       YYZ       3.0058    XZZ      -4.7657    YZZ      -0.8558
       ZZZ       4.9382
    Hexadecapole Moments (Debye-Ang^3)
      XXXX   -1892.5487   XXXY      -1.8521   XXYY    -505.2974
      XYYY      26.9171   YYYY   -1375.2106   XXXZ      31.0106
      XXYZ       0.5449   XYYZ       8.2350   YYYZ     -41.9249
      XXZZ    -384.8324   XYZZ       8.3564   YYZZ    -295.2441
      XZZZ      -0.5291   YZZZ       4.9190   ZZZZ    -293.9344
 -----------------------------------------------------------------
 Calculating analytic gradient of the SCF energy
 Gradient of SCF Energy
            1           2           3           4           5           6
    1  -0.0004277   0.0008428   0.0009541   0.0005587   0.0001381  -0.0007213
    2   0.0011841  -0.0014279   0.0002012   0.0000473   0.0000811   0.0006990
    3  -0.0017616   0.0019492  -0.0017546  -0.0026480   0.0011901   0.0007922
            7           8           9          10          11          12
    1  -0.0000799   0.0004541  -0.0018981  -0.0008597   0.0001133  -0.0004789
    2  -0.0005686   0.0015630  -0.0003553  -0.0020893  -0.0011053  -0.0001576
    3   0.0011949   0.0008817  -0.0004103  -0.0001625  -0.0009770  -0.0009606
           13          14          15          16          17          18
    1  -0.0004188   0.0003215   0.0006467   0.0006747   0.0001576   0.0002518
    2   0.0002288   0.0004253  -0.0002063   0.0003286   0.0008759   0.0003800
    3  -0.0009412  -0.0001127   0.0018778  -0.0000923   0.0006652  -0.0000700
           19          20          21          22          23          24
    1   0.0002637  -0.0004547   0.0001830   0.0004313   0.0001151   0.0005797
    2   0.0001610   0.0001411   0.0001759  -0.0004513  -0.0002586   0.0002506
    3  -0.0002700   0.0006536   0.0003771  -0.0000063   0.0003132   0.0001368
           25          26          27          28          29
    1  -0.0000621  -0.0001858  -0.0004224  -0.0003776  -0.0002990
    2   0.0001153   0.0001211  -0.0000023  -0.0003683   0.0000114
    3   0.0000386  -0.0000955   0.0001066  -0.0000261   0.0001116
 Max gradient component =       2.648E-03
 RMS gradient           =       7.829E-04
 Gradient time:  CPU 13.98 s  wall 0.59 s
 Geometry Optimization Parameters
   NAtoms,    NIC,     NZ,  NCons,   NDum,   NFix, NCnnct, MaxDiis
       29     227       0       2       0       0       0       0

 Cartesian Hessian Update
 Hessian Updated using BFGS Update


** CONSTRAINED OPTIMIZATION IN DELOCALIZED INTERNAL COORDINATES **
   Searching for a Minimum

   Optimization Cycle:   4

                       Coordinates (Angstroms)
     ATOM                X               Y               Z
      1  C         0.4359481557   -0.6594839272   -0.6718349983
      2  C         0.6447072542    0.9015808355   -0.5317968954
      3  C        -0.8852895720   -1.1675527770   -0.0007077900
      4  C        -0.5986323972    1.6970358696    0.0153921901
      5  O        -1.1235689666   -2.5115873710   -0.4357930125
      6  O        -1.5916290350   -0.5574564673    0.8341473699
      7  O        -1.6817428714    1.5212791082   -0.9108841189
      8  O        -0.6408150937    2.4324300021    1.0248749092
      9  C        -2.9000408974    2.2053755480   -0.4189867976
     10  C        -2.3448906097   -3.0664868974    0.1985688543
     11  C         1.6805533647   -1.1940932247    0.1665677566
     12  C         3.0066038348   -0.9042457659   -0.6425801582
     13  C         3.1858593381    0.6414004703   -0.3952195852
     14  C         1.8901527289    0.9626212286    0.4480258925
     15  O         1.7402763059   -0.2423683816    1.3012447196
     16  H         0.4731551228   -0.9984467243   -1.7220833914
     17  H         0.9026385569    1.3408851354   -1.5128228328
     18  H        -3.0453134152    2.0390832935    0.6669459215
     19  H        -2.6091377444   -2.4725588698    1.0961287817
     20  H         1.5649157054   -2.2316783395    0.5368588269
     21  H         3.8462490688   -1.4771561457   -0.2172002064
     22  H         2.9085208929   -1.1627684117   -1.7092244714
     23  H         4.0895302099    0.8450049647    0.2020188498
     24  H         3.2396590312    1.2253945845   -1.3278684515
     25  H         1.9272721549    1.8770513094    1.0718653517
     26  H        -2.8520083758    3.2988370826   -0.6051354080
     27  H        -3.7499199087    1.7769508679   -0.9825822195
     28  H        -2.1370736762   -4.1183100709    0.4729945412
     29  H        -3.1908870976   -3.0364837165   -0.5182546233
   Point Group: c1    Number of degrees of freedom:    81


   Energy is   -755.732407083

              Constraints and their Current Values
                                        Value     Constraint
   Dihedral:        2   1   3   5      167.300      167.300
   Dihedral:        1   2   4   7      -61.600      -61.600
 Hessian Updated using BFGS Update

   Using Lagrange Multiplier Algorithm


 81 Hessian modes will be used to form the next step
  Hessian Eigenvalues:
    -0.977707   -0.975740    0.033623    0.045000    0.045002    0.045017
     0.045157    0.045216    0.045706    0.048296    0.056937    0.059268
     0.065477    0.066782    0.070348    0.071780    0.074366    0.075616
     0.081766    0.083272    0.084209    0.085012    0.087349    0.088283
     0.091162    0.091452    0.096247    0.098167    0.112333    0.112637
     0.113703    0.116982    0.117269    0.122243    0.123488    0.138435
     0.141297    0.158369    0.160080    0.160886    0.161908    0.171634
     0.174745    0.243175    0.247136    0.248872    0.249993    0.250001
     0.250220    0.254549    0.266590    0.268503    0.291102    0.298154
     0.300224    0.308725    0.323837    0.329651    0.338350    0.340453
     0.341579    0.342144    0.342269    0.342965    0.343401    0.343869
     0.343899    0.344053    0.344372    0.344579    0.345598    0.348073
     0.384258    0.411373    0.448153    0.515241    0.546398    0.948814
     0.973899    1.023070    1.034873

 Minimum Search - Taking P-RFO Step
 Searching for Lamda that Maximizes Along the Constraint modes Only
 Value Taken    Lamda =   0.00000088
 Searching for Lamda that Minimizes Along All other modes
 Value Taken    Lamda =  -0.00023434
 Step Taken.  Stepsize is  0.060052

                             Maximum     Tolerance    Cnvgd?
         Gradient            0.003745       0.000300      NO
         Displacement        0.019959       0.001200      NO
         Energy change     -0.000519       0.000001      NO


 New Cartesian Coordinates Obtained by Inverse Iteration

 Displacement from previous Coordinates is:  0.181079
 Adding empirical dispersion correction 
 ----------------------------------------------------------------
 Doing -D3(op) with
 s6 =   1.00000
 s8 =   0.78311
 a1 =   0.30000
 a2 =   4.25000
 n  =  10.00000
 -D3 energy without 3body term =     -0.0302658545 hartrees
 ----------------------------------------------------------------
             Standard Nuclear Orientation (Angstroms)
    I     Atom           X                Y                Z
 ----------------------------------------------------------------
    1      C       0.4373442507    -0.6615632926    -0.6785328640
    2      C       0.6474276150     0.8995523447    -0.5317550381
    3      C      -0.8818416167    -1.1658327003    -0.0027704664
    4      C      -0.5997442626     1.6885133755     0.0135492206
    5      O      -1.1286582329    -2.5076463069    -0.4396543785
    6      O      -1.5816680107    -0.5558582226     0.8369440579
    7      O      -1.6762153877     1.5118928073    -0.9217195531
    8      O      -0.6559639553     2.4096153941     1.0314816898
    9      C      -2.8955858232     2.1883089076    -0.4235126170
   10      C      -2.3508724528    -3.0438446227     0.2081534131
   11      C       1.6830838339    -1.1957339059     0.1598204855
   12      C       3.0109300517    -0.8990970288    -0.6447005990
   13      C       3.1873585519     0.6446724937    -0.3883128473
   14      C       1.8887768624     0.9585883868     0.4524512198
   15      O       1.7350835589    -0.2496320992     1.2987077213
   16      H       0.4705186992    -0.9982837260    -1.7295598490
   17      H       0.9043933845     1.3382959918    -1.5135484324
   18      H      -3.0480425839     1.9999527811     0.6579853912
   19      H      -2.6029674242    -2.4417089737     1.1040104396
   20      H       1.5697461879    -2.2365071665     0.5210293866
   21      H       3.8508395637    -1.4753901665    -0.2252495142
   22      H       2.9101478713    -1.1479368532    -1.7132577240
   23      H       4.0904888860     0.8503551968     0.2084198295
   24      H       3.2353835089     1.2318003342    -1.3191840151
   25      H       1.9209644420     1.8710503613     1.0791598294
   26      H      -2.8453835248     3.2849523285    -0.5885919240
   27      H      -3.7408188487     1.7706826555    -1.0013434589
   28      H      -2.1494120195    -4.0953464224     0.4868548789
   29      H      -3.2002210608    -3.0095986619    -0.5042152776
 ----------------------------------------------------------------
 Molecular Point Group                 C1    NOp =  1
 Largest Abelian Subgroup              C1    NOp =  1
 Nuclear Repulsion Energy =  1090.2417369523 hartrees
 There are       57 alpha and       57 beta electrons
 Applying Cartesian multipole field
    Component          Value
    ---------          -----
     (2,0,0)        1.00000E-11
     (0,2,0)        2.00000E-11
     (0,0,2)       -3.00000E-11
 Nucleus-field energy     =     0.0000000322 hartrees
 Requested basis set is STO-3G
 There are 44 shells and 89 basis functions
 A cutoff of  1.0D-12 yielded    864 shell pairs
 There are      3897 function pairs
 Smallest overlap matrix eigenvalue = 2.13E-01
 Guess MOs from SCF MO coefficient file
 Reading MOs from coefficient file
 Reading MOs from coefficient file
 A restricted hybrid HF-DFT SCF calculation will be
 performed using Pulay DIIS extrapolation
 Exchange:     0.2000 Hartree-Fock + 0.0800 Slater + 0.7200 B88
 Correlation:  0.1900 VWN1RPA + 0.8100 LYP
 Using SG-1 standard quadrature grid
 Dispersion:   Grimme D3
 SCF converges when DIIS error is below 1.0E-08
 Geometry optimization detected.  Setting ReadMinima to 0
 Setting SaveMinima to 0
 -------------------------------------------------------
 OpenMP Integral computing Module                
 Release: version 1.0, May 2013, Q-Chem Inc. Pittsburgh 
 -------------------------------------------------------
 -------------------------------------------------------
 OpenMP BLAS3 based DFT computing Module                
 Release: version 1.0, May 2013, Q-Chem Inc. Pittsburgh 
 -------------------------------------------------------
 ---------------------------------------
  Cycle       Energy         DIIS Error
 ---------------------------------------
    1    -755.7331235280      9.04E-04
    2    -755.7325354083      7.74E-05
    3    -755.7325258113      1.32E-04
    4    -755.7325447447      3.17E-05
    5    -755.7325457908      1.03E-05
    6    -755.7325459099      2.87E-06
    7    -755.7325459200      4.87E-07
    8    -755.7325459202      3.87E-07
    9    -755.7325459204      1.05E-07
   10    -755.7325459204      2.21E-08
   11    -755.7325459204      7.29E-09 Convergence criterion met
 ---------------------------------------
 SCF time:  CPU 45.38 s  wall 1.91 s
 SCF   energy in the final basis set = -755.7325459204
 Total energy in the final basis set = -755.7325459204
 
 --------------------------------------------------------------
 
                    Orbital Energies (a.u.)
 --------------------------------------------------------------
 
 Alpha MOs
 -- Occupied --
-18.936 -18.920 -18.886 -18.880 -18.865 -10.102 -10.091 -10.061
-10.060 -10.055 -10.055 -10.039 -10.033 -10.020 -10.018  -1.014
 -0.998  -0.968  -0.938  -0.926  -0.761  -0.722  -0.705  -0.664
 -0.652  -0.593  -0.544  -0.536  -0.509  -0.473  -0.454  -0.452
 -0.430  -0.414  -0.412  -0.405  -0.401  -0.375  -0.361  -0.352
 -0.344  -0.340  -0.331  -0.323  -0.310  -0.302  -0.297  -0.278
 -0.271  -0.251  -0.244  -0.233  -0.179  -0.165  -0.158  -0.145
 -0.142
 -- Virtual --
  0.096   0.115   0.237   0.251   0.270   0.284   0.312   0.331
  0.342   0.346   0.357   0.372   0.384   0.404   0.410   0.420
  0.422   0.426   0.431   0.433   0.436   0.440   0.443   0.444
  0.452   0.467   0.488   0.509   0.542   0.552   0.644   0.654
 --------------------------------------------------------------
 
          Ground-State Mulliken Net Atomic Charges

     Atom                 Charge (a.u.)
  ----------------------------------------
      1 C                    -0.076946
      2 C                    -0.080357
      3 C                     0.215697
      4 C                     0.216194
      5 O                    -0.170645
      6 O                    -0.210211
      7 O                    -0.176568
      8 O                    -0.214042
      9 C                    -0.128775
     10 C                    -0.134768
     11 C                     0.024906
     12 C                    -0.144184
     13 C                    -0.143290
     14 C                     0.023983
     15 O                    -0.189175
     16 H                     0.087631
     17 H                     0.082862
     18 H                     0.096578
     19 H                     0.101529
     20 H                     0.083634
     21 H                     0.078138
     22 H                     0.073799
     23 H                     0.077947
     24 H                     0.073097
     25 H                     0.090848
     26 H                     0.082461
     27 H                     0.086445
     28 H                     0.088213
     29 H                     0.084997
  ----------------------------------------
  Sum of atomic charges =    -0.000000

 -----------------------------------------------------------------
                    Cartesian Multipole Moments
 -----------------------------------------------------------------
    Charge (ESU x 10^10)
                -0.0000
    Dipole Moment (Debye)
         X       0.0451      Y      -1.1716      Z      -2.1704
       Tot       2.4668
    Quadrupole Moments (Debye-Ang)
        XX     -72.6196     XY       1.9444     YY     -77.3589
        XZ      -1.4695     YZ      -3.7477     ZZ     -84.5022
    Octopole Moments (Debye-Ang^2)
       XXX     -31.4724    XXY       2.1436    XYY     -17.4473
       YYY      -6.9508    XXZ      -1.1490    XYZ       4.1220
       YYZ       3.2250    XZZ      -4.6994    YZZ      -0.7390
       ZZZ       5.0359
    Hexadecapole Moments (Debye-Ang^3)
      XXXX   -1893.4080   XXXY      -2.0474   XXYY    -504.5435
      XYYY      25.3169   YYYY   -1361.8174   XXXZ      31.3806
      XXYZ       0.5568   XYYZ       8.1697   YYYZ     -40.7861
      XXZZ    -385.1716   XYZZ       8.3862   YYZZ    -293.2103
      XZZZ      -0.0640   YZZZ       5.3806   ZZZZ    -295.5124
 -----------------------------------------------------------------
 Calculating analytic gradient of the SCF energy
 Gradient of SCF Energy
            1           2           3           4           5           6
    1  -0.0012814   0.0011290  -0.0005580   0.0004464   0.0010335  -0.0004149
    2   0.0000195  -0.0012846   0.0006698   0.0019980  -0.0011458  -0.0000186
    3  -0.0028856   0.0032306  -0.0004576  -0.0014854  -0.0001152   0.0002532
            7           8           9          10          11          12
    1  -0.0005520   0.0001415  -0.0009432  -0.0006489   0.0003006   0.0002996
    2  -0.0016291   0.0003870   0.0000187  -0.0001570  -0.0003316  -0.0002573
    3  -0.0000146   0.0002299   0.0002726   0.0004820  -0.0002454  -0.0005921
           13          14          15          16          17          18
    1   0.0000479   0.0005454   0.0001747   0.0004989  -0.0001635   0.0002318
    2   0.0000182  -0.0000852   0.0002971   0.0002897   0.0004646   0.0002409
    3  -0.0004355   0.0003007   0.0011611  -0.0001014   0.0001744   0.0000819
           19          20          21          22          23          24
    1   0.0000186  -0.0004336   0.0000874   0.0001091  -0.0000326   0.0001284
    2   0.0001264   0.0001859   0.0002358  -0.0002254  -0.0001668   0.0000935
    3   0.0000697   0.0001305   0.0001966   0.0000661   0.0001376   0.0000753
           25          26          27          28          29
    1  -0.0001247  -0.0000956   0.0000291   0.0000836  -0.0000571
    2   0.0001400   0.0000859  -0.0001572   0.0000349   0.0001528
    3  -0.0001879  -0.0002183   0.0001056  -0.0001889  -0.0000401
 Max gradient component =       3.231E-03
 RMS gradient           =       6.986E-04
 Gradient time:  CPU 14.02 s  wall 0.59 s
 Geometry Optimization Parameters
   NAtoms,    NIC,     NZ,  NCons,   NDum,   NFix, NCnnct, MaxDiis
       29     227       0       2       0       0       0       0

 Cartesian Hessian Update
 Hessian Updated using BFGS Update


** CONSTRAINED OPTIMIZATION IN DELOCALIZED INTERNAL COORDINATES **
   Searching for a Minimum

   Optimization Cycle:   5

                       Coordinates (Angstroms)
     ATOM                X               Y               Z
      1  C         0.4373442507   -0.6615632926   -0.6785328640
      2  C         0.6474276150    0.8995523447   -0.5317550381
      3  C        -0.8818416167   -1.1658327003   -0.0027704664
      4  C        -0.5997442626    1.6885133755    0.0135492206
      5  O        -1.1286582329   -2.5076463069   -0.4396543785
      6  O        -1.5816680107   -0.5558582226    0.8369440579
      7  O        -1.6762153877    1.5118928073   -0.9217195531
      8  O        -0.6559639553    2.4096153941    1.0314816898
      9  C        -2.8955858232    2.1883089076   -0.4235126170
     10  C        -2.3508724528   -3.0438446227    0.2081534131
     11  C         1.6830838339   -1.1957339059    0.1598204855
     12  C         3.0109300517   -0.8990970288   -0.6447005990
     13  C         3.1873585519    0.6446724937   -0.3883128473
     14  C         1.8887768624    0.9585883868    0.4524512198
     15  O         1.7350835589   -0.2496320992    1.2987077213
     16  H         0.4705186992   -0.9982837260   -1.7295598490
     17  H         0.9043933845    1.3382959918   -1.5135484324
     18  H        -3.0480425839    1.9999527811    0.6579853912
     19  H        -2.6029674242   -2.4417089737    1.1040104396
     20  H         1.5697461879   -2.2365071665    0.5210293866
     21  H         3.8508395637   -1.4753901665   -0.2252495142
     22  H         2.9101478713   -1.1479368532   -1.7132577240
     23  H         4.0904888860    0.8503551968    0.2084198295
     24  H         3.2353835089    1.2318003342   -1.3191840151
     25  H         1.9209644420    1.8710503613    1.0791598294
     26  H        -2.8453835248    3.2849523285   -0.5885919240
     27  H        -3.7408188487    1.7706826555   -1.0013434589
     28  H        -2.1494120195   -4.0953464224    0.4868548789
     29  H        -3.2002210608   -3.0095986619   -0.5042152776
   Point Group: c1    Number of degrees of freedom:    81


   Energy is   -755.732545920

              Constraints and their Current Values
                                        Value     Constraint
   Dihedral:        2   1   3   5      167.300      167.300
   Dihedral:        1   2   4   7      -61.600      -61.600
 Hessian Updated using BFGS Update

 78 Hessian modes will be used to form the next step
  Hessian Eigenvalues:
     0.021488    0.045000    0.045001    0.045016    0.045178    0.045409
     0.045928    0.048184    0.057354    0.059858    0.065496    0.067304
     0.070697    0.071722    0.074355    0.075508    0.081755    0.083699
     0.084153    0.085107    0.087351    0.088273    0.091167    0.091465
     0.096619    0.098160    0.112218    0.112829    0.113421    0.116980
     0.117285    0.122212    0.123289    0.138346    0.141409    0.158410
     0.159960    0.160159    0.160877    0.162850    0.172079    0.174275
     0.245547    0.246121    0.249157    0.249866    0.250032    0.252145
     0.259157    0.268053    0.268998    0.291774    0.298673    0.308714
     0.318063    0.326740    0.335434    0.338892    0.340527    0.341625
     0.342223    0.342304    0.342975    0.343492    0.343854    0.343875
     0.344065    0.344367    0.344993    0.345975    0.358342    0.377904
     0.411696    0.457564    0.512303    0.536369    0.948710    0.974424

 Minimum Search - Taking Simple RFO Step
 Searching for Lamda that Minimizes Along All modes
 Value Taken    Lamda =  -0.00009657
 Step Taken.  Stepsize is  0.056556

                             Maximum     Tolerance    Cnvgd?
         Gradient           0.001327      0.000300      NO
         Displacement       0.023575      0.001200      NO
         Energy change     -0.000139      0.000001      NO


 New Cartesian Coordinates Obtained by Inverse Iteration

 Displacement from previous Coordinates is:  0.125567
 Adding empirical dispersion correction 
[...]
 C          0.000  0.000 -0.000   -0.039  0.035  0.032   -0.003  0.002 -0.003
 C         -0.000 -0.000  0.000   -0.052 -0.034  0.022    0.002  0.003  0.003
 C         -0.000  0.000 -0.000    0.000 -0.008 -0.003    0.003 -0.009 -0.008
 O          0.000 -0.000  0.000    0.001  0.000 -0.000   -0.000 -0.003 -0.003
 H          0.000  0.001  0.000   -0.024 -0.002  0.002    0.210  0.071 -0.048
 H         -0.003  0.001 -0.001   -0.052  0.024 -0.000   -0.038 -0.011 -0.002
 H          0.136  0.616  0.277   -0.006  0.002 -0.002   -0.044 -0.004 -0.030
 H         -0.005 -0.012 -0.050    0.000  0.000 -0.001    0.049  0.113  0.009
 H          0.001  0.000  0.000   -0.021  0.016  0.003   -0.005 -0.004  0.009
 H         -0.000 -0.001 -0.000    0.046 -0.197 -0.425   -0.018 -0.006  0.018
 H          0.000 -0.000  0.000    0.373 -0.287  0.055    0.001  0.005 -0.005
 H          0.000 -0.000 -0.001    0.149  0.296 -0.394    0.012 -0.012 -0.010
 H          0.000  0.000  0.000    0.468  0.180  0.155   -0.001 -0.003 -0.001
 H         -0.000 -0.001  0.001   -0.017 -0.015  0.003   -0.001 -0.014 -0.014
 H         -0.217 -0.020  0.610   -0.005  0.001 -0.000   -0.061 -0.007 -0.038
 H          0.214 -0.091 -0.208   -0.005  0.003  0.005   -0.066  0.068  0.044
 H          0.039 -0.012 -0.008    0.000 -0.003 -0.001    0.078  0.088  0.035
 H         -0.029  0.009 -0.002   -0.000 -0.001  0.002    0.153  0.045 -0.105
 TransDip   0.060  0.023  0.063    0.048 -0.002 -0.062   -0.220  0.105  0.097

 Mode:                67                     68                     69
 Frequency:      1804.34                3049.81                3050.35
 Force Cnst:     21.9697                 5.6425                 5.6427
 Red. Mass:      11.4535                 1.0296                 1.0293
 IR Active:          YES                    YES                    YES
 IR Intens:      388.821                 27.483                 42.778
 Raman Active:       YES                    YES                    YES
               X      Y      Z        X      Y      Z        X      Y      Z
 C          0.020 -0.009 -0.030    0.000  0.000  0.001    0.000  0.000 -0.000
 C          0.015 -0.029 -0.036    0.000  0.001 -0.002   -0.001 -0.001  0.004
 C         -0.193  0.133  0.285   -0.000 -0.002 -0.002   -0.000 -0.000 -0.000
 C         -0.027  0.434  0.528    0.001  0.000  0.000   -0.002 -0.001 -0.002
 O          0.011 -0.009 -0.018    0.002  0.002 -0.000    0.000  0.000 -0.000
 O          0.114 -0.097 -0.182   -0.000  0.000  0.001   -0.000  0.000  0.000
 O         -0.004 -0.023 -0.033   -0.001  0.000 -0.000    0.003 -0.001  0.000
 O         -0.004 -0.276 -0.341   -0.000 -0.000 -0.000    0.000  0.001  0.001
 C         -0.018  0.017  0.012   -0.008  0.007  0.005    0.029 -0.024 -0.019
 C         -0.012 -0.004  0.008    0.033  0.009 -0.025    0.009  0.003 -0.007
 C          0.010  0.001  0.010   -0.000  0.000 -0.000   -0.000 -0.000  0.000
 C         -0.002  0.001 -0.003    0.000 -0.000 -0.000    0.000 -0.000  0.000
 C         -0.005 -0.003 -0.006   -0.000 -0.000  0.000    0.001  0.001 -0.001
 C          0.004  0.005  0.016   -0.000  0.000  0.000   -0.000  0.000 -0.000
 O         -0.001 -0.002 -0.008    0.000  0.000  0.000    0.000 -0.000  0.000
 H          0.120  0.047 -0.042   -0.000 -0.004 -0.011   -0.000  0.001  0.003
 H          0.113 -0.121 -0.026   -0.005 -0.007  0.021    0.009  0.015 -0.042
 H          0.108 -0.046  0.052    0.050  0.059 -0.144   -0.182 -0.215  0.524
 H          0.025  0.060  0.006   -0.473  0.374 -0.043   -0.130  0.103 -0.012
 H         -0.023 -0.007 -0.013   -0.000 -0.002  0.001    0.000  0.001 -0.000
 H         -0.015 -0.011  0.010   -0.005  0.003 -0.003   -0.001  0.001 -0.001
 H          0.007  0.002 -0.004    0.001  0.002  0.006    0.000  0.000  0.001
 H         -0.022  0.017  0.021    0.001  0.000  0.001   -0.010 -0.002 -0.007
 H          0.006 -0.003 -0.004    0.000  0.002 -0.003   -0.000 -0.008  0.014
 H         -0.056  0.043 -0.003    0.000 -0.000 -0.000   -0.000 -0.001 -0.001
 H          0.121  0.009  0.029   -0.032 -0.166 -0.010    0.116  0.601  0.035
 H          0.128 -0.109 -0.084    0.081  0.024  0.088   -0.295 -0.087 -0.317
 H          0.041  0.047  0.021    0.121 -0.139  0.587    0.033 -0.038  0.162
 H          0.082  0.024 -0.057   -0.064 -0.353 -0.231   -0.018 -0.097 -0.064
 TransDip  -0.002  0.421  0.471    0.094  0.132 -0.045    0.198 -0.067 -0.012

 Mode:                70                     71                     72
 Frequency:      3056.77                3061.21                3067.75
 Force Cnst:      5.8633                 5.9354                 5.8941
 Red. Mass:       1.0650                 1.0750                 1.0630
 IR Active:          YES                    YES                    YES
 IR Intens:       14.737                 15.746                 36.137
 Raman Active:       YES                    YES                    YES
               X      Y      Z        X      Y      Z        X      Y      Z
 C         -0.000  0.002  0.007    0.000  0.001  0.005   -0.000  0.002  0.007
 C          0.008  0.013 -0.036    0.014  0.022 -0.061    0.005  0.009 -0.025
 C         -0.000 -0.000  0.000   -0.000 -0.000  0.000   -0.000 -0.000  0.000
 C         -0.000 -0.000 -0.001   -0.000 -0.000 -0.002   -0.000 -0.000 -0.001
 O          0.000  0.000 -0.000    0.000  0.000 -0.000    0.000  0.000 -0.000
 O          0.000 -0.000 -0.000    0.000  0.000 -0.000    0.000 -0.000 -0.000
 O          0.000 -0.000  0.000    0.000 -0.000  0.000    0.000 -0.000  0.000
 O          0.000  0.000  0.000    0.000  0.000  0.000    0.000  0.000  0.000
 C          0.001 -0.001 -0.001    0.001 -0.001 -0.001    0.000 -0.000  0.000
 C         -0.000 -0.000  0.000   -0.000 -0.000  0.000   -0.000 -0.000  0.000
 C          0.000  0.002 -0.001    0.000 -0.002  0.001   -0.000  0.003 -0.002
 C          0.019 -0.026 -0.026   -0.019  0.026  0.025    0.015 -0.024 -0.025
 C         -0.028 -0.026  0.021    0.006  0.001  0.002    0.039  0.032 -0.017
 C          0.001  0.001  0.000    0.001 -0.000 -0.001   -0.001 -0.002 -0.002
 O         -0.000  0.000  0.000   -0.000 -0.000  0.000   -0.000 -0.000  0.000
 H          0.003 -0.029 -0.085   -0.001 -0.019 -0.058    0.003 -0.029 -0.084
 H         -0.101 -0.153  0.435   -0.170 -0.257  0.734   -0.068 -0.103  0.295
 H         -0.008 -0.009  0.021   -0.008 -0.009  0.022   -0.000  0.000  0.000
 H          0.005 -0.004  0.000    0.002 -0.001  0.000    0.005 -0.004  0.000
 H         -0.002 -0.028  0.011    0.001  0.026 -0.009   -0.004 -0.048  0.019
 H         -0.280  0.190 -0.152    0.275 -0.187  0.150   -0.230  0.157 -0.127
 H          0.065  0.119  0.456   -0.065 -0.116 -0.444    0.061  0.110  0.416
 H          0.309  0.060  0.203   -0.066 -0.014 -0.039   -0.442 -0.087 -0.285
 H          0.011  0.247 -0.443   -0.001 -0.004  0.012   -0.011 -0.274  0.488
 H         -0.003 -0.012 -0.007   -0.000  0.006  0.003    0.006  0.036  0.021
 H          0.005  0.025  0.001    0.005  0.026  0.001    0.000  0.002  0.000
 H         -0.012 -0.004 -0.013   -0.012 -0.004 -0.013   -0.001 -0.000 -0.001
 H         -0.001  0.002 -0.007   -0.001  0.001 -0.003   -0.001  0.002 -0.008
 H          0.001  0.004  0.002    0.000  0.002  0.001    0.001  0.003  0.002
 TransDip  -0.024 -0.113 -0.041   -0.040  0.121  0.007    0.147  0.051 -0.114

 Mode:                73                     74                     75
 Frequency:      3096.28                3111.51                3117.81
 Force Cnst:      6.2524                 6.2500                 6.2827
 Red. Mass:       1.1069                 1.0957                 1.0970
 IR Active:          YES                    YES                    YES
 IR Intens:        0.731                 11.570                 33.048
 Raman Active:       YES                    YES                    YES
               X      Y      Z        X      Y      Z        X      Y      Z
 C         -0.000  0.003  0.009    0.001 -0.020 -0.057    0.002 -0.019 -0.053
 C         -0.001 -0.002  0.005    0.001  0.002 -0.003    0.002  0.004 -0.009
 C          0.000  0.000  0.000   -0.001 -0.001 -0.001   -0.000 -0.001 -0.001
 C         -0.000  0.000  0.000   -0.000  0.000 -0.000   -0.000  0.000 -0.000
 O         -0.000 -0.000 -0.000    0.000  0.000  0.000    0.000  0.000  0.000
 O         -0.000 -0.000 -0.000   -0.000  0.000  0.000   -0.000  0.000  0.000
 O          0.000  0.000 -0.000    0.000 -0.000  0.000    0.000 -0.000  0.000
 O         -0.000 -0.000 -0.000    0.000 -0.000 -0.000    0.000  0.000  0.000
 C         -0.000  0.000 -0.000    0.000  0.000  0.000   -0.000 -0.000  0.000
 C         -0.000  0.000 -0.000    0.000  0.000  0.000    0.001 -0.000  0.001
 C         -0.001 -0.007  0.003    0.002  0.009 -0.004   -0.001 -0.003  0.000
 C         -0.043  0.017 -0.054    0.021 -0.009  0.025   -0.028  0.009 -0.042
 C          0.032 -0.011  0.051    0.030 -0.008  0.045   -0.025  0.008 -0.039
 C          0.000 -0.002 -0.001    0.000 -0.003 -0.001    0.000  0.001 -0.000
 O          0.000  0.000 -0.000   -0.000  0.000  0.000    0.000  0.000  0.001
 H          0.005 -0.039 -0.110   -0.016  0.235  0.678   -0.012  0.219  0.633
 H          0.015  0.024 -0.069   -0.012 -0.017  0.042   -0.024 -0.041  0.108
 H         -0.000 -0.000  0.000    0.000  0.000 -0.001    0.001  0.002 -0.004
 H          0.000 -0.000  0.000   -0.003  0.002 -0.000   -0.009  0.007 -0.001
 H          0.010  0.086 -0.036   -0.014 -0.108  0.046    0.002  0.030 -0.013
 H          0.462 -0.320  0.230   -0.232  0.163 -0.116    0.295 -0.207  0.148
 H          0.048  0.118  0.416   -0.022 -0.054 -0.182    0.042  0.099  0.350
 H         -0.396 -0.085 -0.240   -0.374 -0.081 -0.227    0.313  0.069  0.191
 H          0.022  0.213 -0.371    0.019  0.182 -0.313   -0.016 -0.162  0.278
 H          0.002  0.020  0.013    0.003  0.029  0.019   -0.001 -0.006 -0.003
 H         -0.000 -0.002 -0.000   -0.000 -0.001 -0.000    0.001  0.005  0.000
 H          0.000  0.000  0.000   -0.000 -0.000 -0.000   -0.001 -0.000 -0.001
 H          0.000 -0.000  0.000    0.000 -0.001  0.003   -0.001  0.000 -0.003
 H         -0.000  0.000  0.000   -0.000 -0.003 -0.002   -0.000 -0.003 -0.002
 TransDip  -0.020 -0.004  0.018    0.091 -0.048  0.035   -0.085 -0.003 -0.163

 Mode:                76                     77                     78
 Frequency:      3122.96                3125.24                3130.26
 Force Cnst:      6.3615                 6.3721                 6.2922
 Red. Mass:       1.1071                 1.1073                 1.0899
 IR Active:          YES                    YES                    YES
 IR Intens:       18.257                 15.332                 22.393
 Raman Active:       YES                    YES                    YES
               X      Y      Z        X      Y      Z        X      Y      Z
 C         -0.000 -0.000 -0.001    0.000  0.000  0.000   -0.000 -0.002 -0.006
 C          0.000  0.000 -0.000   -0.000 -0.000  0.000   -0.000  0.001 -0.001
 C          0.000 -0.000  0.000   -0.000  0.000  0.000   -0.000 -0.001  0.000
 C         -0.000 -0.000 -0.000    0.000  0.000 -0.000   -0.000  0.000 -0.000
 O          0.000 -0.000  0.000    0.000 -0.000 -0.000    0.000  0.000 -0.000
 O          0.000 -0.000  0.000    0.000 -0.000 -0.000    0.000  0.000 -0.000
 O          0.000 -0.000  0.000    0.000  0.000 -0.000    0.000 -0.000  0.000
 O          0.000  0.000  0.000   -0.000  0.000 -0.000    0.000 -0.000  0.000
 C          0.001  0.003 -0.001   -0.031 -0.078  0.045   -0.000 -0.000  0.000
 C         -0.057  0.048 -0.059   -0.002  0.001 -0.002    0.001 -0.001  0.001
 C         -0.000 -0.001  0.001    0.000  0.000 -0.000   -0.009 -0.077  0.034
 C         -0.000 -0.000 -0.000    0.000 -0.000  0.000    0.010 -0.005  0.006
 C         -0.000  0.000 -0.000    0.000 -0.000  0.000    0.003  0.001  0.001
 C         -0.000 -0.000 -0.000   -0.000  0.000  0.000   -0.000 -0.003 -0.003
 O          0.000 -0.000  0.000    0.000  0.000 -0.000   -0.000 -0.000 -0.000
 H          0.000  0.003  0.009    0.000 -0.001 -0.004    0.000  0.021  0.064
 H         -0.001 -0.001  0.002    0.000  0.001 -0.001   -0.004 -0.006  0.016
 H         -0.006 -0.007  0.018    0.206  0.238 -0.625    0.001  0.001 -0.003
 H          0.550 -0.442  0.032    0.017 -0.013  0.001   -0.010  0.008 -0.001
 H          0.002  0.016 -0.007   -0.000 -0.002  0.001    0.107  0.893 -0.391
 H          0.001 -0.001  0.000   -0.001  0.001 -0.000   -0.112  0.075 -0.053
 H          0.000  0.001  0.003   -0.000 -0.000 -0.002   -0.004 -0.009 -0.024
 H          0.003  0.001  0.002   -0.002 -0.000 -0.001   -0.027 -0.006 -0.017
 H         -0.000 -0.002  0.003    0.000  0.001 -0.003    0.000  0.001 -0.000
 H          0.000  0.001  0.001   -0.000 -0.001 -0.001    0.004  0.046  0.031
 H         -0.004 -0.023 -0.002    0.135  0.691  0.055    0.000  0.000  0.000
 H         -0.002 -0.000 -0.003    0.023 -0.006  0.039   -0.001 -0.000 -0.001
 H          0.128 -0.143  0.673    0.004 -0.005  0.022   -0.002  0.002 -0.010
 H         -0.010  0.017 -0.007    0.000  0.002  0.001    0.000 -0.001 -0.001
 TransDip  -0.082  0.069 -0.086   -0.032 -0.108  0.054    0.011 -0.147  0.036

 Mode:                79                     80                     81
 Frequency:      3154.16                3157.23                3163.02
 Force Cnst:      6.4859                 6.4973                 6.4287
 Red. Mass:       1.1065                 1.1063                 1.0906
 IR Active:          YES                    YES                    YES
 IR Intens:       13.956                 14.426                  5.769
 Raman Active:       YES                    YES                    YES
               X      Y      Z        X      Y      Z        X      Y      Z
 C         -0.000 -0.000 -0.000   -0.000  0.000 -0.000    0.001  0.001  0.002
 C          0.000  0.000 -0.000    0.000  0.000 -0.000    0.000 -0.000  0.001
 C         -0.000 -0.000 -0.000    0.001  0.000 -0.001    0.000  0.000 -0.000
 C          0.001 -0.001 -0.001    0.000  0.000 -0.000   -0.000 -0.001 -0.001
 O          0.000  0.000  0.000   -0.000  0.000  0.000   -0.000 -0.000  0.000
 O         -0.000  0.000  0.000   -0.000  0.000  0.000   -0.000 -0.000  0.000
 O          0.000  0.000  0.000   -0.000 -0.000  0.000   -0.000  0.000  0.000
 O         -0.000  0.000  0.000   -0.000 -0.000  0.000    0.000  0.000  0.000
 C         -0.045 -0.027 -0.079   -0.000  0.000 -0.001   -0.001 -0.000 -0.001
 C         -0.000  0.000  0.000    0.004 -0.072 -0.062    0.000  0.000  0.000
 C         -0.000 -0.000  0.000    0.000 -0.000  0.000    0.001  0.005 -0.001
 C          0.000 -0.000 -0.000    0.000 -0.000 -0.000   -0.001  0.001  0.001
 C          0.000  0.000  0.000    0.000  0.000 -0.000   -0.005 -0.000 -0.001
 C          0.000  0.001  0.001   -0.000 -0.000 -0.000   -0.006 -0.071 -0.048
 O         -0.000  0.000  0.000   -0.000  0.000  0.000   -0.000 -0.000  0.000
 H         -0.000  0.001  0.002   -0.000  0.000  0.001   -0.000 -0.006 -0.017
 H         -0.000 -0.000  0.001   -0.000 -0.000  0.000    0.001  0.003 -0.012
 H         -0.114 -0.134  0.296   -0.001 -0.001  0.003   -0.001 -0.002  0.004
 H          0.003 -0.002  0.000   -0.245  0.185 -0.035    0.001 -0.000  0.000
 H          0.000  0.002 -0.001    0.000  0.000 -0.000   -0.005 -0.045  0.020
 H         -0.000  0.000 -0.000   -0.000  0.000 -0.000    0.009 -0.006  0.005
 H          0.000  0.000  0.001    0.000  0.000  0.001   -0.001 -0.002 -0.008
 H         -0.001 -0.000 -0.001   -0.000 -0.000 -0.000    0.052  0.009  0.028
 H         -0.000 -0.000  0.000   -0.000 -0.000  0.000    0.002  0.002 -0.007
 H         -0.001 -0.010 -0.007    0.000  0.003  0.002    0.070  0.819  0.556
 H          0.050  0.285  0.001   -0.000 -0.000 -0.000    0.001  0.005  0.000
 H          0.592  0.175  0.639    0.003  0.001  0.003    0.007  0.002  0.007
 H          0.000  0.000 -0.000    0.064 -0.081  0.282   -0.000  0.000 -0.001
 H         -0.001 -0.004 -0.002    0.133  0.743  0.486   -0.000 -0.003 -0.002
 TransDip  -0.075 -0.025 -0.090   -0.014 -0.100 -0.068   -0.044 -0.060 -0.021

 STANDARD THERMODYNAMIC QUANTITIES AT   298.15 K  AND     1.00 ATM

   This Molecule has  0 Imaginary Frequencies
   Zero point vibrational energy:      149.117 kcal/mol

   Atom    1 Element C  Has Mass   12.00000
   Atom    2 Element C  Has Mass   12.00000
   Atom    3 Element C  Has Mass   12.00000
   Atom    4 Element C  Has Mass   12.00000
   Atom    5 Element O  Has Mass   15.99491
   Atom    6 Element O  Has Mass   15.99491
   Atom    7 Element O  Has Mass   15.99491
   Atom    8 Element O  Has Mass   15.99491
   Atom    9 Element C  Has Mass   12.00000
   Atom   10 Element C  Has Mass   12.00000
   Atom   11 Element C  Has Mass   12.00000
   Atom   12 Element C  Has Mass   12.00000
   Atom   13 Element C  Has Mass   12.00000
   Atom   14 Element C  Has Mass   12.00000
   Atom   15 Element O  Has Mass   15.99491
   Atom   16 Element H  Has Mass    1.00783
   Atom   17 Element H  Has Mass    1.00783
   Atom   18 Element H  Has Mass    1.00783
   Atom   19 Element H  Has Mass    1.00783
   Atom   20 Element H  Has Mass    1.00783
   Atom   21 Element H  Has Mass    1.00783
   Atom   22 Element H  Has Mass    1.00783
   Atom   23 Element H  Has Mass    1.00783
   Atom   24 Element H  Has Mass    1.00783
   Atom   25 Element H  Has Mass    1.00783
   Atom   26 Element H  Has Mass    1.00783
   Atom   27 Element H  Has Mass    1.00783
   Atom   28 Element H  Has Mass    1.00783
   Atom   29 Element H  Has Mass    1.00783
   Molecular Mass:   214.084170 amu
   Principal axes and moments of inertia in amu*Bohr^2:
                             1           2           3
    Eigenvalues --     2434.94816  2993.19023  4690.24794
          X               0.99993     0.00646    -0.01012
          Y              -0.00654     0.99995    -0.00709
          Z               0.01007     0.00716     0.99992
   Rotational Symmetry Number is   1
   The Molecule is an Asymmetric Top
   Translational Enthalpy:        0.889 kcal/mol
   Rotational Enthalpy:           0.889 kcal/mol
   Vibrational Enthalpy:        156.361 kcal/mol
   gas constant (RT):             0.592 kcal/mol
   Translational Entropy:        41.987  cal/mol.K
   Rotational Entropy:           31.902  cal/mol.K
   Vibrational Entropy:          47.925  cal/mol.K

   Total Enthalpy:              158.731 kcal/mol
   Total Entropy:               121.814  cal/mol.K
Archival summary:
1\1\nid04580\FREQ\ProcedureUnspecified\BasisUnspecified\51014\junteng\WedOct420:20:002017WedOct420:20:002017\0\\#,FREQ,ProcedureUnspecified,BasisUnspecified,\\0,1\O\C,1,1.42734\H,2,1.08815,1,110.127\C,1,1.4387,2,97.1474,3,179.523,0\H,4,1.08573,1,109.785,2,177.699,0\C,4,1.54207,1,102.197,2,-57.4737,0\H,6,1.09087,4,110.207,1,-81.0253,0\H,6,1.09179,4,112.793,1,157.92,0\C,2,1.54692,1,103.326,3,-124.088,0\H,9,1.09083,2,110.205,1,86.4039,0\H,9,1.09197,2,112.466,1,-152.937,0\C,4,1.54929,1,103.104,2,55.5044,0\H,12,1.0937,4,110.84,1,-146.015,0\C,12,1.51922,4,113.753,1,95.4897,0\O,14,1.2033,12,125.802,4,5.82972,0\O,14,1.35076,12,109.985,4,-178.698,0\C,16,1.43909,14,115.805,12,176.469,0\H,17,1.08794,16,105.503,14,179.165,0\H,17,1.0909,16,110.573,14,59.489,0\H,17,1.09098,16,109.775,14,-61.4816,0\C,2,1.56434,1,102.193,3,122.181,0\H,21,1.08884,2,111.259,1,156.514,0\C,21,1.51399,2,109.303,1,-84.0876,0\O,23,1.20457,21,126.586,2,84.542,0\O,23,1.35322,21,109.922,2,-92.5313,0\C,25,1.4402,23,115.847,21,176.751,0\H,26,1.08775,25,105.456,23,178.975,0\H,26,1.09095,25,110.346,23,59.4551,0\H,26,1.09106,25,110.482,23,-61.382,0\\\@

 Total job time:  7296.85s(wall), 39525.96s(cpu) 
 Wed Oct  4 20:20:01 2017

        *************************************************************
        *                                                           *
        *  Thank you very much for using Q-Chem.  Have a nice day.  *
        *                                                           *
        *************************************************************


