nid03653 10.128.14
Q-Chem Developer Version! Running on 10.128.14.*
                  Welcome to Q-Chem
     A Quantum Leap Into The Future Of Chemistry


 Q-Chem 5.0, Q-Chem, Inc., Pleasanton, CA (2017)

 Yihan Shao,  Zhengting Gan,  E. Epifanovsky,  A. T. B. Gilbert,  M. Wormit,  
 J. Kussmann,  A. W. Lange,  A. Behn,  Jia Deng,  Xintian Feng,  D. Ghosh,  
 M. Goldey,  P. R. Horn,  L. D. Jacobson,  I. Kaliman,  T. Kus,  A. Landau,  
 Jie Liu,  E. I. Proynov,  R. M. Richard,  R. P. Steele,  E. J. Sundstrom,  
 H. L. Woodcock III,  P. M. Zimmerman,  D. Zuev,  B. Albrecht,  E. Alguire,  
 S. A. Baeppler,  Z. Benda,  Y. A. Bernard,  E. J. Berquist,  K. B. Bravaya,  
 D. Casanova,  Chun-Min Chang,  Yunqing Chen,  A. Chien,  K. D. Closser,  
 M. P. Coons,  S. Dasgupta,  M. Diedenhofen,  Hainam Do,  R. G. Edgar,  
 Po-Tung Fang,  S. Fatehi,  Qingguo Feng,  Qinghui Ge,  A. Ghysels,  
 J. Gomes,  J. Gonthier,  A. Gunina,  M. W. D. Hanson-Heine,  
 P. H. P. Harbach,  A. W. Hauser,  J. E. Herr,  E. G. Hohenstein,  
 Z. C. Holden,  Kerwin Hui,  T.-C. Jagau,  Hyunjun Ji,  B. Kaduk,  
 K. Khistyaev,  Jaehoon Kim,  P. Klunzinger,  K. Koh,  D. Kosenkov,  
 T. Kowalczyk,  C. M. Krauter,  A. Kunitsa,  Ka Un Lao,  A. Laurent,  
 K. V. Lawler,  Joonho Lee,  D. Lefrancois,  S. Lehtola,  D. S. Levine,  
 Yi-Pei Li,  You-Sheng Lin,  Fenglai Liu,  E. Livshits,  A. Luenser,  
 P. Manohar,  E. Mansoor,  S. F. Manzer,  Shan-Ping Mao,  Yuezhi Mao,  
 N. Mardirossian,  A. V. Marenich,  L. A. Martinez-Martinez,  S. A. Maurer,  
 N. J. Mayhall,  S. C. McKenzie,  J.-M. Mewes,  A. F. Morrison,  K. Nanda,  
 T. S. Nguyen-Beck,  R. Olivares-Amaya,  J. A. Parkhill,  T. M. Perrine,  
 F. Plasser,  S. Prager,  A. Prociuk,  D. R. Rehn,  F. Rob,  M. Schneider,  
 N. Sergueev,  S. M. Sharada,  S. Sharma,  D. W. Small,  T. Stauch,  
 T. Stein,  Yu-Chuan Su,  A. J. W. Thom,  T. Tsuchimochi,  L. Vogt,  
 O. Vydrov,  M. A. Watson,  J. Wenzel,  M. de Wergifosse,  T. A. Wesolowski,  
 A. White,  J. Witte,  A. Yamada,  Jun Yang,  K. Yao,  S. Yeganeh,  
 S. R. Yost,  Zhi-Qiang You,  A. Zech,  Igor Ying Zhang,  Xing Zhang,  
 Yan Zhao,  Ying Zhu,  B. R. Brooks,  G. K. L. Chan,  C. J. Cramer,  
 M. S. Gordon,  W. J. Hehre,  A. Klamt,  M. W. Schmidt,  C. D. Sherrill,  
 D. G. Truhlar,  A. Aspuru-Guzik,  R. Baer,  A. T. Bell,  N. A. Besley,  
 Jeng-Da Chai,  A. Dreuw,  B. D. Dunietz,  T. R. Furlani,  Chao-Ping Hsu,  
 Yousung Jung,  Jing Kong,  D. S. Lambrecht,  WanZhen Liang,  C. Ochsenfeld,  
 V. A. Rassolov,  L. V. Slipchenko,  J. E. Subotnik,  T. Van Voorhis,  
 J. M. Herbert,  A. I. Krylov,  P. M. W. Gill,  M. Head-Gordon

 Contributors to earlier versions of Q-Chem not listed above: 
 R. D. Adamson,  B. Austin,  J. Baker,  G. J. O. Beran,  K. Brandhorst,  
 S. T. Brown,  E. F. C. Byrd,  A. K. Chakraborty,  C.-L. Cheng,  
 Siu Hung Chien,  D. M. Chipman,  D. L. Crittenden,  H. Dachsel,  
 R. A. DiStasio Jr.,  R. J. Doerksen,  A. D. Dutoi,  L. Fusti-Molnar,  
 W. A. Goddard III,  A. Golubeva-Zadorozhnaya,  S. R. Gwaltney,  G. Hawkins,  
 A. Heyden,  S. Hirata,  G. Kedziora,  F. J. Keil,  C. Kelley,  Jihan Kim,  
 R. A. King,  R. Z. Khaliullin,  P. P. Korambath,  W. Kurlancheek,  
 A. M. Lee,  M. S. Lee,  S. V. Levchenko,  Ching Yeh Lin,  D. Liotard,  
 R. C. Lochan,  I. Lotan,  P. E. Maslen,  N. Nair,  D. P. O'Neill,  
 D. Neuhauser,  E. Neuscamman,  C. M. Oana,  R. Olson,  B. Peters,  
 R. Peverati,  P. A. Pieniazek,  Y. M. Rhee,  J. Ritchie,  M. A. Rohrdanz,  
 E. Rosta,  N. J. Russ,  H. F. Schaefer III,  N. E. Schultz,  N. Shenvi,  
 A. C. Simmonett,  A. Sodt,  D. Stuck,  K. S. Thanthiriwatte,  V. Vanovschi,  
 Tao Wang,  A. Warshel,  C. F. Williams,  Q. Wu,  X. Xu,  W. Zhang

 Please cite Q-Chem as follows:
 Y. Shao et al., Mol. Phys. 113, 184-215 (2015)
 DOI: 10.1080/00268976.2014.952696

 Q-Chem 5.0.0 for Intel X86 EM64T Linux

 Parts of Q-Chem use Armadillo 5.200.1 (Boston Tea Smuggler).
 http://arma.sourceforge.net/

 Q-Chem begins on Wed Oct  4 17:29:54 2017  

Host: nid03653
0

     Scratch files written to /global/cscratch1/sd/junteng/scratch/13/opt_1001--.save//

Checking the input file for inconsistencies... 	...done.

--------------------------------------------------------------
User input:
--------------------------------------------------------------
$molecule
0  1
C    0.656  -1.997   0.550
C   -0.379  -2.055   1.685
C    1.075  -0.633   0.035
C   -0.743  -0.756   2.367
O    2.254  -0.766  -0.643
O    0.466   0.414   0.178
O    0.380  -0.211   2.923
O   -1.879  -0.339   2.537
C    0.159   1.039   3.578
C    2.798   0.433  -1.203
C   -0.074  -2.721  -0.584
C   -0.239  -4.209  -0.268
C   -1.341  -4.194   0.796
C   -1.585  -2.694   0.978
O   -1.425  -2.250  -0.391
H    1.566  -2.528   0.855
H   -0.041  -2.721   2.491
H   -0.505   1.690   2.999
H    2.061   1.233  -1.326
H    0.286  -2.514  -1.595
H   -0.592  -4.755  -1.150
H    0.687  -4.677   0.078
H   -2.237  -4.682   0.398
H   -1.053  -4.703   1.720
H   -2.574  -2.451   1.372
H   -0.249   0.863   4.578
H    1.124   1.543   3.677
H    3.204   0.190  -2.189
H    3.617   0.777  -0.565
$end


$opt
CONSTRAINT
tors    2    1    3    5    157.3
tors    1    2    4    7    -66.6
ENDCONSTRAINT
$end

$rem
JOBTYPE                   OPT
METHOD                    B3LYP
DFT_D                     D3_OP
BASIS                     STO-3G
GEOM_OPT_MAX_CYCLES       500
SYMMETRY                  False
THRESH                    12
SCF_CONVERGENCE           8
MAX_SUB_FILE_NUM          128
MEM_STATIC                400
MEM_TOTAL                 4000
$end

--------------------------------------------------------------
 Adding empirical dispersion correction 
 ----------------------------------------------------------------
 Doing -D3(op) with
 s6 =   1.00000
 s8 =   0.78311
 a1 =   0.30000
 a2 =   4.25000
 n  =  10.00000
 -D3 energy without 3body term =     -0.0301175666 hartrees
 ----------------------------------------------------------------
             Standard Nuclear Orientation (Angstroms)
    I     Atom           X                Y                Z
 ----------------------------------------------------------------
    1      C       0.3697342729    -0.6344652785    -0.5682185024
    2      C       0.5830892856     0.8866305416    -0.5085431759
    3      C      -0.8699014548    -1.2078766031     0.0919214188
    4      C      -0.5598235439     1.7339384151     0.0021824174
    5      O      -1.0906277378    -2.4603631032    -0.4080500553
    6      O      -1.5566019091    -0.6636803128     0.9403504869
    7      O      -1.6498149946     1.5482939899    -0.8007775971
    8      O      -0.4799332706     2.5718972711     0.8880308806
    9      C      -2.8044492191     2.2858543985    -0.3968092184
   10      C      -2.2289112229    -3.1547881210     0.1108156327
   11      C       1.5897974066    -1.1573410878     0.1940667708
   12      C       2.8778742489    -0.9023938644    -0.5914807846
   13      C       3.0736984138     0.6062805862    -0.4118163796
   14      C       1.8273869003     0.9943712392     0.3874040257
   15      O       1.7087539834    -0.1697627505     1.2404077097
   16      H       0.3688686773    -0.9646705244    -1.6141868320
   17      H       0.8207486346     1.2891342672    -1.5030002060
   18      H      -2.9457124994     2.2580152575     0.6891040690
   19      H      -2.5806906233    -2.7639184006     1.0709042303
   20      H       1.5042519872    -2.1684976679     0.6000401094
   21      H       3.7202931181    -1.4355074158    -0.1367617613
   22      H       2.8052766319    -1.2051355012    -1.6399525713
   23      H       3.9784423183     0.7875324718     0.1780566756
   24      H       3.1670514341     1.1432862684    -1.3598201301
   25      H       1.9410338999     1.9133998678     0.9660893801
   26      H      -2.7227111035     3.3187026777    -0.7489218606
   27      H      -3.6791460159     1.8248750106    -0.8631197561
   28      H      -1.9485029726    -4.2023825341     0.2522304790
   29      H      -3.0343825811    -3.1071758873    -0.6274864507
 ----------------------------------------------------------------
 Molecular Point Group                 C1    NOp =  1
 Largest Abelian Subgroup              C1    NOp =  1
 Nuclear Repulsion Energy =  1110.7745787068 hartrees
 There are       57 alpha and       57 beta electrons
 Requested basis set is STO-3G
 There are 44 shells and 89 basis functions

 Total QAlloc Memory Limit   4000 MB
 Mega-Array Size       392 MB
 MEM_STATIC part       400 MB
 A cutoff of  1.0D-12 yielded    865 shell pairs
 There are      3901 function pairs
 
 -------------------------------------------------------
 OpenMP Integral Computing Module                       
 Release: version 1.0, May 2013, Q-Chem Inc. Pittsburgh 
 -------------------------------------------------------
 Integral Job Info:
 Integral job number is                      11
 Integral operator is                         1
 short-range coefficients                     0
 long-range coefficients              100000000
 Omega coefficients                           0
 if combine SR and LR in K                    0
 Integral screening is                        0
 Integral computing path is                   2
 max size of driver memory is            800000
 size of driver memory is                 45569
 size of scratch memory is               945100
 max col of scratch BK array                289
 max len of scratch array in speh3           22
 max len of scratch index in speh4            8
 max int batch size is                      520
 min int batch size is                       52
 fixed nKL is                                52
 max L of basis functions is                  1
 order of int derivative is                   0
 number of shells is                         44
 number of basis is                          89
 number of cartesian basis is                89
 number of contracted shell pairs           865
 number of primitive shell pairs           4854
 maxK2 (contraction) of shell pair            9
 max number of K2 of shell pair               1
 max number of CS2 of shell pair            117
 max number of PS2 of shell pair            570
 mem total for path MDJ                   27818
 -------------------------------------------------------
 Smallest overlap matrix eigenvalue = 1.94E-01

 Scale SEOQF with 1.000000e-01/1.000000e-01/1.000000e-01

 Standard Electronic Orientation quadrupole field applied
 Nucleus-field energy     =     0.0000000330 hartrees
 Guess from superposition of atomic densities
 Warning:  Energy on first SCF cycle will be non-variational
 A restricted hybrid HF-DFT SCF calculation will be
 performed using Pulay DIIS extrapolation
 Exchange:     0.2000 Hartree-Fock + 0.0800 Slater + 0.7200 B88
 Correlation:  0.1900 VWN1RPA + 0.8100 LYP
 Using SG-1 standard quadrature grid
 Dispersion:   Grimme D3
 SCF converges when DIIS error is below 1.0E-08
 -------------------------------------------------------
 OpenMP Integral computing Module                
 Release: version 1.0, May 2013, Q-Chem Inc. Pittsburgh 
 -------------------------------------------------------
 -------------------------------------------------------
 OpenMP BLAS3 based DFT computing Module                
 Release: version 1.0, May 2013, Q-Chem Inc. Pittsburgh 
 -------------------------------------------------------
 ---------------------------------------
  Cycle       Energy         DIIS Error
 ---------------------------------------
    1    -755.1333775847      1.15E-01
    2    -755.4330515638      1.43E-02
    3    -754.4849215495      3.46E-02
    4    -755.6668951176      4.97E-03
    5    -755.6923795685      1.60E-03
    6    -755.6952387513      2.89E-04
    7    -755.6953280194      8.61E-05
    8    -755.6953339718      4.56E-05
    9    -755.6953363169      5.67E-06
   10    -755.6953363555      1.52E-06
   11    -755.6953363583      3.20E-07
   12    -755.6953363584      9.74E-08
   13    -755.6953363584      1.84E-08
   14    -755.6953363584      6.30E-09 Convergence criterion met
 ---------------------------------------
 SCF time:  CPU 60.68 s  wall 2.82 s
 SCF   energy in the final basis set = -755.6953363584
 Total energy in the final basis set = -755.6953363584
 
 --------------------------------------------------------------
 
                    Orbital Energies (a.u.)
 --------------------------------------------------------------
 
 Alpha MOs
 -- Occupied --
-18.943 -18.934 -18.872 -18.868 -18.859 -10.111 -10.104 -10.073
-10.066 -10.061 -10.055 -10.036 -10.033 -10.014 -10.012  -1.042
 -1.033  -0.990  -0.953  -0.945  -0.775  -0.736  -0.726  -0.683
 -0.671  -0.604  -0.551  -0.537  -0.526  -0.488  -0.473  -0.461
 -0.440  -0.428  -0.426  -0.421  -0.415  -0.386  -0.375  -0.365
 -0.353  -0.345  -0.341  -0.326  -0.314  -0.310  -0.301  -0.289
 -0.277  -0.247  -0.240  -0.219  -0.182  -0.172  -0.155  -0.144
 -0.134
 -- Virtual --
  0.113   0.127   0.251   0.273   0.299   0.310   0.345   0.356
  0.375   0.385   0.402   0.409   0.410   0.426   0.432   0.435
  0.443   0.451   0.455   0.460   0.460   0.465   0.475   0.480
  0.491   0.502   0.518   0.541   0.575   0.584   0.702   0.708
 --------------------------------------------------------------
 
          Ground-State Mulliken Net Atomic Charges

     Atom                 Charge (a.u.)
  ----------------------------------------
      1 C                    -0.082971
      2 C                    -0.085571
      3 C                     0.240451
      4 C                     0.242231
      5 O                    -0.189960
      6 O                    -0.229387
      7 O                    -0.191160
      8 O                    -0.229880
      9 C                    -0.125822
     10 C                    -0.130239
     11 C                     0.028296
     12 C                    -0.148142
     13 C                    -0.147404
     14 C                     0.027402
     15 O                    -0.209209
     16 H                     0.089321
     17 H                     0.087279
     18 H                     0.100295
     19 H                     0.102343
     20 H                     0.088273
     21 H                     0.078598
     22 H                     0.072977
     23 H                     0.078897
     24 H                     0.071806
     25 H                     0.097598
     26 H                     0.087949
     27 H                     0.092564
     28 H                     0.092952
     29 H                     0.090514
  ----------------------------------------
  Sum of atomic charges =     0.000000

 -----------------------------------------------------------------
                    Cartesian Multipole Moments
 -----------------------------------------------------------------
    Charge (ESU x 10^10)
                 0.0000
    Dipole Moment (Debye)
         X      -0.4166      Y      -1.4010      Z      -2.3203
       Tot       2.7423
    Quadrupole Moments (Debye-Ang)
        XX     -73.2573     XY       1.4702     YY     -76.5838
        XZ      -0.8786     YZ      -4.0885     ZZ     -84.4320
    Octopole Moments (Debye-Ang^2)
       XXX     -32.0675    XXY       2.6418    XYY     -21.2123
       YYY     -18.0132    XXZ      -1.5320    XYZ       2.6868
       YYZ       0.4941    XZZ      -5.4483    YZZ      -0.5880
       ZZZ       2.8189
    Hexadecapole Moments (Debye-Ang^3)
      XXXX   -1766.3352   XXXY      -9.1296   XXYY    -491.3941
      XYYY      25.6612   YYYY   -1433.0856   XXXZ      29.3497
      XXYZ       1.9950   XYYZ       9.5677   YYYZ     -42.5702
      XXZZ    -358.3887   XYZZ       4.2414   YYZZ    -298.1186
      XZZZ      -2.0840   YZZZ       6.4186   ZZZZ    -270.9550
 -----------------------------------------------------------------
 Calculating analytic gradient of the SCF energy
 Gradient of SCF Energy
            1           2           3           4           5           6
    1   0.0021799  -0.0079730  -0.0035713  -0.0118003  -0.0264753   0.0361920
    2   0.0147913  -0.0097851  -0.0216101   0.0028776   0.0360793  -0.0275161
    3   0.0422889   0.0229121   0.0047460  -0.0042293   0.0358437  -0.0453326
            7           8           9          10          11          12
    1   0.0164333   0.0007554   0.0161062   0.0147445  -0.0138282  -0.0217591
    2   0.0367505  -0.0371405  -0.0106249   0.0095456   0.0058728   0.0198850
    3   0.0447053  -0.0455882  -0.0072183  -0.0088297  -0.0065146   0.0225080
           13          14          15          16          17          18
    1  -0.0241050  -0.0105318   0.0070337  -0.0006561  -0.0000244   0.0002217
    2  -0.0176790  -0.0004173   0.0029261   0.0044461   0.0029786  -0.0041832
    3   0.0175573  -0.0072092  -0.0670699   0.0053539   0.0078343  -0.0111811
           19          20          21          22          23          24
    1   0.0033618   0.0038078  -0.0013620   0.0001313  -0.0031001  -0.0009921
    2  -0.0087182   0.0089398   0.0060041   0.0020688  -0.0049969  -0.0034859
    3  -0.0085645  -0.0049610  -0.0006986   0.0063589  -0.0026417   0.0059499
           25          26          27          28          29
    1   0.0056966   0.0025947   0.0072903  -0.0031770   0.0128064
    2  -0.0092234  -0.0145968   0.0054778   0.0113557  -0.0000218
    3  -0.0076017  -0.0009062   0.0069966  -0.0001980   0.0056898
 Max gradient component =       6.707E-02
 RMS gradient           =       1.788E-02
 Gradient time:  CPU 24.91 s  wall 1.19 s
 Geometry Optimization Parameters
   NAtoms,    NIC,     NZ,  NCons,   NDum,   NFix, NCnnct, MaxDiis
       29     227       0       2       0       0       0       0


** CONSTRAINED OPTIMIZATION IN DELOCALIZED INTERNAL COORDINATES **
   Searching for a Minimum

   Optimization Cycle:   1

                       Coordinates (Angstroms)
     ATOM                X               Y               Z
      1  C         0.3697342729   -0.6344652785   -0.5682185024
      2  C         0.5830892856    0.8866305416   -0.5085431759
      3  C        -0.8699014548   -1.2078766031    0.0919214188
      4  C        -0.5598235439    1.7339384151    0.0021824174
      5  O        -1.0906277378   -2.4603631032   -0.4080500553
      6  O        -1.5566019091   -0.6636803128    0.9403504869
      7  O        -1.6498149946    1.5482939899   -0.8007775971
      8  O        -0.4799332706    2.5718972711    0.8880308806
      9  C        -2.8044492191    2.2858543985   -0.3968092184
     10  C        -2.2289112229   -3.1547881210    0.1108156327
     11  C         1.5897974066   -1.1573410878    0.1940667708
     12  C         2.8778742489   -0.9023938644   -0.5914807846
     13  C         3.0736984138    0.6062805862   -0.4118163796
     14  C         1.8273869003    0.9943712392    0.3874040257
     15  O         1.7087539834   -0.1697627505    1.2404077097
     16  H         0.3688686773   -0.9646705244   -1.6141868320
     17  H         0.8207486346    1.2891342672   -1.5030002060
     18  H        -2.9457124994    2.2580152575    0.6891040690
     19  H        -2.5806906233   -2.7639184006    1.0709042303
     20  H         1.5042519872   -2.1684976679    0.6000401094
     21  H         3.7202931181   -1.4355074158   -0.1367617613
     22  H         2.8052766319   -1.2051355012   -1.6399525713
     23  H         3.9784423183    0.7875324718    0.1780566756
     24  H         3.1670514341    1.1432862684   -1.3598201301
     25  H         1.9410338999    1.9133998678    0.9660893801
     26  H        -2.7227111035    3.3187026777   -0.7489218606
     27  H        -3.6791460159    1.8248750106   -0.8631197561
     28  H        -1.9485029726   -4.2023825341    0.2522304790
     29  H        -3.0343825811   -3.1071758873   -0.6274864507
   Point Group: c1    Number of degrees of freedom:    81


   Energy is   -755.695336358

              Constraints and their Current Values
                                        Value     Constraint
   Dihedral:        2   1   3   5      161.585      157.300
   Dihedral:        1   2   4   7      -59.895      -66.600

 Attempting to Generate Delocalized Internal Coordinates

   Using Lagrange Multiplier Algorithm


 83 Hessian modes will be used to form the next step
  Hessian Eigenvalues:
    -0.977753   -0.977753    0.045000    0.045000    0.045000    0.045000
     0.045004    0.045352    0.045530    0.048627    0.058814    0.061923
     0.065581    0.067904    0.070808    0.072130    0.074343    0.075916
     0.081732    0.083785    0.084157    0.085390    0.086890    0.088227
     0.091114    0.091429    0.097232    0.098159    0.112260    0.112299
     0.113404    0.116979    0.117194    0.120275    0.121575    0.138015
     0.140421    0.160000    0.160000    0.160000    0.160000    0.160000
     0.160000    0.168655    0.174257    0.246664    0.248450    0.249983
     0.250000    0.250000    0.250000    0.250000    0.257040    0.266186
     0.268519    0.290485    0.293737    0.306576    0.311874    0.329392
     0.338114    0.340326    0.341575    0.341941    0.342237    0.342787
     0.342803    0.343231    0.343866    0.343905    0.343937    0.344082
     0.344477    0.344724    0.345856    0.408772    0.412181    0.516485
     0.516574    0.945024    0.955398    1.022753    1.022753

 Minimum Search - Taking P-RFO Step
 Searching for Lamda that Maximizes Along the Constraint modes Only
 Value Taken    Lamda =   0.01117790
 Searching for Lamda that Minimizes Along All other modes
 Value Taken    Lamda =  -0.07236101
 Calculated Step too Large.  Step scaled by  0.697192
 Step Taken.  Stepsize is  0.300000

                             Maximum     Tolerance    Cnvgd?
         Gradient            0.117030       0.000300      NO
         Displacement        0.102019       0.001200      NO
         Energy change     *********       0.000001      NO


 New Cartesian Coordinates Obtained by Inverse Iteration

 Displacement from previous Coordinates is:  0.820739
 Adding empirical dispersion correction 
 ----------------------------------------------------------------
 Doing -D3(op) with
 s6 =   1.00000
 s8 =   0.78311
 a1 =   0.30000
 a2 =   4.25000
 n  =  10.00000
 -D3 energy without 3body term =     -0.0298642527 hartrees
 ----------------------------------------------------------------
             Standard Nuclear Orientation (Angstroms)
    I     Atom           X                Y                Z
 ----------------------------------------------------------------
    1      C       0.4158338050    -0.6704591615    -0.5643946791
    2      C       0.5938839954     0.8771157836    -0.5163313799
    3      C      -0.8649683199    -1.2283733837     0.1085218301
    4      C      -0.6001505100     1.7053848283     0.0278535372
    5      O      -1.1216960221    -2.4967617763    -0.4252475062
    6      O      -1.5663418380    -0.6583177651     0.9613912362
    7      O      -1.6871624035     1.5460233641    -0.8412646931
    8      O      -0.5585795197     2.5320423178     0.9554627278
    9      C      -2.8673059744     2.2879962688    -0.4189021780
   10      C      -2.3143862638    -3.1333246365     0.1140447421
   11      C       1.6744043331    -1.1779188957     0.2135906412
   12      C       2.9698852398    -0.9066322466    -0.6194225423
   13      C       3.1376281737     0.6344967956    -0.4345319922
   14      C       1.8659725735     0.9890788234     0.4075311604
   15      O       1.7738766939    -0.1858751272     1.2925892411
   16      H       0.4180577032    -1.0091558170    -1.6136956012
   17      H       0.8307991741     1.2951927588    -1.5105167417
   18      H      -3.0327419129     2.2144304873     0.6713715944
   19      H      -2.6265584367    -2.6938820769     1.0787199420
   20      H       1.5994516973    -2.1964855975     0.6279514448
   21      H       3.8268395288    -1.4373029855    -0.1800898708
   22      H       2.8827699566    -1.2131823949    -1.6718519255
   23      H       4.0480051633     0.8448484996     0.1449015518
   24      H       3.2017912676     1.1834882249    -1.3852061912
   25      H       1.9465527941     1.9160724435     0.9976816985
   26      H      -2.7898112628     3.3527825696    -0.7081001389
   27      H      -3.7355846771     1.8449645897    -0.9351391293
   28      H      -2.0913316060    -4.2036831199     0.2672815529
   29      H      -3.1440412884    -3.0483095610    -0.6115393264
 ----------------------------------------------------------------
 Molecular Point Group                 C1    NOp =  1
 Largest Abelian Subgroup              C1    NOp =  1
 Nuclear Repulsion Energy =  1091.9743368551 hartrees
 There are       57 alpha and       57 beta electrons
 Applying Cartesian multipole field
    Component          Value
    ---------          -----
     (2,0,0)        1.00000E-11
     (0,2,0)        2.00000E-11
     (0,0,2)       -3.00000E-11
 Nucleus-field energy     =     0.0000000333 hartrees
 Requested basis set is STO-3G
 There are 44 shells and 89 basis functions
 A cutoff of  1.0D-12 yielded    864 shell pairs
 There are      3900 function pairs
 Smallest overlap matrix eigenvalue = 2.07E-01
 Guess MOs from SCF MO coefficient file
 Reading MOs from coefficient file
 Reading MOs from coefficient file
 A restricted hybrid HF-DFT SCF calculation will be
 performed using Pulay DIIS extrapolation
 Exchange:     0.2000 Hartree-Fock + 0.0800 Slater + 0.7200 B88
 Correlation:  0.1900 VWN1RPA + 0.8100 LYP
 Using SG-1 standard quadrature grid
 Dispersion:   Grimme D3
 SCF converges when DIIS error is below 1.0E-08
 Geometry optimization detected.  Setting ReadMinima to 0
 Setting SaveMinima to 0
 -------------------------------------------------------
 OpenMP Integral computing Module                
 Release: version 1.0, May 2013, Q-Chem Inc. Pittsburgh 
 -------------------------------------------------------
 -------------------------------------------------------
 OpenMP BLAS3 based DFT computing Module                
 Release: version 1.0, May 2013, Q-Chem Inc. Pittsburgh 
 -------------------------------------------------------
 ---------------------------------------
  Cycle       Energy         DIIS Error
 ---------------------------------------
    1    -755.5674331429      5.77E-03
    2    -755.7197486770      2.05E-03
    3    -755.7137677089      3.12E-03
    4    -755.7240827029      6.58E-04
    5    -755.7245940627      1.07E-04
    6    -755.7246081573      2.29E-05
    7    -755.7246083653      2.03E-05
    8    -755.7246088140      4.86E-06
    9    -755.7246088433      8.57E-07
   10    -755.7246088441      3.48E-07
   11    -755.7246088443      5.29E-08
   12    -755.7246088443      2.17E-08
   13    -755.7246088443      3.92E-09 Convergence criterion met
 ---------------------------------------
 SCF time:  CPU 52.23 s  wall 2.20 s
 SCF   energy in the final basis set = -755.7246088443
 Total energy in the final basis set = -755.7246088443
 
 --------------------------------------------------------------
 
                    Orbital Energies (a.u.)
 --------------------------------------------------------------
 
 Alpha MOs
 -- Occupied --
-18.941 -18.929 -18.879 -18.873 -18.861 -10.105 -10.097 -10.068
-10.062 -10.060 -10.053 -10.038 -10.034 -10.017 -10.015  -1.025
 -1.013  -0.974  -0.943  -0.933  -0.765  -0.726  -0.711  -0.672
 -0.662  -0.597  -0.546  -0.536  -0.516  -0.480  -0.462  -0.453
 -0.432  -0.418  -0.418  -0.412  -0.407  -0.380  -0.367  -0.357
 -0.349  -0.340  -0.334  -0.322  -0.308  -0.305  -0.299  -0.283
 -0.273  -0.249  -0.241  -0.227  -0.180  -0.169  -0.156  -0.144
 -0.138
 -- Virtual --
  0.102   0.118   0.240   0.261   0.278   0.293   0.325   0.343
  0.356   0.362   0.381   0.383   0.395   0.415   0.420   0.422
  0.426   0.432   0.435   0.443   0.445   0.448   0.450   0.453
  0.465   0.476   0.501   0.518   0.554   0.562   0.664   0.667
 --------------------------------------------------------------
 
          Ground-State Mulliken Net Atomic Charges

     Atom                 Charge (a.u.)
  ----------------------------------------
      1 C                    -0.078930
      2 C                    -0.081338
      3 C                     0.224222
      4 C                     0.225583
      5 O                    -0.179260
      6 O                    -0.217677
      7 O                    -0.182746
      8 O                    -0.219729
      9 C                    -0.124704
     10 C                    -0.128921
     11 C                     0.025876
     12 C                    -0.145596
     13 C                    -0.144929
     14 C                     0.025009
     15 O                    -0.196265
     16 H                     0.087705
     17 H                     0.085479
     18 H                     0.097251
     19 H                     0.100146
     20 H                     0.085092
     21 H                     0.077548
     22 H                     0.073115
     23 H                     0.077683
     24 H                     0.071577
     25 H                     0.092596
     26 H                     0.084949
     27 H                     0.089244
     28 H                     0.089785
     29 H                     0.087236
  ----------------------------------------
  Sum of atomic charges =    -0.000000

 -----------------------------------------------------------------
                    Cartesian Multipole Moments
 -----------------------------------------------------------------
    Charge (ESU x 10^10)
                 0.0000
    Dipole Moment (Debye)
         X      -0.2984      Y      -1.3302      Z      -2.3030
       Tot       2.6762
    Quadrupole Moments (Debye-Ang)
        XX     -72.6774     XY       1.5277     YY     -76.6852
        XZ      -1.1740     YZ      -4.0279     ZZ     -84.6206
    Octopole Moments (Debye-Ang^2)
       XXX     -33.4765    XXY       2.7257    XYY     -20.8879
       YYY     -13.3307    XXZ      -2.7996    XYZ       3.1330
       YYZ       0.6245    XZZ      -5.3796    YZZ      -0.3910
       ZZZ       1.4727
    Hexadecapole Moments (Debye-Ang^3)
      XXXX   -1853.4162   XXXY      -6.1395   XXYY    -503.0931
      XYYY      28.0817   YYYY   -1427.0312   XXXZ      28.2055
      XXYZ       1.4442   XYYZ       9.6180   YYYZ     -41.9211
      XXZZ    -377.6763   XYZZ       5.6928   YYZZ    -301.4081
      XZZZ      -2.3554   YZZZ       5.7753   ZZZZ    -285.9337
 -----------------------------------------------------------------
 Calculating analytic gradient of the SCF energy
 Gradient of SCF Energy
            1           2           3           4           5           6
    1   0.0045822  -0.0091772   0.0031640  -0.0091759  -0.0135225   0.0091495
    2   0.0123419  -0.0066274  -0.0182972  -0.0090154   0.0164170  -0.0068539
    3   0.0243347  -0.0016635  -0.0018729  -0.0065801   0.0166095  -0.0128295
            7           8           9          10          11          12
    1   0.0077732   0.0021723   0.0083614   0.0105554  -0.0078136  -0.0072852
    2   0.0187668  -0.0057899  -0.0058574   0.0058496  -0.0016718   0.0049053
    3   0.0216743  -0.0145958  -0.0053775  -0.0072343  -0.0043487   0.0069131
           13          14          15          16          17          18
    1  -0.0071039  -0.0065842   0.0037871  -0.0004191   0.0014562  -0.0009728
    2  -0.0061704   0.0020842  -0.0014994   0.0040499   0.0043107  -0.0017063
    3   0.0064293  -0.0025656  -0.0205631   0.0008608   0.0033789  -0.0032138
           19          20          21          22          23          24
    1   0.0002280   0.0024546  -0.0001159   0.0019904  -0.0006962   0.0013409
    2  -0.0042114   0.0035475   0.0026660  -0.0000862  -0.0026386  -0.0006754
    3  -0.0015341  -0.0007674  -0.0006857   0.0018668  -0.0014387   0.0019244
           25          26          27          28          29
    1   0.0032400   0.0000392   0.0008186  -0.0015428   0.0032962
    2  -0.0035775  -0.0039735   0.0019644   0.0027615  -0.0010130
    3  -0.0023020  -0.0013794   0.0030112   0.0006913   0.0012576
 Max gradient component =       2.433E-02
 RMS gradient           =       7.574E-03
 Gradient time:  CPU 13.76 s  wall 0.58 s
 Geometry Optimization Parameters
   NAtoms,    NIC,     NZ,  NCons,   NDum,   NFix, NCnnct, MaxDiis
       29     227       0       2       0       0       0       0

 Cartesian Hessian Update
 Hessian Updated using BFGS Update


** CONSTRAINED OPTIMIZATION IN DELOCALIZED INTERNAL COORDINATES **
   Searching for a Minimum

   Optimization Cycle:   2

                       Coordinates (Angstroms)
     ATOM                X               Y               Z
      1  C         0.4158338050   -0.6704591615   -0.5643946791
      2  C         0.5938839954    0.8771157836   -0.5163313799
      3  C        -0.8649683199   -1.2283733837    0.1085218301
      4  C        -0.6001505100    1.7053848283    0.0278535372
      5  O        -1.1216960221   -2.4967617763   -0.4252475062
      6  O        -1.5663418380   -0.6583177651    0.9613912362
      7  O        -1.6871624035    1.5460233641   -0.8412646931
      8  O        -0.5585795197    2.5320423178    0.9554627278
      9  C        -2.8673059744    2.2879962688   -0.4189021780
     10  C        -2.3143862638   -3.1333246365    0.1140447421
     11  C         1.6744043331   -1.1779188957    0.2135906412
     12  C         2.9698852398   -0.9066322466   -0.6194225423
     13  C         3.1376281737    0.6344967956   -0.4345319922
     14  C         1.8659725735    0.9890788234    0.4075311604
     15  O         1.7738766939   -0.1858751272    1.2925892411
     16  H         0.4180577032   -1.0091558170   -1.6136956012
     17  H         0.8307991741    1.2951927588   -1.5105167417
     18  H        -3.0327419129    2.2144304873    0.6713715944
     19  H        -2.6265584367   -2.6938820769    1.0787199420
     20  H         1.5994516973   -2.1964855975    0.6279514448
     21  H         3.8268395288   -1.4373029855   -0.1800898708
     22  H         2.8827699566   -1.2131823949   -1.6718519255
     23  H         4.0480051633    0.8448484996    0.1449015518
     24  H         3.2017912676    1.1834882249   -1.3852061912
     25  H         1.9465527941    1.9160724435    0.9976816985
     26  H        -2.7898112628    3.3527825696   -0.7081001389
     27  H        -3.7355846771    1.8449645897   -0.9351391293
     28  H        -2.0913316060   -4.2036831199    0.2672815529
     29  H        -3.1440412884   -3.0483095610   -0.6115393264
   Point Group: c1    Number of degrees of freedom:    81


   Energy is   -755.724608844

              Constraints and their Current Values
                                        Value     Constraint
   Dihedral:        2   1   3   5      158.707      157.300
   Dihedral:        1   2   4   7      -64.399      -66.600
 Hessian Updated using BFGS Update

   Using Lagrange Multiplier Algorithm


 75 Hessian modes will be used to form the next step
  Hessian Eigenvalues:
    -0.977837   -0.977434    0.044941    0.045000    0.045004    0.045162
     0.045529    0.048625    0.058812    0.061688    0.065560    0.067809
     0.070828    0.072132    0.074321    0.075877    0.081728    0.083628
     0.084081    0.085442    0.086756    0.088223    0.091034    0.091427
     0.097089    0.098162    0.112177    0.112491    0.113343    0.116981
     0.117196    0.121037    0.122919    0.137405    0.140688    0.159126
     0.161057    0.166735    0.174273    0.240018    0.247173    0.248567
     0.249983    0.250242    0.257317    0.267183    0.268615    0.291841
     0.299040    0.308662    0.320795    0.329540    0.338124    0.340342
     0.341560    0.341941    0.342224    0.342747    0.343155    0.343716
     0.343868    0.343923    0.344073    0.344421    0.344666    0.345781
     0.382426    0.406540    0.416654    0.504581    0.516557    0.949210
     0.972232    1.022698    1.023570

 Minimum Search - Taking P-RFO Step
 Searching for Lamda that Maximizes Along the Constraint modes Only
 Value Taken    Lamda =   0.00092348
 Searching for Lamda that Minimizes Along All other modes
 Value Taken    Lamda =  -0.01463094
 Step Taken.  Stepsize is  0.287629

                             Maximum     Tolerance    Cnvgd?
         Gradient            0.038409       0.000300      NO
         Displacement        0.090381       0.001200      NO
         Energy change     -0.029272       0.000001      NO


 New Cartesian Coordinates Obtained by Inverse Iteration

 Displacement from previous Coordinates is:  1.188379
 Adding empirical dispersion correction 
 ----------------------------------------------------------------
 Doing -D3(op) with
 s6 =   1.00000
 s8 =   0.78311
 a1 =   0.30000
 a2 =   4.25000
 n  =  10.00000
 -D3 energy without 3body term =     -0.0301004933 hartrees
 ----------------------------------------------------------------
             Standard Nuclear Orientation (Angstroms)
    I     Atom           X                Y                Z
 ----------------------------------------------------------------
    1      C       0.4707377648    -0.7106088809    -0.5913284309
    2      C       0.6285925187     0.8532504090    -0.5376582969
    3      C      -0.8555730196    -1.2108671794     0.0707194947
    4      C      -0.6130882646     1.6283540620     0.0296149066
    5      O      -1.1676750312    -2.4918122981    -0.4690148795
    6      O      -1.5568516582    -0.5969164634     0.9073704827
    7      O      -1.6885136267     1.4619586419    -0.8935488848
    8      O      -0.6388795199     2.3965727981     1.0171748564
    9      C      -2.8876617513     2.1625812193    -0.3972731065
   10      C      -2.4227499836    -3.0025699050     0.1166986085
   11      C       1.7411404489    -1.1793913983     0.2305547680
   12      C       3.0389213890    -0.8871704149    -0.6190941013
   13      C       3.1754996561     0.6746550807    -0.4459848546
   14      C       1.8923115693     0.9966072093     0.4129680809
   15      O       1.8078903777    -0.1730006316     1.3191454610
   16      H       0.4903538547    -1.0785094777    -1.6337931961
   17      H       0.8678125755     1.2696446281    -1.5330688896
   18      H      -3.0283050714     2.0138262794     0.6926347029
   19      H      -2.6630283061    -2.4725208279     1.0607622235
   20      H       1.6658489764    -2.1993424929     0.6566772420
   21      H       3.9060566886    -1.4086154929    -0.1819992077
   22      H       2.9362591022    -1.2033656171    -1.6699951480
   23      H       4.0825093665     0.9264573528     0.1277923202
   24      H       3.2060828806     1.2205270513    -1.4030479937
   25      H       1.9245620619     1.9345558664     1.0019761468
   26      H      -2.8298981678     3.2526737545    -0.6014103764
   27      H      -3.7479930791     1.7344759878    -0.9460890689
   28      H      -2.2901788909    -4.0848992166     0.3109889711
   29      H      -3.2590907966    -2.8622968339    -0.5991128260
 ----------------------------------------------------------------
 Molecular Point Group                 C1    NOp =  1
 Largest Abelian Subgroup              C1    NOp =  1
 Nuclear Repulsion Energy =  1090.2816087813 hartrees
 There are       57 alpha and       57 beta electrons
 Applying Cartesian multipole field
    Component          Value
    ---------          -----
     (2,0,0)        1.00000E-11
     (0,2,0)        2.00000E-11
     (0,0,2)       -3.00000E-11
 Nucleus-field energy     =     0.0000000321 hartrees
 Requested basis set is STO-3G
 There are 44 shells and 89 basis functions
 A cutoff of  1.0D-12 yielded    863 shell pairs
 There are      3896 function pairs
 Smallest overlap matrix eigenvalue = 2.13E-01
 Guess MOs from SCF MO coefficient file
 Reading MOs from coefficient file
 Reading MOs from coefficient file
 A restricted hybrid HF-DFT SCF calculation will be
 performed using Pulay DIIS extrapolation
 Exchange:     0.2000 Hartree-Fock + 0.0800 Slater + 0.7200 B88
 Correlation:  0.1900 VWN1RPA + 0.8100 LYP
 Using SG-1 standard quadrature grid
 Dispersion:   Grimme D3
 SCF converges when DIIS error is below 1.0E-08
 Geometry optimization detected.  Setting ReadMinima to 0
 Setting SaveMinima to 0
 -------------------------------------------------------
 OpenMP Integral computing Module                
 Release: version 1.0, May 2013, Q-Chem Inc. Pittsburgh 
 -------------------------------------------------------
 -------------------------------------------------------
 OpenMP BLAS3 based DFT computing Module                
 Release: version 1.0, May 2013, Q-Chem Inc. Pittsburgh 
 -------------------------------------------------------
 ---------------------------------------
  Cycle       Energy         DIIS Error
 ---------------------------------------
    1    -755.6251442869      5.55E-03
    2    -755.7291990345      1.45E-03
    3    -755.7242195029      2.60E-03
    4    -755.7314636238      4.54E-04
    5    -755.7317012227      1.14E-04
    6    -755.7317165998      2.73E-05
    7    -755.7317168654      2.45E-05
    8    -755.7317175331      4.99E-06
    9    -755.7317175646      7.82E-07
   10    -755.7317175653      3.95E-07
   11    -755.7317175655      5.07E-08
   12    -755.7317175655      2.19E-08
   13    -755.7317175655      5.82E-09 Convergence criterion met
 ---------------------------------------
 SCF time:  CPU 52.37 s  wall 2.21 s
 SCF   energy in the final basis set = -755.7317175655
 Total energy in the final basis set = -755.7317175655
 
 --------------------------------------------------------------
 
                    Orbital Energies (a.u.)
 --------------------------------------------------------------
 
 Alpha MOs
 -- Occupied --
-18.941 -18.923 -18.883 -18.880 -18.862 -10.103 -10.091 -10.063
-10.061 -10.056 -10.053 -10.038 -10.032 -10.020 -10.017  -1.017
 -1.001  -0.967  -0.940  -0.926  -0.762  -0.722  -0.705  -0.666
 -0.654  -0.593  -0.545  -0.535  -0.509  -0.475  -0.456  -0.451
 -0.430  -0.415  -0.414  -0.405  -0.403  -0.376  -0.361  -0.353
 -0.346  -0.339  -0.330  -0.323  -0.310  -0.301  -0.297  -0.279
 -0.272  -0.253  -0.245  -0.231  -0.180  -0.166  -0.159  -0.144
 -0.141
 -- Virtual --
  0.094   0.116   0.237   0.256   0.273   0.285   0.313   0.332
  0.344   0.348   0.363   0.373   0.387   0.406   0.415   0.418
  0.420   0.428   0.430   0.433   0.435   0.440   0.442   0.443
  0.452   0.468   0.490   0.510   0.545   0.552   0.645   0.652
 --------------------------------------------------------------
 
          Ground-State Mulliken Net Atomic Charges

     Atom                 Charge (a.u.)
  ----------------------------------------
      1 C                    -0.077730
      2 C                    -0.080817
      3 C                     0.216790
      4 C                     0.217097
      5 O                    -0.169834
      6 O                    -0.210542
      7 O                    -0.177586
      8 O                    -0.215256
      9 C                    -0.127316
     10 C                    -0.132647
     11 C                     0.024705
     12 C                    -0.143749
     13 C                    -0.143511
     14 C                     0.024226
     15 O                    -0.189740
     16 H                     0.087302
     17 H                     0.083886
     18 H                     0.096720
     19 H                     0.101004
     20 H                     0.083330
     21 H                     0.077781
     22 H                     0.073580
     23 H                     0.077105
     24 H                     0.072286
     25 H                     0.090601
     26 H                     0.082677
     27 H                     0.086046
     28 H                     0.088065
     29 H                     0.085527
  ----------------------------------------
  Sum of atomic charges =     0.000000

 -----------------------------------------------------------------
                    Cartesian Multipole Moments
 -----------------------------------------------------------------
    Charge (ESU x 10^10)
                -0.0000
    Dipole Moment (Debye)
         X      -0.1060      Y      -1.2835      Z      -2.2038
       Tot       2.5526
    Quadrupole Moments (Debye-Ang)
        XX     -72.5537     XY       1.8365     YY     -77.2774
        XZ      -1.5374     YZ      -3.8433     ZZ     -84.7317
    Octopole Moments (Debye-Ang^2)
       XXX     -34.0194    XXY       1.8188    XYY     -17.9554
       YYY      -6.0283    XXZ      -2.2835    XYZ       3.3875
       YYZ       2.2917    XZZ      -5.3234    YZZ      -0.2659
       ZZZ       2.7270
    Hexadecapole Moments (Debye-Ang^3)
      XXXX   -1923.9728   XXXY      -9.9494   XXYY    -504.4379
      XYYY      17.0174   YYYY   -1340.3839   XXXZ      27.6970
      XXYZ      -0.6279   XYYZ       8.4808   YYYZ     -42.6010
      XXZZ    -391.6066   XYZZ       3.2843   YYZZ    -288.0559
      XZZZ      -2.7751   YZZZ      -0.3466   ZZZZ    -293.9179
 -----------------------------------------------------------------
 Calculating analytic gradient of the SCF energy
 Gradient of SCF Energy
            1           2           3           4           5           6
    1   0.0033418  -0.0055604  -0.0004339  -0.0056780  -0.0015825  -0.0015779
    2   0.0038970  -0.0047659  -0.0072293  -0.0074246   0.0019213   0.0015844
    3   0.0087778  -0.0070872   0.0013745  -0.0017640  -0.0003197  -0.0013646
            7           8           9          10          11          12
    1   0.0026543   0.0008549   0.0043780   0.0047262  -0.0009153  -0.0022396
    2   0.0024507   0.0046520  -0.0013519   0.0044439  -0.0028495  -0.0004360
    3   0.0021592   0.0008017   0.0002068  -0.0019619  -0.0050493  -0.0000711
           13          14          15          16          17          18
    1  -0.0025357  -0.0017187   0.0023596  -0.0010489   0.0030575  -0.0003627
    2   0.0003947   0.0013459   0.0011130   0.0015952   0.0018468   0.0001942
    3  -0.0008587   0.0006322   0.0001597  -0.0013414   0.0012969   0.0005543
           19          20          21          22          23          24
    1  -0.0006758  -0.0003157   0.0005385   0.0009558  -0.0000106   0.0014356
    2  -0.0006801   0.0001575   0.0004641  -0.0009463  -0.0000703   0.0006429
    3   0.0009930   0.0012899   0.0002560   0.0000012   0.0006340  -0.0000519
           25          26          27          28          29
    1   0.0009579  -0.0000017  -0.0001741  -0.0000416  -0.0003872
    2   0.0000921   0.0002489  -0.0006560  -0.0005266  -0.0001079
    3   0.0010189  -0.0004559  -0.0000393   0.0004812  -0.0002727
 Max gradient component =       8.778E-03
 RMS gradient           =       2.548E-03
 Gradient time:  CPU 14.22 s  wall 0.60 s
 Geometry Optimization Parameters
   NAtoms,    NIC,     NZ,  NCons,   NDum,   NFix, NCnnct, MaxDiis
       29     227       0       2       0       0       0       0

 Cartesian Hessian Update
 Hessian Updated using BFGS Update


** CONSTRAINED OPTIMIZATION IN DELOCALIZED INTERNAL COORDINATES **
   Searching for a Minimum

   Optimization Cycle:   3

                       Coordinates (Angstroms)
     ATOM                X               Y               Z
      1  C         0.4707377648   -0.7106088809   -0.5913284309
      2  C         0.6285925187    0.8532504090   -0.5376582969
      3  C        -0.8555730196   -1.2108671794    0.0707194947
      4  C        -0.6130882646    1.6283540620    0.0296149066
      5  O        -1.1676750312   -2.4918122981   -0.4690148795
      6  O        -1.5568516582   -0.5969164634    0.9073704827
      7  O        -1.6885136267    1.4619586419   -0.8935488848
      8  O        -0.6388795199    2.3965727981    1.0171748564
      9  C        -2.8876617513    2.1625812193   -0.3972731065
     10  C        -2.4227499836   -3.0025699050    0.1166986085
     11  C         1.7411404489   -1.1793913983    0.2305547680
     12  C         3.0389213890   -0.8871704149   -0.6190941013
     13  C         3.1754996561    0.6746550807   -0.4459848546
     14  C         1.8923115693    0.9966072093    0.4129680809
     15  O         1.8078903777   -0.1730006316    1.3191454610
     16  H         0.4903538547   -1.0785094777   -1.6337931961
     17  H         0.8678125755    1.2696446281   -1.5330688896
     18  H        -3.0283050714    2.0138262794    0.6926347029
     19  H        -2.6630283061   -2.4725208279    1.0607622235
     20  H         1.6658489764   -2.1993424929    0.6566772420
     21  H         3.9060566886   -1.4086154929   -0.1819992077
     22  H         2.9362591022   -1.2033656171   -1.6699951480
     23  H         4.0825093665    0.9264573528    0.1277923202
     24  H         3.2060828806    1.2205270513   -1.4030479937
     25  H         1.9245620619    1.9345558664    1.0019761468
     26  H        -2.8298981678    3.2526737545   -0.6014103764
     27  H        -3.7479930791    1.7344759878   -0.9460890689
     28  H        -2.2901788909   -4.0848992166    0.3109889711
     29  H        -3.2590907966   -2.8622968339   -0.5991128260
   Point Group: c1    Number of degrees of freedom:    81


   Energy is   -755.731717565

              Constraints and their Current Values
                                        Value     Constraint
   Dihedral:        2   1   3   5      157.310      157.300
   Dihedral:        1   2   4   7      -66.582      -66.600
 Hessian Updated using BFGS Update

   Using Lagrange Multiplier Algorithm


 78 Hessian modes will be used to form the next step
  Hessian Eigenvalues:
    -0.977684   -0.975499    0.042190    0.045000    0.045001    0.045011
     0.045286    0.045576    0.048636    0.058836    0.060377    0.065446
     0.066645    0.070790    0.072100    0.074238    0.075795    0.081734
     0.083471    0.084068    0.085259    0.087078    0.088233    0.091249
     0.091424    0.096456    0.098169    0.111999    0.112658    0.113326
     0.116985    0.117200    0.121578    0.122895    0.139199    0.141184
     0.158382    0.160416    0.161056    0.171023    0.176009    0.243912
     0.247905    0.249310    0.249985    0.250149    0.254622    0.266443
     0.268531    0.274399    0.292238    0.299033    0.308716    0.320070
     0.331651    0.338063    0.340373    0.341561    0.341662    0.342296
     0.342417    0.343078    0.343537    0.343869    0.343920    0.344074
     0.344402    0.344783    0.345992    0.389369    0.392599    0.413442
     0.483834    0.516946    0.950044    0.983894    1.022908    1.034361

 Minimum Search - Taking P-RFO Step
 Searching for Lamda that Maximizes Along the Constraint modes Only
 Value Taken    Lamda =   0.00006060
 Searching for Lamda that Minimizes Along All other modes
 Value Taken    Lamda =  -0.00164323
 Step Taken.  Stepsize is  0.154104

                             Maximum     Tolerance    Cnvgd?
         Gradient            0.010272       0.000300      NO
         Displacement        0.049840       0.001200      NO
         Energy change     -0.007109       0.000001      NO


 New Cartesian Coordinates Obtained by Inverse Iteration

 Displacement from previous Coordinates is:  0.267127
 Adding empirical dispersion correction 
 ----------------------------------------------------------------
 Doing -D3(op) with
 s6 =   1.00000
 s8 =   0.78311
 a1 =   0.30000
 a2 =   4.25000
 n  =  10.00000
 -D3 energy without 3body term =     -0.0301527105 hartrees
 ----------------------------------------------------------------
             Standard Nuclear Orientation (Angstroms)
    I     Atom           X                Y                Z
 ----------------------------------------------------------------
    1      C       0.4794317879    -0.7095623544    -0.6091142293
    2      C       0.6429382929     0.8625891715    -0.5425030248
    3      C      -0.8473253120    -1.2001147154     0.0629209220
    4      C      -0.6062904470     1.6345385828     0.0255242360
    5      O      -1.1885700732    -2.4824281260    -0.4765818020
    6      O      -1.5213996270    -0.5904399593     0.9254145187
    7      O      -1.6865339054     1.4781215838    -0.9095523665
    8      O      -0.6503965824     2.3609038604     1.0419346673
    9      C      -2.9078939500     2.1499556739    -0.4063780505
   10      C      -2.4432689467    -2.9950578248     0.1294398280
   11      C       1.7476392922    -1.1762638172     0.2282017671
   12      C       3.0523884686    -0.8860604525    -0.6161604142
   13      C       3.1938124220     0.6737827129    -0.4397916086
   14      C       1.9043817922     0.9958952962     0.4133307342
   15      O       1.8017760423    -0.1734083126     1.3199375810
   16      H       0.5040798153    -1.0839429119    -1.6481150679
   17      H       0.8726779940     1.2746926279    -1.5415906578
   18      H      -3.0569362133     1.9602769654     0.6753088193
   19      H      -2.6569862857    -2.4586701425     1.0752812078
   20      H       1.6664758437    -2.1989541040     0.6463304448
   21      H       3.9145927349    -1.4167915484    -0.1811667852
   22      H       2.9433394750    -1.1943021574    -1.6686513289
   23      H       4.1016276862     0.9259922808     0.1320805829
   24      H       3.2178307859     1.2183011141    -1.3972114295
   25      H       1.9270335420     1.9349867034     0.9999434439
   26      H      -2.8599966243     3.2474530881    -0.5677746875
   27      H      -3.7559435442     1.7340261671    -0.9821566062
   28      H      -2.3133910963    -4.0785209335     0.3146257002
   29      H      -3.2900013033    -2.8427452587    -0.5708673897
 ----------------------------------------------------------------
 Molecular Point Group                 C1    NOp =  1
 Largest Abelian Subgroup              C1    NOp =  1
 Nuclear Repulsion Energy =  1088.5553066638 hartrees
 There are       57 alpha and       57 beta electrons
 Applying Cartesian multipole field
    Component          Value
    ---------          -----
     (2,0,0)        1.00000E-11
     (0,2,0)        2.00000E-11
     (0,0,2)       -3.00000E-11
 Nucleus-field energy     =     0.0000000319 hartrees
 Requested basis set is STO-3G
 There are 44 shells and 89 basis functions
 A cutoff of  1.0D-12 yielded    862 shell pairs
 There are      3895 function pairs
 Smallest overlap matrix eigenvalue = 2.14E-01
 Guess MOs from SCF MO coefficient file
 Reading MOs from coefficient file
 Reading MOs from coefficient file
 A restricted hybrid HF-DFT SCF calculation will be
 performed using Pulay DIIS extrapolation
 Exchange:     0.2000 Hartree-Fock + 0.0800 Slater + 0.7200 B88
 Correlation:  0.1900 VWN1RPA + 0.8100 LYP
 Using SG-1 standard quadrature grid
 Dispersion:   Grimme D3
 SCF converges when DIIS error is below 1.0E-08
 Geometry optimization detected.  Setting ReadMinima to 0
 Setting SaveMinima to 0
 -------------------------------------------------------
 OpenMP Integral computing Module                
 Release: version 1.0, May 2013, Q-Chem Inc. Pittsburgh 
 -------------------------------------------------------
 -------------------------------------------------------
 OpenMP BLAS3 based DFT computing Module                
 Release: version 1.0, May 2013, Q-Chem Inc. Pittsburgh 
 -------------------------------------------------------
 ---------------------------------------
  Cycle       Energy         DIIS Error
 ---------------------------------------
    1    -755.7151759749      2.37E-03
    2    -755.7323398812      4.35E-04
    3    -755.7315107595      9.71E-04
    4    -755.7325728535      7.08E-05
    5    -755.7325782525      3.12E-05
    6    -755.7325791286      1.56E-05
    7    -755.7325793486      7.31E-06
    8    -755.7325794110      1.01E-06
    9    -755.7325794123      2.09E-07
   10    -755.7325794123      7.28E-08
   11    -755.7325794123      2.39E-08
   12    -755.7325794123      6.06E-09 Convergence criterion met
 ---------------------------------------
 SCF time:  CPU 50.12 s  wall 2.11 s
 SCF   energy in the final basis set = -755.7325794123
 Total energy in the final basis set = -755.7325794123
 
 --------------------------------------------------------------
 
                    Orbital Energies (a.u.)
 --------------------------------------------------------------
 
 Alpha MOs
 -- Occupied --
-18.937 -18.920 -18.885 -18.879 -18.864 -10.102 -10.091 -10.062
-10.061 -10.055 -10.054 -10.039 -10.033 -10.020 -10.018  -1.013
 -0.997  -0.967  -0.938  -0.925  -0.761  -0.721  -0.705  -0.665
 -0.653  -0.593  -0.544  -0.536  -0.508  -0.473  -0.454  -0.450
 -0.430  -0.414  -0.412  -0.404  -0.401  -0.375  -0.361  -0.352
 -0.345  -0.339  -0.330  -0.323  -0.310  -0.302  -0.296  -0.278
 -0.272  -0.251  -0.244  -0.233  -0.178  -0.165  -0.158  -0.144
 -0.142
 -- Virtual --
  0.094   0.116   0.233   0.252   0.268   0.284   0.312   0.330
  0.342   0.346   0.359   0.372   0.385   0.404   0.412   0.419
  0.421   0.426   0.429   0.432   0.436   0.439   0.442   0.443
  0.451   0.467   0.488   0.508   0.543   0.551   0.643   0.652
 --------------------------------------------------------------
 
          Ground-State Mulliken Net Atomic Charges

     Atom                 Charge (a.u.)
  ----------------------------------------
      1 C                    -0.077377
      2 C                    -0.080178
      3 C                     0.214504
      4 C                     0.215290
      5 O                    -0.169724
      6 O                    -0.210040
      7 O                    -0.177259
      8 O                    -0.213362
      9 C                    -0.129010
     10 C                    -0.134058
     11 C                     0.024835
     12 C                    -0.143780
     13 C                    -0.143514
     14 C                     0.024114
     15 O                    -0.188218
     16 H                     0.087467
     17 H                     0.083561
     18 H                     0.096341
     19 H                     0.100866
     20 H                     0.083117
     21 H                     0.078050
     22 H                     0.073837
     23 H                     0.077719
     24 H                     0.072979
     25 H                     0.090557
     26 H                     0.082658
     27 H                     0.086423
     28 H                     0.088618
     29 H                     0.085582
  ----------------------------------------
  Sum of atomic charges =    -0.000000

 -----------------------------------------------------------------
                    Cartesian Multipole Moments
 -----------------------------------------------------------------
    Charge (ESU x 10^10)
                -0.0000
    Dipole Moment (Debye)
         X      -0.0506      Y      -1.2387      Z      -2.2140
       Tot       2.5374
    Quadrupole Moments (Debye-Ang)
        XX     -72.1969     XY       1.8369     YY     -77.1601
        XZ      -1.5528     YZ      -3.8114     ZZ     -84.9120
    Octopole Moments (Debye-Ang^2)
       XXX     -35.0782    XXY       1.6811    XYY     -17.9879
       YYY      -5.5366    XXZ      -2.2082    XYZ       3.5563
       YYZ       2.6937    XZZ      -5.2213    YZZ      -0.5282
       ZZZ       2.5949
    Hexadecapole Moments (Debye-Ang^3)
      XXXX   -1934.9849   XXXY     -10.5029   XXYY    -505.0962
      XYYY      16.2983   YYYY   -1327.1545   XXXZ      28.2867
      XXYZ      -0.9169   XYYZ       7.9934   YYYZ     -40.4243
      XXZZ    -395.1305   XYZZ       3.1889   YYZZ    -288.0073
      XZZZ      -2.6920   YZZZ       0.4041   ZZZZ    -298.3310
 -----------------------------------------------------------------
 Calculating analytic gradient of the SCF energy
 Gradient of SCF Energy
            1           2           3           4           5           6
    1   0.0022628  -0.0018754   0.0025981   0.0003025  -0.0007503  -0.0015036
    2   0.0004650  -0.0008637  -0.0012923  -0.0031687   0.0004539   0.0018287
    3   0.0029014  -0.0034186   0.0005160  -0.0003522  -0.0007935   0.0002600
            7           8           9          10          11          12
    1   0.0003739   0.0003395  -0.0021044  -0.0009981   0.0006398  -0.0002697
    2   0.0009008   0.0023926  -0.0003112  -0.0018691  -0.0016575  -0.0002095
    3  -0.0001633   0.0011332  -0.0004111  -0.0000409  -0.0027001  -0.0006932
           13          14          15          16          17          18
    1  -0.0001854   0.0000369   0.0008992  -0.0008929   0.0014901   0.0002115
    2   0.0006810   0.0000390   0.0007107   0.0007540   0.0008031   0.0004171
    3  -0.0014123   0.0006955   0.0024856  -0.0004671   0.0009359   0.0000047
           19          20          21          22          23          24
    1   0.0001722  -0.0006037   0.0002460   0.0003211   0.0001372   0.0007287
    2   0.0001391   0.0001219   0.0002887  -0.0005036  -0.0002271   0.0002747
    3  -0.0002432   0.0006748   0.0003256  -0.0000484   0.0003376   0.0001147
           25          26          27          28          29
    1  -0.0001140  -0.0001899  -0.0005144  -0.0003682  -0.0003891
    2  -0.0000592   0.0002260  -0.0000034  -0.0003934   0.0000626
    3   0.0002928  -0.0000722   0.0000959  -0.0000396   0.0000816
 Max gradient component =       3.419E-03
 RMS gradient           =       1.090E-03
 Gradient time:  CPU 13.91 s  wall 0.58 s
 Geometry Optimization Parameters
   NAtoms,    NIC,     NZ,  NCons,   NDum,   NFix, NCnnct, MaxDiis
       29     227       0       2       0       0       0       0

 Cartesian Hessian Update
 Hessian Updated using BFGS Update


** CONSTRAINED OPTIMIZATION IN DELOCALIZED INTERNAL COORDINATES **
   Searching for a Minimum

   Optimization Cycle:   4

                       Coordinates (Angstroms)
     ATOM                X               Y               Z
      1  C         0.4794317879   -0.7095623544   -0.6091142293
      2  C         0.6429382929    0.8625891715   -0.5425030248
      3  C        -0.8473253120   -1.2001147154    0.0629209220
      4  C        -0.6062904470    1.6345385828    0.0255242360
      5  O        -1.1885700732   -2.4824281260   -0.4765818020
      6  O        -1.5213996270   -0.5904399593    0.9254145187
      7  O        -1.6865339054    1.4781215838   -0.9095523665
      8  O        -0.6503965824    2.3609038604    1.0419346673
      9  C        -2.9078939500    2.1499556739   -0.4063780505
     10  C        -2.4432689467   -2.9950578248    0.1294398280
     11  C         1.7476392922   -1.1762638172    0.2282017671
     12  C         3.0523884686   -0.8860604525   -0.6161604142
     13  C         3.1938124220    0.6737827129   -0.4397916086
     14  C         1.9043817922    0.9958952962    0.4133307342
     15  O         1.8017760423   -0.1734083126    1.3199375810
     16  H         0.5040798153   -1.0839429119   -1.6481150679
     17  H         0.8726779940    1.2746926279   -1.5415906578
     18  H        -3.0569362133    1.9602769654    0.6753088193
     19  H        -2.6569862857   -2.4586701425    1.0752812078
     20  H         1.6664758437   -2.1989541040    0.6463304448
     21  H         3.9145927349   -1.4167915484   -0.1811667852
     22  H         2.9433394750   -1.1943021574   -1.6686513289
     23  H         4.1016276862    0.9259922808    0.1320805829
     24  H         3.2178307859    1.2183011141   -1.3972114295
     25  H         1.9270335420    1.9349867034    0.9999434439
     26  H        -2.8599966243    3.2474530881   -0.5677746875
     27  H        -3.7559435442    1.7340261671   -0.9821566062
     28  H        -2.3133910963   -4.0785209335    0.3146257002
     29  H        -3.2900013033   -2.8427452587   -0.5708673897
   Point Group: c1    Number of degrees of freedom:    81


   Energy is   -755.732579412

              Constraints and their Current Values
                                        Value     Constraint
   Dihedral:        2   1   3   5      157.300      157.300
   Dihedral:        1   2   4   7      -66.599      -66.600
 Hessian Updated using BFGS Update

   Using Lagrange Multiplier Algorithm


 81 Hessian modes will be used to form the next step
  Hessian Eigenvalues:
    -0.977118   -0.973676    0.028156    0.045000    0.045000    0.045008
     0.045063    0.045505    0.045585    0.048657    0.057362    0.058973
     0.064803    0.065988    0.070808    0.072060    0.074156    0.075769
     0.081728    0.083522    0.084062    0.085067    0.087069    0.088268
     0.091246    0.091427    0.096773    0.098172    0.112447    0.112643
     0.113740    0.116984    0.117248    0.121965    0.123043    0.138981
     0.141125    0.158826    0.160054    0.160949    0.161688    0.171227
     0.176053    0.242959    0.247657    0.249105    0.250000    0.250020
     0.250198    0.254090    0.267065    0.268545    0.291032    0.298240
     0.299021    0.309237    0.323934    0.330782    0.338289    0.340491
     0.341591    0.342148    0.342266    0.343067    0.343441    0.343869
     0.343911    0.344021    0.344390    0.344576    0.345221    0.347343
     0.390044    0.411066    0.444069    0.516255    0.556234    0.948858
     0.978038    1.025063    1.038812

 Minimum Search - Taking P-RFO Step
 Searching for Lamda that Maximizes Along the Constraint modes Only
 Value Taken    Lamda =   0.00000217
 Searching for Lamda that Minimizes Along All other modes
 Value Taken    Lamda =  -0.00045142
 Step Taken.  Stepsize is  0.103629

                             Maximum     Tolerance    Cnvgd?
         Gradient            0.004083       0.000300      NO
         Displacement        0.040562       0.001200      NO
         Energy change     -0.000862       0.000001      NO


 New Cartesian Coordinates Obtained by Inverse Iteration

 Displacement from previous Coordinates is:  0.189239
 Adding empirical dispersion correction 
 ----------------------------------------------------------------
 Doing -D3(op) with
 s6 =   1.00000
 s8 =   0.78311
 a1 =   0.30000
 a2 =   4.25000
 n  =  10.00000
 -D3 energy without 3body term =     -0.0302276637 hartrees
 ----------------------------------------------------------------
             Standard Nuclear Orientation (Angstroms)
    I     Atom           X                Y                Z
 ----------------------------------------------------------------
    1      C       0.4789981364    -0.7081428826    -0.6231280748
    2      C       0.6447298646     0.8662871678    -0.5492148913
    3      C      -0.8447889687    -1.1972750375     0.0529655572
    4      C      -0.6069435859     1.6335045734     0.0177202843
    5      O      -1.1923530280    -2.4763149177    -0.4899853620
    6      O      -1.5040512707    -0.6007640900     0.9350506244
    7      O      -1.6818697399     1.4784529069    -0.9253921697
    8      O      -0.6660095581     2.3345935828     1.0493049201
    9      C      -2.9027340995     2.1377245455    -0.4066772705
   10      C      -2.4413054417    -2.9760255862     0.1378054169
   11      C       1.7418203183    -1.1741600921     0.2260331779
   12      C       3.0522318995    -0.8855889688    -0.6108245141
   13      C       3.1952222811     0.6727302674    -0.4320317077
   14      C       1.9007412536     0.9958355084     0.4118460163
   15      O       1.7849648216    -0.1735708331     1.3169322099
   16      H       0.5112524248    -1.0858055911    -1.6602758371
   17      H       0.8672429211     1.2744535340    -1.5520896896
   18      H      -3.0546657116     1.9168668372     0.6688739189
   19      H      -2.6369377135    -2.4331222674     1.0841992154
   20      H       1.6595348333    -2.1991422961     0.6378600810
   21      H       3.9101451791    -1.4227960576    -0.1760697809
   22      H       2.9428330540    -1.1877826876    -1.6648404726
   23      H       4.1014623839     0.9271084157     0.1406524856
   24      H       3.2169707610     1.2155820114    -1.3903254732
   25      H       1.9181959423     1.9359465559     0.9967669642
   26      H      -2.8541739651     3.2390484424    -0.5380952209
   27      H      -3.7470173603     1.7365027426    -0.9973660207
   28      H      -2.3125980854    -4.0587407777     0.3250386731
   29      H      -3.2958054819    -2.8211517962    -0.5520740553
 ----------------------------------------------------------------
 Molecular Point Group                 C1    NOp =  1
 Largest Abelian Subgroup              C1    NOp =  1
 Nuclear Repulsion Energy =  1089.9488733141 hartrees
 There are       57 alpha and       57 beta electrons
 Applying Cartesian multipole field
    Component          Value
    ---------          -----
     (2,0,0)        1.00000E-11
     (0,2,0)        2.00000E-11
     (0,0,2)       -3.00000E-11
 Nucleus-field energy     =     0.0000000316 hartrees
 Requested basis set is STO-3G
 There are 44 shells and 89 basis functions
 A cutoff of  1.0D-12 yielded    863 shell pairs
 There are      3896 function pairs
 Smallest overlap matrix eigenvalue = 2.13E-01
 Guess MOs from SCF MO coefficient file
 Reading MOs from coefficient file
 Reading MOs from coefficient file
 A restricted hybrid HF-DFT SCF calculation will be
 performed using Pulay DIIS extrapolation
 Exchange:     0.2000 Hartree-Fock + 0.0800 Slater + 0.7200 B88
 Correlation:  0.1900 VWN1RPA + 0.8100 LYP
 Using SG-1 standard quadrature grid
 Dispersion:   Grimme D3
 SCF converges when DIIS error is below 1.0E-08
 Geometry optimization detected.  Setting ReadMinima to 0
 Setting SaveMinima to 0
 -------------------------------------------------------
 OpenMP Integral computing Module                
 Release: version 1.0, May 2013, Q-Chem Inc. Pittsburgh 
 -------------------------------------------------------
 -------------------------------------------------------
 OpenMP BLAS3 based DFT computing Module                
 Release: version 1.0, May 2013, Q-Chem Inc. Pittsburgh 
 -------------------------------------------------------
 ---------------------------------------
  Cycle       Energy         DIIS Error
 ---------------------------------------
    1    -755.7322469747      1.47E-03
    2    -755.7327969768      1.26E-04
    3    -755.7327684004      2.24E-04
    4    -755.7328228892      4.66E-05
    5    -755.7328251043      1.70E-05
    6    -755.7328254390      4.98E-06
    7    -755.7328254678      1.58E-06
    8    -755.7328254694      1.11E-06
    9    -755.7328254708      1.20E-07
   10    -755.7328254708      4.05E-08
   11    -755.7328254708      1.38E-08
   12    -755.7328254708      2.18E-09 Convergence criterion met
 ---------------------------------------
 SCF time:  CPU 48.66 s  wall 2.05 s
 SCF   energy in the final basis set = -755.7328254708
 Total energy in the final basis set = -755.7328254708
 
 --------------------------------------------------------------
 
                    Orbital Energies (a.u.)
 --------------------------------------------------------------
 
 Alpha MOs
 -- Occupied --
-18.937 -18.921 -18.886 -18.879 -18.865 -10.101 -10.091 -10.061
-10.061 -10.055 -10.055 -10.038 -10.033 -10.020 -10.018  -1.014
 -0.998  -0.968  -0.938  -0.926  -0.761  -0.722  -0.705  -0.664
 -0.653  -0.593  -0.544  -0.536  -0.508  -0.473  -0.455  -0.451
 -0.430  -0.415  -0.412  -0.405  -0.402  -0.375  -0.361  -0.352
 -0.345  -0.339  -0.331  -0.324  -0.310  -0.302  -0.296  -0.278
 -0.272  -0.252  -0.245  -0.233  -0.178  -0.166  -0.158  -0.145
 -0.143
 -- Virtual --
  0.094   0.116   0.235   0.253   0.269   0.284   0.311   0.331
  0.341   0.346   0.359   0.372   0.385   0.403   0.412   0.420
  0.422   0.426   0.430   0.432   0.436   0.439   0.441   0.443
  0.451   0.467   0.488   0.508   0.542   0.552   0.644   0.654
 --------------------------------------------------------------
 
          Ground-State Mulliken Net Atomic Charges

     Atom                 Charge (a.u.)
  ----------------------------------------
      1 C                    -0.077479
      2 C                    -0.080180
      3 C                     0.214390
      4 C                     0.215336
      5 O                    -0.169368
      6 O                    -0.210751
      7 O                    -0.176826
      8 O                    -0.212525
      9 C                    -0.129422
     10 C                    -0.134926
     11 C                     0.025198
     12 C                    -0.143907
     13 C                    -0.143552
     14 C                     0.024217
     15 O                    -0.188015
     16 H                     0.087401
     17 H                     0.083255
     18 H                     0.096429
     19 H                     0.101580
     20 H                     0.082992
     21 H                     0.078107
     22 H                     0.073840
     23 H                     0.078019
     24 H                     0.073186
     25 H                     0.090537
     26 H                     0.082814
     27 H                     0.086250
     28 H                     0.088165
     29 H                     0.085234
  ----------------------------------------
  Sum of atomic charges =    -0.000000

 -----------------------------------------------------------------
                    Cartesian Multipole Moments
 -----------------------------------------------------------------
    Charge (ESU x 10^10)
                -0.0000
    Dipole Moment (Debye)
         X      -0.0040      Y      -1.1753      Z      -2.2140
       Tot       2.5066
    Quadrupole Moments (Debye-Ang)
        XX     -72.2400     XY       1.7531     YY     -77.1778
        XZ      -1.5283     YZ      -3.7732     ZZ     -85.0136
    Octopole Moments (Debye-Ang^2)
       XXX     -34.5514    XXY       1.8274    XYY     -17.2573
       YYY      -4.3164    XXZ      -1.8771    XYZ       3.6255
       YYZ       3.1369    XZZ      -4.9521    YZZ      -0.4925
       ZZZ       2.9488
    Hexadecapole Moments (Debye-Ang^3)
      XXXX   -1930.3667   XXXY     -10.5604   XXYY    -504.3356
      XYYY      14.7465   YYYY   -1316.1399   XXXZ      28.6675
      XXYZ      -0.8861   XYYZ       7.7902   YYYZ     -38.9596
      XXZZ    -394.5917   XYZZ       3.2598   YYZZ    -286.8210
      XZZZ      -2.4920   YZZZ       0.9260   ZZZZ    -300.5650
 -----------------------------------------------------------------
 Calculating analytic gradient of the SCF energy
 Gradient of SCF Energy
            1           2           3           4           5           6
    1   0.0013646  -0.0010324   0.0006077  -0.0000712   0.0005748  -0.0010165
    2  -0.0011080   0.0004999  -0.0003312   0.0004556  -0.0007365   0.0004556
    3   0.0001075  -0.0007805   0.0012437   0.0010548  -0.0018256   0.0003010
            7           8           9          10          11          12
    1  -0.0005510   0.0000902  -0.0007680  -0.0008399   0.0006912   0.0004160
    2  -0.0003063   0.0004555   0.0001257   0.0000785  -0.0004431  -0.0001720
    3  -0.0020998   0.0002598   0.0004963   0.0008863  -0.0006773  -0.0005409
           13          14          15          16          17          18
    1   0.0004740   0.0003767   0.0000321  -0.0004538   0.0004007   0.0002712
    2   0.0004368  -0.0005546   0.0000788   0.0003448   0.0001335   0.0002364
    3  -0.0007439   0.0006644   0.0014993  -0.0001710   0.0000571   0.0002019
           19          20          21          22          23          24
    1  -0.0000392  -0.0003383  -0.0000410   0.0000296   0.0000236   0.0001269
    2   0.0001714   0.0000154   0.0000985  -0.0001614  -0.0002454   0.0001115
    3   0.0001140   0.0000825   0.0002080  -0.0000107   0.0001079   0.0000923
           25          26          27          28          29
    1  -0.0004354  -0.0001030   0.0001087   0.0002224  -0.0001210
    2   0.0000946   0.0001976  -0.0002216   0.0000590   0.0002310
    3  -0.0001080  -0.0001864   0.0000481  -0.0002307  -0.0000503
 Max gradient component =       2.100E-03
 RMS gradient           =       5.743E-04
 Gradient time:  CPU 14.13 s  wall 0.59 s
 Geometry Optimization Parameters
   NAtoms,    NIC,     NZ,  NCons,   NDum,   NFix, NCnnct, MaxDiis
       29     227       0       2       0       0       0       0

 Cartesian Hessian Update
 Hessian Updated using BFGS Update


** CONSTRAINED OPTIMIZATION IN DELOCALIZED INTERNAL COORDINATES **
   Searching for a Minimum

   Optimization Cycle:   5

                       Coordinates (Angstroms)
     ATOM                X               Y               Z
      1  C         0.4789981364   -0.7081428826   -0.6231280748
      2  C         0.6447298646    0.8662871678   -0.5492148913
      3  C        -0.8447889687   -1.1972750375    0.0529655572
      4  C        -0.6069435859    1.6335045734    0.0177202843
      5  O        -1.1923530280   -2.4763149177   -0.4899853620
      6  O        -1.5040512707   -0.6007640900    0.9350506244
      7  O        -1.6818697399    1.4784529069   -0.9253921697
      8  O        -0.6660095581    2.3345935828    1.0493049201
      9  C        -2.9027340995    2.1377245455   -0.4066772705
     10  C        -2.4413054417   -2.9760255862    0.1378054169
     11  C         1.7418203183   -1.1741600921    0.2260331779
     12  C         3.0522318995   -0.8855889688   -0.6108245141
     13  C         3.1952222811    0.6727302674   -0.4320317077
     14  C         1.9007412536    0.9958355084    0.4118460163
     15  O         1.7849648216   -0.1735708331    1.3169322099
     16  H         0.5112524248   -1.0858055911   -1.6602758371
     17  H         0.8672429211    1.2744535340   -1.5520896896
     18  H        -3.0546657116    1.9168668372    0.6688739189
     19  H        -2.6369377135   -2.4331222674    1.0841992154
     20  H         1.6595348333   -2.1991422961    0.6378600810
     21  H         3.9101451791   -1.4227960576   -0.1760697809
     22  H         2.9428330540   -1.1877826876   -1.6648404726
     23  H         4.1014623839    0.9271084157    0.1406524856
     24  H         3.2169707610    1.2155820114   -1.3903254732
     25  H         1.9181959423    1.9359465559    0.9967669642
     26  H        -2.8541739651    3.2390484424   -0.5380952209
     27  H        -3.7470173603    1.7365027426   -0.9973660207
     28  H        -2.3125980854   -4.0587407777    0.3250386731
     29  H        -3.2958054819   -2.8211517962   -0.5520740553
   Point Group: c1    Number of degrees of freedom:    81


   Energy is   -755.732825471

              Constraints and their Current Values
                                        Value     Constraint
   Dihedral:        2   1   3   5      157.300      157.300
   Dihedral:        1   2   4   7      -66.600      -66.600
 Hessian Updated using BFGS Update

 77 Hessian modes will be used to form the next step
  Hessian Eigenvalues:
     0.020544    0.045005    0.045033    0.045195    0.045525    0.046171
     0.048800    0.057438    0.059184    0.064808    0.066476    0.071028
     0.072049    0.074128    0.075828    0.081725    0.083754    0.084058
     0.085140    0.087069    0.088282    0.091246    0.091434    0.097279
     0.098194    0.112370    0.112670    0.113551    0.116984    0.117250
     0.121663    0.123061    0.139358    0.140632    0.159340    0.159989
     0.160195    0.160941    0.162364    0.170304    0.178317    0.244334
     0.247970    0.249655    0.249898    0.250116    0.251590    0.261616
     0.267971    0.268851    0.292188    0.298988    0.308771    0.319157
     0.329275    0.335702    0.339363    0.340498    0.341634    0.342236
     0.342307    0.343138    0.343779    0.343868    0.343918    0.344104
     0.344398    0.344865    0.346031    0.357331    0.384750    0.411576
     0.449787    0.514994    0.540337    0.949822    0.972754

 Minimum Search - Taking Simple RFO Step
 Searching for Lamda that Minimizes Along All modes
 Value Taken    Lamda =  -0.00013268
 Step Taken.  Stepsize is  0.057435

                             Maximum     Tolerance    Cnvgd?
         Gradient           0.002069      0.000300      NO
         Displacement       0.022482      0.001200      NO
         Energy change     -0.000246      0.000001      NO


 New Cartesian Coordinates Obtained by Inverse Iteration

 Displacement from previous Coordinates is:  0.099097
[...]
 C         -0.000  0.000  0.000    0.041 -0.036 -0.035   -0.003  0.002 -0.003
 C         -0.000 -0.000  0.000    0.050  0.033 -0.020    0.002  0.003  0.004
 C         -0.000  0.000 -0.000   -0.001  0.008  0.003    0.003 -0.009 -0.008
 O          0.000 -0.000  0.000   -0.001 -0.000  0.000   -0.000 -0.003 -0.002
 H          0.001  0.001  0.000    0.025  0.002 -0.003    0.196  0.068 -0.045
 H         -0.002  0.001 -0.001    0.053 -0.027 -0.000   -0.041 -0.009 -0.003
 H          0.130  0.597  0.288    0.007 -0.001  0.002   -0.046 -0.006 -0.033
 H          0.007 -0.015 -0.142   -0.000 -0.000  0.001    0.040  0.113  0.001
 H          0.001  0.000  0.001    0.021 -0.016 -0.003   -0.001 -0.003  0.009
 H         -0.000 -0.001 -0.001   -0.051  0.193  0.464   -0.017 -0.006  0.017
 H          0.001 -0.001  0.000   -0.405  0.305 -0.046    0.001  0.006 -0.004
 H          0.001 -0.000 -0.001   -0.143 -0.290  0.356    0.013 -0.012 -0.011
 H          0.001  0.000  0.000   -0.434 -0.166 -0.157   -0.002 -0.003 -0.001
 H         -0.000 -0.000  0.001    0.016  0.015 -0.002    0.001 -0.016 -0.014
 H         -0.209 -0.037  0.591    0.005 -0.000  0.001   -0.063 -0.009 -0.040
 H          0.228 -0.078 -0.216    0.006 -0.003 -0.005   -0.072  0.066  0.047
 H          0.119 -0.054 -0.025   -0.000  0.003  0.000    0.069  0.095  0.032
 H         -0.057  0.002  0.014    0.000  0.001 -0.002    0.147  0.050 -0.104
 TransDip   0.056  0.011  0.054   -0.047  0.001  0.063   -0.234  0.098  0.069

 Mode:                67                     68                     69
 Frequency:      1805.30                3049.46                3049.76
 Force Cnst:     22.0122                 5.6399                 5.6420
 Red. Mass:      11.4634                 1.0294                 1.0296
 IR Active:          YES                    YES                    YES
 IR Intens:      395.974                 24.160                 46.724
 Raman Active:       YES                    YES                    YES
               X      Y      Z        X      Y      Z        X      Y      Z
 C          0.022 -0.008 -0.031   -0.000 -0.000 -0.001    0.000  0.000  0.001
 C          0.016 -0.028 -0.035   -0.001 -0.001  0.003   -0.000 -0.001  0.001
 C         -0.215  0.139  0.291    0.000  0.002  0.001   -0.000 -0.002 -0.001
 C         -0.043  0.420  0.525   -0.002 -0.001 -0.002   -0.001 -0.000 -0.001
 O          0.012 -0.009 -0.018   -0.001 -0.001  0.000    0.002  0.002 -0.000
 O          0.128 -0.102 -0.186    0.000 -0.000 -0.000   -0.000  0.000  0.001
 O         -0.003 -0.022 -0.033    0.002 -0.001  0.000    0.001 -0.000  0.000
 O          0.006 -0.268 -0.340    0.000  0.000  0.001   -0.000  0.000  0.000
 C         -0.019  0.015  0.012    0.026 -0.019 -0.017    0.017 -0.013 -0.012
 C         -0.012 -0.004  0.009   -0.020 -0.005  0.014    0.029  0.008 -0.021
 C          0.010  0.001  0.010   -0.000 -0.000  0.000   -0.000  0.000 -0.000
 C         -0.002  0.001 -0.003   -0.000  0.000  0.000    0.000 -0.000 -0.000
 C         -0.004 -0.003 -0.006    0.001  0.001 -0.000    0.001  0.001 -0.000
 C          0.004  0.005  0.016   -0.000  0.000 -0.000   -0.000  0.000  0.000
 O         -0.001 -0.002 -0.008    0.000 -0.000 -0.000    0.000  0.000  0.000
 H          0.120  0.048 -0.042    0.000  0.003  0.010   -0.000 -0.002 -0.006
 H          0.115 -0.121 -0.026    0.010  0.015 -0.040    0.004  0.006 -0.015
 H          0.107 -0.044  0.051   -0.156 -0.199  0.450   -0.105 -0.134  0.304
 H          0.022  0.064  0.001    0.293 -0.199  0.046   -0.435  0.295 -0.069
 H         -0.021 -0.007 -0.013    0.000  0.003 -0.001   -0.000 -0.002  0.001
 H         -0.015 -0.012  0.009    0.002 -0.002  0.001   -0.004  0.003 -0.002
 H          0.006  0.003 -0.004   -0.000 -0.001 -0.004    0.001  0.001  0.005
 H         -0.022  0.015  0.021   -0.006 -0.001 -0.004   -0.006 -0.001 -0.004
 H          0.006 -0.003 -0.004   -0.000 -0.006  0.010   -0.000 -0.005  0.008
 H         -0.056  0.042 -0.003   -0.000 -0.001 -0.000    0.000 -0.001 -0.001
 H          0.118  0.012  0.028    0.080  0.516  0.038    0.054  0.348  0.026
 H          0.130 -0.100 -0.083   -0.248 -0.079 -0.276   -0.167 -0.053 -0.186
 H          0.039  0.054  0.020   -0.064  0.054 -0.340    0.095 -0.080  0.505
 H          0.084  0.029 -0.061    0.018  0.215  0.121   -0.027 -0.319 -0.180
 TransDip  -0.028  0.426  0.473    0.062 -0.143  0.025    0.212  0.040 -0.037

 Mode:                70                     71                     72
 Frequency:      3056.96                3061.26                3067.76
 Force Cnst:      5.8651                 5.9357                 5.8917
 Red. Mass:       1.0652                 1.0750                 1.0625
 IR Active:          YES                    YES                    YES
 IR Intens:       14.377                 16.001                 35.977
 Raman Active:       YES                    YES                    YES
               X      Y      Z        X      Y      Z        X      Y      Z
 C         -0.000  0.002  0.007    0.000  0.001  0.005   -0.000  0.002  0.007
 C          0.009  0.014 -0.037    0.014  0.023 -0.060    0.005  0.008 -0.022
 C         -0.000 -0.000  0.000   -0.000 -0.000  0.000   -0.000 -0.000  0.000
 C         -0.000 -0.000 -0.001   -0.000 -0.000 -0.002   -0.000  0.000 -0.001
 O          0.000  0.000 -0.000    0.000  0.000 -0.000    0.000  0.000 -0.000
 O          0.000 -0.000 -0.000    0.000 -0.000 -0.000    0.000 -0.000 -0.000
 O          0.000 -0.000  0.000    0.000 -0.000  0.000    0.000 -0.000  0.000
 O          0.000  0.000  0.000    0.000  0.000  0.000    0.000  0.000  0.000
 C          0.001 -0.001 -0.001    0.001 -0.001 -0.001    0.000 -0.000  0.000
 C         -0.000 -0.000  0.000   -0.000 -0.000  0.000   -0.000 -0.000  0.000
 C          0.000  0.002 -0.001    0.000 -0.002  0.001   -0.000  0.004 -0.002
 C          0.018 -0.023 -0.026   -0.018  0.024  0.026    0.016 -0.024 -0.028
 C         -0.029 -0.028  0.019    0.008  0.003  0.001    0.038  0.032 -0.014
 C          0.001  0.001  0.001    0.001 -0.000 -0.001   -0.001 -0.002 -0.002
 O         -0.000  0.000  0.000   -0.000 -0.000  0.000   -0.000 -0.000  0.000
 H          0.002 -0.028 -0.088   -0.001 -0.018 -0.059    0.003 -0.028 -0.085
 H         -0.110 -0.168  0.442   -0.181 -0.276  0.730   -0.064 -0.099  0.261
 H         -0.007 -0.008  0.019   -0.007 -0.008  0.020   -0.000  0.000 -0.000
 H          0.005 -0.004  0.001    0.002 -0.001  0.000    0.006 -0.004  0.001
 H         -0.001 -0.026  0.008    0.001  0.023 -0.007   -0.003 -0.048  0.017
 H         -0.268  0.182 -0.137    0.268 -0.183  0.137   -0.249  0.171 -0.129
 H          0.061  0.096  0.443   -0.062 -0.096 -0.440    0.064  0.101  0.455
 H          0.313  0.056  0.215   -0.093 -0.018 -0.060   -0.429 -0.079 -0.290
 H          0.015  0.270 -0.441   -0.002 -0.029  0.051   -0.014 -0.285  0.464
 H         -0.003 -0.013 -0.008    0.000  0.007  0.004    0.005  0.035  0.022
 H          0.003  0.022  0.002    0.003  0.024  0.002    0.000  0.001  0.000
 H         -0.011 -0.003 -0.012   -0.011 -0.004 -0.012   -0.000 -0.000 -0.001
 H         -0.001  0.001 -0.007   -0.001  0.000 -0.003   -0.001  0.001 -0.008
 H          0.000  0.004  0.002    0.000  0.002  0.001    0.000  0.004  0.002
 TransDip  -0.028 -0.109 -0.045   -0.032  0.124  0.006    0.149  0.048 -0.112

 Mode:                73                     74                     75
 Frequency:      3096.88                3110.42                3117.26
 Force Cnst:      6.2544                 6.2249                 6.3016
 Red. Mass:       1.1068                 1.0921                 1.1007
 IR Active:          YES                    YES                    YES
 IR Intens:        0.939                  7.557                 36.598
 Raman Active:       YES                    YES                    YES
               X      Y      Z        X      Y      Z        X      Y      Z
 C         -0.000  0.003  0.011    0.001 -0.022 -0.066    0.001 -0.014 -0.042
 C         -0.001 -0.002  0.005    0.001  0.003 -0.005    0.002  0.004 -0.008
 C          0.000  0.000  0.000   -0.001 -0.001 -0.001   -0.000 -0.001 -0.001
 C         -0.000  0.000  0.000   -0.000  0.000 -0.000   -0.000  0.000 -0.000
 O         -0.000 -0.000 -0.000    0.000  0.000  0.000   -0.000  0.000  0.000
 O         -0.000 -0.000 -0.000   -0.000  0.000  0.000   -0.000  0.000  0.000
 O          0.000  0.000 -0.000    0.000 -0.000  0.000    0.000 -0.000  0.000
 O         -0.000 -0.000 -0.000    0.000 -0.000 -0.000    0.000  0.000  0.000
 C         -0.000  0.000 -0.000    0.000  0.000  0.000   -0.000 -0.000  0.000
 C         -0.000  0.000 -0.000    0.001  0.000  0.000    0.001 -0.000  0.001
 C         -0.001 -0.007  0.002    0.002  0.008 -0.003   -0.001 -0.005  0.001
 C         -0.043  0.019 -0.052    0.016 -0.008  0.017   -0.033  0.013 -0.046
 C          0.031 -0.013  0.052    0.024 -0.008  0.038   -0.028  0.011 -0.046
 C          0.000 -0.002 -0.001    0.001 -0.002 -0.001   -0.000  0.002 -0.000
 O         -0.000  0.000 -0.000   -0.000  0.000  0.000    0.000  0.000  0.001
 H          0.004 -0.041 -0.125   -0.014  0.253  0.786   -0.006  0.161  0.500
 H          0.016  0.025 -0.068   -0.017 -0.026  0.061   -0.022 -0.039  0.096
 H         -0.000 -0.000  0.000    0.000  0.001 -0.001    0.001  0.001 -0.003
 H          0.000 -0.000  0.000   -0.005  0.003 -0.001   -0.011  0.007 -0.001
 H          0.009  0.087 -0.033   -0.011 -0.096  0.036    0.004  0.054 -0.021
 H          0.464 -0.322  0.216   -0.176  0.124 -0.082    0.346 -0.243  0.162
 H          0.044  0.097  0.404   -0.013 -0.030 -0.113    0.045  0.095  0.391
 H         -0.397 -0.080 -0.252   -0.307 -0.063 -0.196    0.362  0.075  0.232
 H          0.025  0.232 -0.370    0.017  0.161 -0.253   -0.021 -0.201  0.316
 H          0.001  0.020  0.014    0.002  0.027  0.019   -0.001 -0.011 -0.007
 H         -0.000 -0.002 -0.000   -0.000 -0.000  0.000    0.001  0.004  0.000
 H          0.000  0.000  0.000   -0.001 -0.000 -0.001   -0.001 -0.000 -0.001
 H          0.000 -0.000  0.000   -0.000 -0.001  0.002   -0.001  0.001 -0.006
 H         -0.000  0.000  0.000   -0.000 -0.004 -0.002    0.000 -0.002 -0.001
 TransDip  -0.020 -0.003  0.023    0.072 -0.050  0.005   -0.100  0.010 -0.166

 Mode:                76                     77                     78
 Frequency:      3122.74                3124.57                3131.94
 Force Cnst:      6.3605                 6.3698                 6.2988
 Red. Mass:       1.1071                 1.1074                 1.0899
 IR Active:          YES                    YES                    YES
 IR Intens:       18.689                 15.447                 21.772
 Raman Active:       YES                    YES                    YES
               X      Y      Z        X      Y      Z        X      Y      Z
 C         -0.000 -0.000 -0.001    0.000  0.000  0.000   -0.000 -0.001 -0.005
 C          0.000  0.000 -0.000   -0.000 -0.000  0.000   -0.000  0.001 -0.001
 C          0.000 -0.000  0.000   -0.000  0.000  0.000   -0.000 -0.001  0.000
 C         -0.000 -0.000 -0.000    0.000  0.000 -0.000   -0.000  0.000 -0.000
 O          0.000 -0.000  0.000    0.000 -0.000 -0.000    0.000  0.000 -0.000
 O          0.000 -0.000  0.000    0.000 -0.000 -0.000    0.000  0.000 -0.000
 O          0.000 -0.000  0.000    0.000  0.000 -0.000    0.000 -0.000  0.000
 O          0.000  0.000  0.000   -0.000  0.000 -0.000    0.000 -0.000  0.000
 C          0.001  0.003 -0.001   -0.028 -0.080  0.044   -0.000 -0.000  0.000
 C         -0.058  0.043 -0.062   -0.002  0.001 -0.002    0.001 -0.000  0.001
 C         -0.000 -0.001  0.000   -0.000  0.000 -0.000   -0.008 -0.079  0.031
 C         -0.000  0.000 -0.001    0.000 -0.000  0.000    0.010 -0.005  0.006
 C         -0.000  0.000 -0.001    0.000 -0.000  0.000    0.003  0.001  0.001
 C         -0.000 -0.000 -0.000   -0.000  0.000  0.000   -0.000 -0.003 -0.003
 O          0.000 -0.000  0.000    0.000  0.000 -0.000   -0.000 -0.000 -0.000
 H          0.000  0.003  0.010    0.000 -0.001 -0.003    0.001  0.017  0.058
 H         -0.001 -0.001  0.003    0.000  0.001 -0.001   -0.003 -0.006  0.014
 H         -0.007 -0.009  0.021    0.204  0.255 -0.617    0.001  0.001 -0.002
 H          0.576 -0.398  0.074    0.020 -0.014  0.003   -0.008  0.005 -0.001
 H          0.001  0.011 -0.004   -0.000 -0.001  0.000    0.094  0.908 -0.359
 H          0.002 -0.002  0.001   -0.001  0.001 -0.000   -0.111  0.075 -0.049
 H          0.001  0.001  0.005   -0.000 -0.000 -0.002   -0.004 -0.008 -0.025
 H          0.004  0.001  0.002   -0.002 -0.000 -0.001   -0.025 -0.005 -0.016
 H         -0.000 -0.003  0.004    0.000  0.002 -0.003    0.000  0.001  0.000
 H          0.000  0.001  0.001    0.000 -0.001 -0.001    0.003  0.048  0.035
 H         -0.004 -0.026 -0.002    0.110  0.696  0.067    0.000 -0.000 -0.000
 H         -0.002 -0.000 -0.003    0.014 -0.009  0.029   -0.001 -0.000 -0.001
 H          0.118 -0.093  0.686    0.004 -0.004  0.026   -0.001  0.001 -0.006
 H         -0.013 -0.013 -0.024   -0.000  0.001  0.000    0.000 -0.002 -0.001
 TransDip  -0.084  0.065 -0.089   -0.027 -0.112  0.052    0.012 -0.146  0.031

 Mode:                79                     80                     81
 Frequency:      3153.05                3155.98                3162.15
 Force Cnst:      6.4809                 6.4915                 6.4252
 Red. Mass:       1.1064                 1.1062                 1.0906
 IR Active:          YES                    YES                    YES
 IR Intens:       14.117                 14.345                  5.640
 Raman Active:       YES                    YES                    YES
               X      Y      Z        X      Y      Z        X      Y      Z
 C         -0.000 -0.000 -0.000   -0.000  0.000 -0.000    0.001  0.001  0.002
 C          0.000  0.000  0.000    0.000  0.000 -0.000    0.000 -0.000  0.001
 C         -0.000 -0.000 -0.000    0.001  0.000 -0.001    0.000  0.000 -0.000
 C          0.001 -0.001 -0.001    0.000  0.000 -0.000    0.000 -0.001 -0.001
 O          0.000  0.000  0.000   -0.000  0.000  0.000   -0.000 -0.000  0.000
 O         -0.000  0.000  0.000   -0.000  0.000  0.000   -0.000 -0.000  0.000
 O          0.000  0.000  0.000   -0.000 -0.000  0.000   -0.000  0.000  0.000
 O         -0.000  0.000  0.000   -0.000 -0.000 -0.000    0.000  0.000  0.000
 C         -0.044 -0.028 -0.079   -0.000  0.000 -0.000   -0.000 -0.000 -0.001
 C         -0.000  0.000  0.000    0.009 -0.074 -0.059    0.000  0.000  0.000
 C         -0.000 -0.000  0.000   -0.000 -0.000  0.000    0.001  0.006 -0.001
 C          0.000 -0.000 -0.000    0.000 -0.000 -0.000   -0.001  0.001  0.001
 C          0.000  0.000  0.000    0.000  0.000 -0.000   -0.005 -0.000 -0.002
 C          0.000  0.001  0.001   -0.000 -0.000 -0.000   -0.005 -0.070 -0.051
 O         -0.000  0.000  0.000   -0.000  0.000  0.000   -0.000 -0.000  0.000
 H         -0.000  0.001  0.002   -0.000  0.000  0.001   -0.000 -0.005 -0.017
 H         -0.000 -0.000  0.001   -0.000 -0.000  0.000    0.001  0.003 -0.010
 H         -0.109 -0.140  0.285   -0.001 -0.001  0.003   -0.001 -0.002  0.003
 H          0.003 -0.002  0.000   -0.240  0.153 -0.051    0.000 -0.000  0.000
 H          0.000  0.003 -0.001    0.000  0.000 -0.000   -0.005 -0.049  0.020
 H         -0.000  0.000 -0.000   -0.001  0.000 -0.000    0.010 -0.006  0.004
 H          0.000  0.000  0.001    0.000  0.000  0.001   -0.001 -0.001 -0.008
 H         -0.001 -0.000 -0.001   -0.000 -0.000 -0.000    0.051  0.009  0.029
 H         -0.000 -0.000  0.000   -0.000 -0.000  0.000    0.002  0.002 -0.006
 H         -0.000 -0.009 -0.007    0.000  0.003  0.002    0.049  0.801  0.584
 H          0.041  0.293  0.006   -0.000 -0.000 -0.000    0.001  0.005  0.000
 H          0.580  0.185  0.648    0.003  0.001  0.003    0.006  0.002  0.007
 H          0.000  0.000  0.000    0.064 -0.062  0.307   -0.000  0.000 -0.001
 H         -0.000 -0.003 -0.002    0.067  0.779  0.441   -0.000 -0.003 -0.001
 TransDip  -0.074 -0.028 -0.091   -0.007 -0.103 -0.064   -0.043 -0.058 -0.024

 STANDARD THERMODYNAMIC QUANTITIES AT   298.15 K  AND     1.00 ATM

   This Molecule has  0 Imaginary Frequencies
   Zero point vibrational energy:      149.062 kcal/mol

   Atom    1 Element C  Has Mass   12.00000
   Atom    2 Element C  Has Mass   12.00000
   Atom    3 Element C  Has Mass   12.00000
   Atom    4 Element C  Has Mass   12.00000
   Atom    5 Element O  Has Mass   15.99491
   Atom    6 Element O  Has Mass   15.99491
   Atom    7 Element O  Has Mass   15.99491
   Atom    8 Element O  Has Mass   15.99491
   Atom    9 Element C  Has Mass   12.00000
   Atom   10 Element C  Has Mass   12.00000
   Atom   11 Element C  Has Mass   12.00000
   Atom   12 Element C  Has Mass   12.00000
   Atom   13 Element C  Has Mass   12.00000
   Atom   14 Element C  Has Mass   12.00000
   Atom   15 Element O  Has Mass   15.99491
   Atom   16 Element H  Has Mass    1.00783
   Atom   17 Element H  Has Mass    1.00783
   Atom   18 Element H  Has Mass    1.00783
   Atom   19 Element H  Has Mass    1.00783
   Atom   20 Element H  Has Mass    1.00783
   Atom   21 Element H  Has Mass    1.00783
   Atom   22 Element H  Has Mass    1.00783
   Atom   23 Element H  Has Mass    1.00783
   Atom   24 Element H  Has Mass    1.00783
   Atom   25 Element H  Has Mass    1.00783
   Atom   26 Element H  Has Mass    1.00783
   Atom   27 Element H  Has Mass    1.00783
   Atom   28 Element H  Has Mass    1.00783
   Atom   29 Element H  Has Mass    1.00783
   Molecular Mass:   214.084170 amu
   Principal axes and moments of inertia in amu*Bohr^2:
                             1           2           3
    Eigenvalues --     2455.66143  2966.46276  4687.98905
          X               0.99988     0.01217    -0.00997
          Y              -0.01225     0.99990    -0.00749
          Z               0.00987     0.00761     0.99992
   Rotational Symmetry Number is   1
   The Molecule is an Asymmetric Top
   Translational Enthalpy:        0.889 kcal/mol
   Rotational Enthalpy:           0.889 kcal/mol
   Vibrational Enthalpy:        156.330 kcal/mol
   gas constant (RT):             0.592 kcal/mol
   Translational Entropy:        41.987  cal/mol.K
   Rotational Entropy:           31.902  cal/mol.K
   Vibrational Entropy:          48.140  cal/mol.K

   Total Enthalpy:              158.700 kcal/mol
   Total Entropy:               122.029  cal/mol.K
Archival summary:
1\1\nid03653\FREQ\ProcedureUnspecified\BasisUnspecified\51014\junteng\WedOct420:06:412017WedOct420:06:412017\0\\#,FREQ,ProcedureUnspecified,BasisUnspecified,\\0,1\O\C,1,1.42794\H,2,1.08804,1,110.174\C,1,1.43928,2,97.1279,3,179.424,0\H,4,1.08578,1,109.767,2,177.483,0\C,4,1.54201,1,102.077,2,-57.6707,0\H,6,1.09087,4,110.181,1,-80.4463,0\H,6,1.09181,4,112.85,1,158.373,0\C,2,1.54681,1,103.414,3,-124.204,0\H,9,1.09072,2,110.294,1,87.0288,0\H,9,1.09189,2,112.379,1,-152.307,0\C,4,1.54997,1,103.201,2,55.1763,0\H,12,1.09372,4,110.812,1,-145.004,0\C,12,1.51878,4,114.068,1,96.5015,0\O,14,1.20321,12,125.903,4,6.20286,0\O,14,1.35103,12,109.822,4,-178.21,0\C,16,1.43901,14,115.973,12,175.23,0\H,17,1.08804,16,105.485,14,179.982,0\H,17,1.09091,16,110.681,14,60.3148,0\H,17,1.09107,16,109.755,14,-60.7599,0\C,2,1.56334,1,101.932,3,121.942,0\H,21,1.08912,2,111.387,1,157.697,0\C,21,1.51347,2,108.846,1,-83.1206,0\O,23,1.20442,21,126.841,2,88.6017,0\O,23,1.3537,21,109.719,2,-88.36,0\C,25,1.44017,23,115.969,21,176.287,0\H,26,1.08781,25,105.452,23,-178.796,0\H,26,1.09099,25,110.517,23,-59.1289,0\H,26,1.09111,25,110.379,23,61.7691,0\\\@

 Total job time:  7304.13s(wall), 40158.07s(cpu) 
 Wed Oct  4 20:06:42 2017

        *************************************************************
        *                                                           *
        *  Thank you very much for using Q-Chem.  Have a nice day.  *
        *                                                           *
        *************************************************************


