nid01080 10.128.4
Q-Chem Developer Version! Running on 10.128.4.*
                  Welcome to Q-Chem
     A Quantum Leap Into The Future Of Chemistry


 Q-Chem 5.0, Q-Chem, Inc., Pleasanton, CA (2017)

 Yihan Shao,  Zhengting Gan,  E. Epifanovsky,  A. T. B. Gilbert,  M. Wormit,  
 J. Kussmann,  A. W. Lange,  A. Behn,  Jia Deng,  Xintian Feng,  D. Ghosh,  
 M. Goldey,  P. R. Horn,  L. D. Jacobson,  I. Kaliman,  T. Kus,  A. Landau,  
 Jie Liu,  E. I. Proynov,  R. M. Richard,  R. P. Steele,  E. J. Sundstrom,  
 H. L. Woodcock III,  P. M. Zimmerman,  D. Zuev,  B. Albrecht,  E. Alguire,  
 S. A. Baeppler,  Z. Benda,  Y. A. Bernard,  E. J. Berquist,  K. B. Bravaya,  
 D. Casanova,  Chun-Min Chang,  Yunqing Chen,  A. Chien,  K. D. Closser,  
 M. P. Coons,  S. Dasgupta,  M. Diedenhofen,  Hainam Do,  R. G. Edgar,  
 Po-Tung Fang,  S. Fatehi,  Qingguo Feng,  Qinghui Ge,  A. Ghysels,  
 J. Gomes,  J. Gonthier,  A. Gunina,  M. W. D. Hanson-Heine,  
 P. H. P. Harbach,  A. W. Hauser,  J. E. Herr,  E. G. Hohenstein,  
 Z. C. Holden,  Kerwin Hui,  T.-C. Jagau,  Hyunjun Ji,  B. Kaduk,  
 K. Khistyaev,  Jaehoon Kim,  P. Klunzinger,  K. Koh,  D. Kosenkov,  
 T. Kowalczyk,  C. M. Krauter,  A. Kunitsa,  Ka Un Lao,  A. Laurent,  
 K. V. Lawler,  Joonho Lee,  D. Lefrancois,  S. Lehtola,  D. S. Levine,  
 Yi-Pei Li,  You-Sheng Lin,  Fenglai Liu,  E. Livshits,  A. Luenser,  
 P. Manohar,  E. Mansoor,  S. F. Manzer,  Shan-Ping Mao,  Yuezhi Mao,  
 N. Mardirossian,  A. V. Marenich,  L. A. Martinez-Martinez,  S. A. Maurer,  
 N. J. Mayhall,  S. C. McKenzie,  J.-M. Mewes,  A. F. Morrison,  K. Nanda,  
 T. S. Nguyen-Beck,  R. Olivares-Amaya,  J. A. Parkhill,  T. M. Perrine,  
 F. Plasser,  S. Prager,  A. Prociuk,  D. R. Rehn,  F. Rob,  M. Schneider,  
 N. Sergueev,  S. M. Sharada,  S. Sharma,  D. W. Small,  T. Stauch,  
 T. Stein,  Yu-Chuan Su,  A. J. W. Thom,  T. Tsuchimochi,  L. Vogt,  
 O. Vydrov,  M. A. Watson,  J. Wenzel,  M. de Wergifosse,  T. A. Wesolowski,  
 A. White,  J. Witte,  A. Yamada,  Jun Yang,  K. Yao,  S. Yeganeh,  
 S. R. Yost,  Zhi-Qiang You,  A. Zech,  Igor Ying Zhang,  Xing Zhang,  
 Yan Zhao,  Ying Zhu,  B. R. Brooks,  G. K. L. Chan,  C. J. Cramer,  
 M. S. Gordon,  W. J. Hehre,  A. Klamt,  M. W. Schmidt,  C. D. Sherrill,  
 D. G. Truhlar,  A. Aspuru-Guzik,  R. Baer,  A. T. Bell,  N. A. Besley,  
 Jeng-Da Chai,  A. Dreuw,  B. D. Dunietz,  T. R. Furlani,  Chao-Ping Hsu,  
 Yousung Jung,  Jing Kong,  D. S. Lambrecht,  WanZhen Liang,  C. Ochsenfeld,  
 V. A. Rassolov,  L. V. Slipchenko,  J. E. Subotnik,  T. Van Voorhis,  
 J. M. Herbert,  A. I. Krylov,  P. M. W. Gill,  M. Head-Gordon

 Contributors to earlier versions of Q-Chem not listed above: 
 R. D. Adamson,  B. Austin,  J. Baker,  G. J. O. Beran,  K. Brandhorst,  
 S. T. Brown,  E. F. C. Byrd,  A. K. Chakraborty,  C.-L. Cheng,  
 Siu Hung Chien,  D. M. Chipman,  D. L. Crittenden,  H. Dachsel,  
 R. A. DiStasio Jr.,  R. J. Doerksen,  A. D. Dutoi,  L. Fusti-Molnar,  
 W. A. Goddard III,  A. Golubeva-Zadorozhnaya,  S. R. Gwaltney,  G. Hawkins,  
 A. Heyden,  S. Hirata,  G. Kedziora,  F. J. Keil,  C. Kelley,  Jihan Kim,  
 R. A. King,  R. Z. Khaliullin,  P. P. Korambath,  W. Kurlancheek,  
 A. M. Lee,  M. S. Lee,  S. V. Levchenko,  Ching Yeh Lin,  D. Liotard,  
 R. C. Lochan,  I. Lotan,  P. E. Maslen,  N. Nair,  D. P. O'Neill,  
 D. Neuhauser,  E. Neuscamman,  C. M. Oana,  R. Olson,  B. Peters,  
 R. Peverati,  P. A. Pieniazek,  Y. M. Rhee,  J. Ritchie,  M. A. Rohrdanz,  
 E. Rosta,  N. J. Russ,  H. F. Schaefer III,  N. E. Schultz,  N. Shenvi,  
 A. C. Simmonett,  A. Sodt,  D. Stuck,  K. S. Thanthiriwatte,  V. Vanovschi,  
 Tao Wang,  A. Warshel,  C. F. Williams,  Q. Wu,  X. Xu,  W. Zhang

 Please cite Q-Chem as follows:
 Y. Shao et al., Mol. Phys. 113, 184-215 (2015)
 DOI: 10.1080/00268976.2014.952696

 Q-Chem 5.0.0 for Intel X86 EM64T Linux

 Parts of Q-Chem use Armadillo 5.200.1 (Boston Tea Smuggler).
 http://arma.sourceforge.net/

 Q-Chem begins on Wed Oct  4 18:04:27 2017  

Host: nid01080
0

     Scratch files written to /global/cscratch1/sd/junteng/scratch/17/opt_11n01-o.save//

Checking the input file for inconsistencies... 	...done.

--------------------------------------------------------------
User input:
--------------------------------------------------------------
$molecule
0  1
C    0.469  -2.369   0.246
C   -0.100  -2.666   1.497
C    0.820  -0.970  -0.128
C   -0.250  -1.617   2.525
O    1.710  -0.973  -1.154
O    0.353   0.027   0.395
O    0.994  -1.244   2.918
O   -1.315  -1.271   3.005
C    0.990  -0.231   3.923
C    2.104   0.331  -1.586
C    0.633  -3.406  -0.690
C    0.237  -4.708  -0.384
C   -0.335  -4.993   0.854
C   -0.510  -3.982   1.810
H    0.475   0.666   3.564
H    1.246   0.871  -1.997
H   -0.645  -6.015   1.070
H    0.524  -0.605   4.840
H    2.028   0.031   4.144
H    2.851   0.214  -2.376
H    2.557   0.890  -0.761
H    0.365  -5.501  -1.118
H    1.053  -3.209  -1.674
C   -1.128  -4.326   3.139
H   -2.093  -3.824   3.253
H   -0.462  -4.036   3.958
H   -1.304  -5.403   3.231
$end


$opt
CONSTRAINT
tors    2    1    3    5    158.6
tors    1    2    4    7    -67.3
ENDCONSTRAINT
$end

$rem
JOBTYPE                   OPT
METHOD                    B3LYP
DFT_D                     D3_OP
BASIS                     STO-3G
GEOM_OPT_MAX_CYCLES       500
SYMMETRY                  False
THRESH                    12
SCF_CONVERGENCE           8
MAX_SUB_FILE_NUM          128
MEM_STATIC                400
MEM_TOTAL                 4000
$end

--------------------------------------------------------------
 Adding empirical dispersion correction 
 ----------------------------------------------------------------
 Doing -D3(op) with
 s6 =   1.00000
 s8 =   0.78311
 a1 =   0.30000
 a2 =   4.25000
 n  =  10.00000
 -D3 energy without 3body term =     -0.0281099174 hartrees
 ----------------------------------------------------------------
             Standard Nuclear Orientation (Angstroms)
    I     Atom           X                Y                Z
 ----------------------------------------------------------------
    1      C       0.4276448099    -0.8415736243    -0.0588692333
    2      C      -0.8060843738    -0.1694900882    -0.1153229467
    3      C       1.7108516923    -0.1157460900    -0.2752773829
    4      C      -0.8586766063     1.2982395328    -0.2659510208
    5      O       2.7440659004    -0.8386462100     0.2293698371
    6      O       1.8151246914     0.9559824043    -0.8463747267
    7      O      -0.3462610882     1.8472865541     0.8641338013
    8      O      -1.3960448180     1.8760408395    -1.1942408759
    9      C      -0.3453536797     3.2741738433     0.8499267384
   10      C       4.0219453492    -0.2207266872     0.0636122501
   11      C       0.4347697576    -2.2356355990     0.1279500539
   12      C      -0.7617862935    -2.9413211965     0.2541144457
   13      C      -1.9807647890    -2.2699771573     0.1874690522
   14      C      -2.0220088454    -0.8801964136     0.0044651935
   15      H       0.2409006342     3.6507951732     0.0054285126
   16      H       4.2682047510    -0.1351699828    -0.9988007380
   17      H      -2.9041102496    -2.8410186193     0.2801232975
   18      H      -1.3703322120     3.6561049330     0.8116037554
   19      H       0.1193667722     3.6218521173     1.7762548225
   20      H       4.7702630880    -0.8580083794     0.5428727289
   21      H       4.0413877155     0.7607414868     0.5480265539
   22      H      -0.7435362013    -4.0202578732     0.3939414170
   23      H       1.3701157423    -2.7903072772     0.1584823066
   24      C      -3.3565948521    -0.1864117253    -0.0591272334
   25      H      -3.5169381685     0.2431909134    -1.0520807034
   26      H      -3.4152264497     0.6020259728     0.6980684692
   27      H      -4.1788259208    -0.8832659350     0.1350357913
 ----------------------------------------------------------------
 Molecular Point Group                 C1    NOp =  1
 Largest Abelian Subgroup              C1    NOp =  1
 Nuclear Repulsion Energy =  1009.1896279882 hartrees
 There are       55 alpha and       55 beta electrons
 Requested basis set is STO-3G
 There are 42 shells and 87 basis functions

 Total QAlloc Memory Limit   4000 MB
 Mega-Array Size       392 MB
 MEM_STATIC part       400 MB
 A cutoff of  1.0D-12 yielded    765 shell pairs
 There are      3696 function pairs
 
 -------------------------------------------------------
 OpenMP Integral Computing Module                       
 Release: version 1.0, May 2013, Q-Chem Inc. Pittsburgh 
 -------------------------------------------------------
 Integral Job Info:
 Integral job number is                      11
 Integral operator is                         1
 short-range coefficients                     0
 long-range coefficients              100000000
 Omega coefficients                           0
 if combine SR and LR in K                    0
 Integral screening is                        0
 Integral computing path is                   2
 max size of driver memory is            800000
 size of driver memory is                 45569
 size of scratch memory is               945100
 max col of scratch BK array                289
 max len of scratch array in speh3           22
 max len of scratch index in speh4            8
 max int batch size is                      520
 min int batch size is                       52
 fixed nKL is                                52
 max L of basis functions is                  1
 order of int derivative is                   0
 number of shells is                         42
 number of basis is                          87
 number of cartesian basis is                87
 number of contracted shell pairs           765
 number of primitive shell pairs           4169
 maxK2 (contraction) of shell pair            9
 max number of K2 of shell pair               1
 max number of CS2 of shell pair            112
 max number of PS2 of shell pair            564
 mem total for path MDJ                   25842
 -------------------------------------------------------
 Smallest overlap matrix eigenvalue = 1.75E-01

 Scale SEOQF with 1.000000e-01/1.000000e-01/1.000000e-01

 Standard Electronic Orientation quadrupole field applied
 Nucleus-field energy     =     0.0000000367 hartrees
 Guess from superposition of atomic densities
 Warning:  Energy on first SCF cycle will be non-variational
 A restricted hybrid HF-DFT SCF calculation will be
 performed using Pulay DIIS extrapolation
 Exchange:     0.2000 Hartree-Fock + 0.0800 Slater + 0.7200 B88
 Correlation:  0.1900 VWN1RPA + 0.8100 LYP
 Using SG-1 standard quadrature grid
 Dispersion:   Grimme D3
 SCF converges when DIIS error is below 1.0E-08
 -------------------------------------------------------
 OpenMP Integral computing Module                
 Release: version 1.0, May 2013, Q-Chem Inc. Pittsburgh 
 -------------------------------------------------------
 -------------------------------------------------------
 OpenMP BLAS3 based DFT computing Module                
 Release: version 1.0, May 2013, Q-Chem Inc. Pittsburgh 
 -------------------------------------------------------
 ---------------------------------------
  Cycle       Energy         DIIS Error
 ---------------------------------------
    1    -717.8019365690      1.20E-01
    2    -717.7010378448      1.35E-02
    3    -716.6909548447      3.55E-02
    4    -717.8989360821      4.93E-03
    5    -717.9220252155      1.83E-03
    6    -717.9252541391      6.40E-04
    7    -717.9256752319      2.14E-04
    8    -717.9257222207      5.99E-05
    9    -717.9257259474      2.45E-05
   10    -717.9257267525      3.51E-06
   11    -717.9257267669      1.14E-06
   12    -717.9257267684      2.20E-07
   13    -717.9257267684      1.01E-07
   14    -717.9257267684      3.15E-08
   15    -717.9257267684      8.11E-09 Convergence criterion met
 ---------------------------------------
 SCF time:  CPU 56.75 s  wall 2.40 s
 SCF   energy in the final basis set = -717.9257267684
 Total energy in the final basis set = -717.9257267684
 
 --------------------------------------------------------------
 
                    Orbital Energies (a.u.)
 --------------------------------------------------------------
 
 Alpha MOs
 -- Occupied --
-18.948 -18.944 -18.869 -18.865 -10.116 -10.112 -10.076 -10.069
-10.024 -10.023 -10.020 -10.016 -10.010 -10.010 -10.009  -1.048
 -1.041  -0.957  -0.953  -0.821  -0.742  -0.730  -0.692  -0.672
 -0.648  -0.595  -0.566  -0.516  -0.504  -0.472  -0.451  -0.440
 -0.433  -0.422  -0.418  -0.395  -0.390  -0.385  -0.372  -0.360
 -0.352  -0.343  -0.339  -0.322  -0.312  -0.300  -0.293  -0.253
 -0.246  -0.199  -0.190  -0.185  -0.179  -0.154  -0.147
 -- Virtual --
  0.052   0.076   0.129   0.152   0.251   0.281   0.311   0.352
  0.373   0.392   0.397   0.405   0.432   0.437   0.443   0.446
  0.453   0.456   0.457   0.459   0.467   0.471   0.483   0.493
  0.574   0.582   0.592   0.613   0.701   0.710   0.788   0.802
 --------------------------------------------------------------
 
          Ground-State Mulliken Net Atomic Charges

     Atom                 Charge (a.u.)
  ----------------------------------------
      1 C                    -0.018582
      2 C                    -0.016936
      3 C                     0.234617
      4 C                     0.240956
      5 O                    -0.184918
      6 O                    -0.230663
      7 O                    -0.182368
      8 O                    -0.224940
      9 C                    -0.127135
     10 C                    -0.125431
     11 C                    -0.074859
     12 C                    -0.080052
     13 C                    -0.077609
     14 C                     0.012689
     15 H                     0.097897
     16 H                     0.094244
     17 H                     0.080944
     18 H                     0.091047
     19 H                     0.094514
     20 H                     0.096685
     21 H                     0.094839
     22 H                     0.082779
     23 H                     0.091068
     24 C                    -0.232605
     25 H                     0.096456
     26 H                     0.085477
     27 H                     0.081886
  ----------------------------------------
  Sum of atomic charges =     0.000000

 -----------------------------------------------------------------
                    Cartesian Multipole Moments
 -----------------------------------------------------------------
    Charge (ESU x 10^10)
                -0.0000
    Dipole Moment (Debye)
         X       0.7982      Y      -0.5502      Z       1.4656
       Tot       1.7573
    Quadrupole Moments (Debye-Ang)
        XX     -68.8640     XY       1.0683     YY     -74.0057
        XZ      -1.4979     YZ       4.7411     ZZ     -83.2885
    Octopole Moments (Debye-Ang^2)
       XXX      41.5766    XXY      -2.7669    XYY       0.8577
       YYY      25.2011    XXZ       3.5524    XYZ      -0.6167
       YYZ      13.0115    XZZ       9.2585    YZZ       6.8348
       ZZZ      -3.0962
    Hexadecapole Moments (Debye-Ang^3)
      XXXX   -1834.3719   XXXY     -13.9583   XXYY    -592.7498
      XYYY      -6.0514   YYYY   -1421.5834   XXXZ       3.4567
      XXYZ       8.8362   XYYZ      -9.5961   YYYZ      16.3355
      XXZZ    -378.5399   XYZZ      -4.8522   YYZZ    -299.7002
      XZZZ      -0.3707   YZZZ       2.9732   ZZZZ    -200.2064
 -----------------------------------------------------------------
 Calculating analytic gradient of the SCF energy
 Gradient of SCF Energy
            1           2           3           4           5           6
    1   0.0155520   0.0002434   0.0288734   0.0033619  -0.0165587  -0.0090033
    2   0.0247654   0.0340006   0.0084045   0.0202584   0.0561898  -0.0668372
    3  -0.0054958  -0.0064167  -0.0034908   0.0083047  -0.0327235   0.0327088
            7           8           9          10          11          12
    1  -0.0295598   0.0255054  -0.0003711  -0.0164199  -0.0008983  -0.0031731
    2   0.0085524  -0.0425767  -0.0241214  -0.0093064   0.0067387   0.0046852
    3  -0.0553920   0.0504006  -0.0000651   0.0029537   0.0000270  -0.0002477
           13          14          15          16          17          18
    1   0.0029767  -0.0065585  -0.0025396  -0.0055135   0.0073378   0.0102249
    2   0.0029842   0.0110264  -0.0077578  -0.0067668   0.0014604  -0.0087175
    3  -0.0002257  -0.0001337   0.0102837   0.0117449  -0.0006387   0.0042723
           19          20          21          22          23          24
    1  -0.0046865  -0.0047308  -0.0030343  -0.0003432  -0.0094996   0.0157825
    2  -0.0008429   0.0080769  -0.0133174   0.0081641   0.0001020  -0.0050621
    3  -0.0097686  -0.0052144  -0.0006932  -0.0010887  -0.0004175  -0.0020005
           25          26          27
    1   0.0009587   0.0010130   0.0010607
    2  -0.0069575  -0.0076169   0.0044717
    3   0.0047262  -0.0008020  -0.0006072
 Max gradient component =       6.684E-02
 RMS gradient           =       1.774E-02
 Gradient time:  CPU 12.97 s  wall 0.57 s
 Geometry Optimization Parameters
   NAtoms,    NIC,     NZ,  NCons,   NDum,   NFix, NCnnct, MaxDiis
       27     173       0       2       0       0       0       0


** CONSTRAINED OPTIMIZATION IN DELOCALIZED INTERNAL COORDINATES **
   Searching for a Minimum

   Optimization Cycle:   1

                       Coordinates (Angstroms)
     ATOM                X               Y               Z
      1  C         0.4276448099   -0.8415736243   -0.0588692333
      2  C        -0.8060843738   -0.1694900882   -0.1153229467
      3  C         1.7108516923   -0.1157460900   -0.2752773829
      4  C        -0.8586766063    1.2982395328   -0.2659510208
      5  O         2.7440659004   -0.8386462100    0.2293698371
      6  O         1.8151246914    0.9559824043   -0.8463747267
      7  O        -0.3462610882    1.8472865541    0.8641338013
      8  O        -1.3960448180    1.8760408395   -1.1942408759
      9  C        -0.3453536797    3.2741738433    0.8499267384
     10  C         4.0219453492   -0.2207266872    0.0636122501
     11  C         0.4347697576   -2.2356355990    0.1279500539
     12  C        -0.7617862935   -2.9413211965    0.2541144457
     13  C        -1.9807647890   -2.2699771573    0.1874690522
     14  C        -2.0220088454   -0.8801964136    0.0044651935
     15  H         0.2409006342    3.6507951732    0.0054285126
     16  H         4.2682047510   -0.1351699828   -0.9988007380
     17  H        -2.9041102496   -2.8410186193    0.2801232975
     18  H        -1.3703322120    3.6561049330    0.8116037554
     19  H         0.1193667722    3.6218521173    1.7762548225
     20  H         4.7702630880   -0.8580083794    0.5428727289
     21  H         4.0413877155    0.7607414868    0.5480265539
     22  H        -0.7435362013   -4.0202578732    0.3939414170
     23  H         1.3701157423   -2.7903072772    0.1584823066
     24  C        -3.3565948521   -0.1864117253   -0.0591272334
     25  H        -3.5169381685    0.2431909134   -1.0520807034
     26  H        -3.4152264497    0.6020259728    0.6980684692
     27  H        -4.1788259208   -0.8832659350    0.1350357913
   Point Group: c1    Number of degrees of freedom:    75


   Energy is   -717.925726768

              Constraints and their Current Values
                                        Value     Constraint
   Dihedral:        2   1   3   5      160.883      158.600
   Dihedral:        1   2   4   7      -66.511      -67.300

 Attempting to Generate Delocalized Internal Coordinates

   Using Lagrange Multiplier Algorithm


 77 Hessian modes will be used to form the next step
  Hessian Eigenvalues:
    -0.977753   -0.977753    0.045000    0.045000    0.045000    0.045000
     0.045000    0.045000    0.045000    0.045000    0.045000    0.045001
     0.045002    0.045007    0.045012    0.045014    0.045073    0.045391
     0.094103    0.094233    0.113874    0.113890    0.116885    0.116948
     0.159973    0.159992    0.160000    0.160000    0.160000    0.160000
     0.160000    0.160000    0.160000    0.160000    0.160000    0.160000
     0.220831    0.234483    0.248788    0.249003    0.249488    0.249924
     0.249954    0.250000    0.250000    0.250000    0.250000    0.250000
     0.318081    0.334430    0.342234    0.342572    0.342726    0.342778
     0.342982    0.343623    0.343862    0.344084    0.344536    0.348583
     0.349879    0.350317    0.350597    0.408825    0.411215    0.413739
     0.414295    0.441969    0.449403    0.456885    0.464260    0.533072
     0.535839    0.958888    0.961246    1.022753    1.022753

 Minimum Search - Taking P-RFO Step
 Searching for Lamda that Maximizes Along the Constraint modes Only
 Value Taken    Lamda =   0.00105886
 Searching for Lamda that Minimizes Along All other modes
 Value Taken    Lamda =  -0.05435560
 Calculated Step too Large.  Step scaled by  0.877150
 Step Taken.  Stepsize is  0.300000

                             Maximum     Tolerance    Cnvgd?
         Gradient            0.091802       0.000300      NO
         Displacement        0.123411       0.001200      NO
         Energy change     *********       0.000001      NO


 New Cartesian Coordinates Obtained by Inverse Iteration

 Displacement from previous Coordinates is:  0.868445
 Adding empirical dispersion correction 
 ----------------------------------------------------------------
 Doing -D3(op) with
 s6 =   1.00000
 s8 =   0.78311
 a1 =   0.30000
 a2 =   4.25000
 n  =  10.00000
 -D3 energy without 3body term =     -0.0278814430 hartrees
 ----------------------------------------------------------------
             Standard Nuclear Orientation (Angstroms)
    I     Atom           X                Y                Z
 ----------------------------------------------------------------
    1      C       0.3999810543    -0.9235358491    -0.0649613066
    2      C      -0.8364383150    -0.2280622904    -0.1000012264
    3      C       1.7009880362    -0.1430883300    -0.2761337066
    4      C      -0.8568070041     1.3042202879    -0.2570542306
    5      O       2.7885449057    -0.8621309184     0.2548220207
    6      O       1.7901601216     0.9771875961    -0.8305992901
    7      O      -0.3103371761     1.8881144202     0.9023981835
    8      O      -1.3676759481     1.9380579072    -1.2059517331
    9      C      -0.2763812457     3.3541464325     0.8330897924
   10      C       4.0606841414    -0.1539690738     0.0857786596
   11      C       0.4107954961    -2.3298514383     0.1025710829
   12      C      -0.7985059796    -3.0354352760     0.2262064024
   13      C      -2.0255784206    -2.3446643197     0.1762085941
   14      C      -2.0648355296    -0.9394855603     0.0135524537
   15      H       0.3196516095     3.7090983711    -0.0319775174
   16      H       4.3248583833    -0.0311845893    -0.9845974726
   17      H      -2.9647883811    -2.9058229334     0.2654729038
   18      H      -1.2960838804     3.7866017090     0.7701858524
   19      H       0.2022033046     3.7105894342     1.7635619549
   20      H       4.8361628812    -0.7725051096     0.5736867913
   21      H       4.0446469690     0.8441055136     0.5690465458
   22      H      -0.7865425117    -4.1256967916     0.3520398057
   23      H       1.3642165704    -2.8727466715     0.1205708279
   24      C      -3.4139787975    -0.2090332986    -0.0385894208
   25      H      -3.5734894943     0.2515808915    -1.0269910583
   26      H      -3.4687270673     0.5822726487     0.7262231943
   27      H      -4.2406273664    -0.9100818502     0.1462760632
 ----------------------------------------------------------------
 Molecular Point Group                 C1    NOp =  1
 Largest Abelian Subgroup              C1    NOp =  1
 Nuclear Repulsion Energy =   990.2256269334 hartrees
 There are       55 alpha and       55 beta electrons
 Applying Cartesian multipole field
    Component          Value
    ---------          -----
     (2,0,0)        1.00000E-11
     (0,2,0)        2.00000E-11
     (0,0,2)       -3.00000E-11
 Nucleus-field energy     =     0.0000000385 hartrees
 Requested basis set is STO-3G
 There are 42 shells and 87 basis functions
 A cutoff of  1.0D-12 yielded    762 shell pairs
 There are      3690 function pairs
 Smallest overlap matrix eigenvalue = 1.82E-01
 Guess MOs from SCF MO coefficient file
 Reading MOs from coefficient file
 Reading MOs from coefficient file
 A restricted hybrid HF-DFT SCF calculation will be
 performed using Pulay DIIS extrapolation
 Exchange:     0.2000 Hartree-Fock + 0.0800 Slater + 0.7200 B88
 Correlation:  0.1900 VWN1RPA + 0.8100 LYP
 Using SG-1 standard quadrature grid
 Dispersion:   Grimme D3
 SCF converges when DIIS error is below 1.0E-08
 Geometry optimization detected.  Setting ReadMinima to 0
 Setting SaveMinima to 0
 -------------------------------------------------------
 OpenMP Integral computing Module                
 Release: version 1.0, May 2013, Q-Chem Inc. Pittsburgh 
 -------------------------------------------------------
 -------------------------------------------------------
 OpenMP BLAS3 based DFT computing Module                
 Release: version 1.0, May 2013, Q-Chem Inc. Pittsburgh 
 -------------------------------------------------------
 ---------------------------------------
  Cycle       Energy         DIIS Error
 ---------------------------------------
    1    -717.7827935457      7.04E-03
    2    -717.9448206738      2.56E-03
    3    -717.9322264853      4.28E-03
    4    -717.9516326112      6.93E-04
    5    -717.9521741510      1.85E-04
    6    -717.9522129495      4.97E-05
    7    -717.9522157773      1.89E-05
    8    -717.9522161240      1.08E-05
    9    -717.9522162479      2.50E-06
   10    -717.9522162559      4.77E-07
   11    -717.9522162562      1.78E-07
   12    -717.9522162563      3.75E-08
   13    -717.9522162563      1.94E-08
   14    -717.9522162563      5.86E-09 Convergence criterion met
 ---------------------------------------
 SCF time:  CPU 52.64 s  wall 2.22 s
 SCF   energy in the final basis set = -717.9522162563
 Total energy in the final basis set = -717.9522162563
 
 --------------------------------------------------------------
 
                    Orbital Energies (a.u.)
 --------------------------------------------------------------
 
 Alpha MOs
 -- Occupied --
-18.943 -18.934 -18.871 -18.866 -10.107 -10.102 -10.071 -10.063
-10.027 -10.027 -10.024 -10.019 -10.015 -10.014 -10.013  -1.020
 -1.011  -0.940  -0.933  -0.815  -0.735  -0.720  -0.677  -0.661
 -0.646  -0.587  -0.562  -0.509  -0.497  -0.460  -0.440  -0.427
 -0.418  -0.413  -0.408  -0.388  -0.382  -0.376  -0.370  -0.358
 -0.349  -0.341  -0.331  -0.313  -0.310  -0.296  -0.288  -0.255
 -0.246  -0.197  -0.191  -0.181  -0.172  -0.154  -0.146
 -- Virtual --
  0.047   0.072   0.117   0.138   0.238   0.253   0.279   0.327
  0.349   0.359   0.374   0.392   0.412   0.421   0.425   0.428
  0.430   0.436   0.438   0.441   0.447   0.457   0.465   0.477
  0.548   0.559   0.566   0.589   0.652   0.661   0.755   0.773
 --------------------------------------------------------------
 
          Ground-State Mulliken Net Atomic Charges

     Atom                 Charge (a.u.)
  ----------------------------------------
      1 C                    -0.016557
      2 C                    -0.014707
      3 C                     0.213643
      4 C                     0.219330
      5 O                    -0.171453
      6 O                    -0.214385
      7 O                    -0.171833
      8 O                    -0.212504
      9 C                    -0.124612
     10 C                    -0.123717
     11 C                    -0.074503
     12 C                    -0.077161
     13 C                    -0.076164
     14 C                     0.011236
     15 H                     0.093815
     16 H                     0.089986
     17 H                     0.080792
     18 H                     0.087080
     19 H                     0.090447
     20 H                     0.092605
     21 H                     0.091296
     22 H                     0.083166
     23 H                     0.091115
     24 C                    -0.225756
     25 H                     0.093468
     26 H                     0.084736
     27 H                     0.080635
  ----------------------------------------
  Sum of atomic charges =     0.000000

 -----------------------------------------------------------------
                    Cartesian Multipole Moments
 -----------------------------------------------------------------
    Charge (ESU x 10^10)
                 0.0000
    Dipole Moment (Debye)
         X       0.6739      Y      -0.6546      Z       1.3026
       Tot       1.6061
    Quadrupole Moments (Debye-Ang)
        XX     -68.6090     XY       1.6706     YY     -73.5435
        XZ      -1.4998     YZ       4.4569     ZZ     -83.4480
    Octopole Moments (Debye-Ang^2)
       XXX      41.2390    XXY       0.0063    XYY       0.9778
       YYY      28.0869    XXZ       2.6859    XYZ      -0.4434
       YYZ      12.6014    XZZ       9.8511    YZZ       8.1568
       ZZZ      -4.0177
    Hexadecapole Moments (Debye-Ang^3)
      XXXX   -1864.6482   XXXY     -27.5751   XXYY    -613.1698
      XYYY     -24.3739   YYYY   -1491.5770   XXXZ      -0.2218
      XXYZ       6.1646   XYYZ     -10.3224   YYYZ      15.3562
      XXZZ    -385.6745   XYZZ     -11.4864   YYZZ    -316.0175
      XZZZ      -3.7208   YZZZ      -0.0840   ZZZZ    -200.5429
 -----------------------------------------------------------------
 Calculating analytic gradient of the SCF energy
 Gradient of SCF Energy
            1           2           3           4           5           6
    1   0.0006654   0.0003626   0.0106642   0.0092549  -0.0050821  -0.0015778
    2   0.0060355   0.0037110  -0.0094604   0.0015599   0.0177337  -0.0055769
    3  -0.0009571  -0.0029190   0.0034186   0.0132061  -0.0089214   0.0018415
            7           8           9          10          11          12
    1  -0.0105756   0.0001117   0.0012687  -0.0065992   0.0004312   0.0001713
    2   0.0035931  -0.0044057  -0.0078835  -0.0058830   0.0012496  -0.0015482
    3  -0.0188128   0.0036131   0.0036544   0.0023686   0.0006082   0.0003846
           13          14          15          16          17          18
    1  -0.0014099  -0.0021876   0.0008637   0.0007479   0.0010788   0.0004852
    2  -0.0003394   0.0023899   0.0002106  -0.0013785  -0.0004642   0.0000771
    3   0.0002753   0.0001020   0.0013628   0.0005775  -0.0001913   0.0015946
           19          20          21          22          23          24
    1  -0.0003390   0.0011346   0.0007951   0.0001941  -0.0017458   0.0041547
    2   0.0023709   0.0016632  -0.0010867   0.0006249  -0.0014313  -0.0000267
    3  -0.0011986  -0.0006571   0.0010701  -0.0000910  -0.0003390  -0.0009959
           25          26          27
    1  -0.0011827  -0.0012181  -0.0004662
    2  -0.0016365  -0.0014672   0.0013688
    3   0.0001188   0.0007488   0.0001383
 Max gradient component =       1.881E-02
 RMS gradient           =       4.638E-03
 Gradient time:  CPU 12.43 s  wall 0.52 s
 Geometry Optimization Parameters
   NAtoms,    NIC,     NZ,  NCons,   NDum,   NFix, NCnnct, MaxDiis
       27     173       0       2       0       0       0       0

 Cartesian Hessian Update
 Hessian Updated using BFGS Update


** CONSTRAINED OPTIMIZATION IN DELOCALIZED INTERNAL COORDINATES **
   Searching for a Minimum

   Optimization Cycle:   2

                       Coordinates (Angstroms)
     ATOM                X               Y               Z
      1  C         0.3999810543   -0.9235358491   -0.0649613066
      2  C        -0.8364383150   -0.2280622904   -0.1000012264
      3  C         1.7009880362   -0.1430883300   -0.2761337066
      4  C        -0.8568070041    1.3042202879   -0.2570542306
      5  O         2.7885449057   -0.8621309184    0.2548220207
      6  O         1.7901601216    0.9771875961   -0.8305992901
      7  O        -0.3103371761    1.8881144202    0.9023981835
      8  O        -1.3676759481    1.9380579072   -1.2059517331
      9  C        -0.2763812457    3.3541464325    0.8330897924
     10  C         4.0606841414   -0.1539690738    0.0857786596
     11  C         0.4107954961   -2.3298514383    0.1025710829
     12  C        -0.7985059796   -3.0354352760    0.2262064024
     13  C        -2.0255784206   -2.3446643197    0.1762085941
     14  C        -2.0648355296   -0.9394855603    0.0135524537
     15  H         0.3196516095    3.7090983711   -0.0319775174
     16  H         4.3248583833   -0.0311845893   -0.9845974726
     17  H        -2.9647883811   -2.9058229334    0.2654729038
     18  H        -1.2960838804    3.7866017090    0.7701858524
     19  H         0.2022033046    3.7105894342    1.7635619549
     20  H         4.8361628812   -0.7725051096    0.5736867913
     21  H         4.0446469690    0.8441055136    0.5690465458
     22  H        -0.7865425117   -4.1256967916    0.3520398057
     23  H         1.3642165704   -2.8727466715    0.1205708279
     24  C        -3.4139787975   -0.2090332986   -0.0385894208
     25  H        -3.5734894943    0.2515808915   -1.0269910583
     26  H        -3.4687270673    0.5822726487    0.7262231943
     27  H        -4.2406273664   -0.9100818502    0.1462760632
   Point Group: c1    Number of degrees of freedom:    75


   Energy is   -717.952216256

              Constraints and their Current Values
                                        Value     Constraint
   Dihedral:        2   1   3   5      158.930      158.600
   Dihedral:        1   2   4   7      -67.192      -67.300
 Hessian Updated using BFGS Update

   Using Lagrange Multiplier Algorithm


 65 Hessian modes will be used to form the next step
  Hessian Eigenvalues:
    -0.977791   -0.977660    0.044951    0.045000    0.045000    0.045000
     0.045000    0.045000    0.045001    0.045002    0.045007    0.045011
     0.045043    0.045071    0.045467    0.094008    0.094223    0.113785
     0.113883    0.116885    0.116948    0.158434    0.159978    0.159992
     0.160000    0.162356    0.220803    0.233383    0.238059    0.248934
     0.249198    0.249763    0.249932    0.249960    0.250000    0.253030
     0.319414    0.336855    0.342234    0.342628    0.342731    0.342872
     0.343258    0.343783    0.343949    0.344335    0.345167    0.348602
     0.350306    0.350583    0.371928    0.407859    0.411413    0.413496
     0.422725    0.442414    0.451381    0.463480    0.469565    0.519450
     0.534660    0.960014    0.990108    1.022745    1.023778

 Minimum Search - Taking P-RFO Step
 Searching for Lamda that Maximizes Along the Constraint modes Only
 Value Taken    Lamda =   0.00001592
 Searching for Lamda that Minimizes Along All other modes
 Value Taken    Lamda =  -0.00386861
 Step Taken.  Stepsize is  0.147063

                             Maximum     Tolerance    Cnvgd?
         Gradient            0.017169       0.000300      NO
         Displacement        0.055543       0.001200      NO
         Energy change     -0.026489       0.000001      NO


 New Cartesian Coordinates Obtained by Inverse Iteration

 Displacement from previous Coordinates is:  0.627307
 Adding empirical dispersion correction 
 ----------------------------------------------------------------
 Doing -D3(op) with
 s6 =   1.00000
 s8 =   0.78311
 a1 =   0.30000
 a2 =   4.25000
 n  =  10.00000
 -D3 energy without 3body term =     -0.0279790908 hartrees
 ----------------------------------------------------------------
             Standard Nuclear Orientation (Angstroms)
    I     Atom           X                Y                Z
 ----------------------------------------------------------------
    1      C       0.3869878640    -0.9496795481    -0.0553513353
    2      C      -0.8456614900    -0.2481497718    -0.0722261983
    3      C       1.6804625102    -0.1435156171    -0.2367965818
    4      C      -0.8468950846     1.2921842344    -0.2310442003
    5      O       2.7854124665    -0.8760932788     0.2855663327
    6      O       1.7669478975     0.9994951385    -0.7536216517
    7      O      -0.2697884436     1.8656977046     0.9399231519
    8      O      -1.3245764336     1.9504495521    -1.1853813771
    9      C      -0.2182347762     3.3328079646     0.7861929401
   10      C       4.0242597004    -0.0948543378     0.1014931842
   11      C       0.4016771904    -2.3574707821     0.0811508401
   12      C      -0.8121198257    -3.0596199480     0.1913622432
   13      C      -2.0379445736    -2.3625699858     0.1596665167
   14      C      -2.0744751952    -0.9550305678     0.0267352548
   15      H       0.3760597017     3.6275623881    -0.1034417732
   16      H       4.2536502296     0.0638022522    -0.9730538290
   17      H      -2.9832981604    -2.9170243424     0.2401424007
   18      H      -1.2336881461     3.7722640606     0.6954194095
   19      H       0.2698043062     3.7135911568     1.7027369357
   20      H       4.8302668636    -0.6923726413     0.5671573074
   21      H       3.9612817756     0.8961582264     0.5971602399
   22      H      -0.8065945250    -4.1531709302     0.2964427851
   23      H       1.3635989039    -2.8881551489     0.0924685704
   24      C      -3.4185135854    -0.2071257407    -0.0132212100
   25      H      -3.5590990648     0.2825078534    -0.9916661760
   26      H      -3.4563422932     0.5741620249     0.7639869058
   27      H      -4.2510814562    -0.9071690040     0.1530334804
 ----------------------------------------------------------------
 Molecular Point Group                 C1    NOp =  1
 Largest Abelian Subgroup              C1    NOp =  1
 Nuclear Repulsion Energy =   991.4423466341 hartrees
 There are       55 alpha and       55 beta electrons
 Applying Cartesian multipole field
    Component          Value
    ---------          -----
     (2,0,0)        1.00000E-11
     (0,2,0)        2.00000E-11
     (0,0,2)       -3.00000E-11
 Nucleus-field energy     =     0.0000000386 hartrees
 Requested basis set is STO-3G
 There are 42 shells and 87 basis functions
 A cutoff of  1.0D-12 yielded    763 shell pairs
 There are      3688 function pairs
 Smallest overlap matrix eigenvalue = 1.82E-01
 Guess MOs from SCF MO coefficient file
 Reading MOs from coefficient file
 Reading MOs from coefficient file
 A restricted hybrid HF-DFT SCF calculation will be
 performed using Pulay DIIS extrapolation
 Exchange:     0.2000 Hartree-Fock + 0.0800 Slater + 0.7200 B88
 Correlation:  0.1900 VWN1RPA + 0.8100 LYP
 Using SG-1 standard quadrature grid
 Dispersion:   Grimme D3
 SCF converges when DIIS error is below 1.0E-08
 Geometry optimization detected.  Setting ReadMinima to 0
 Setting SaveMinima to 0
 -------------------------------------------------------
 OpenMP Integral computing Module                
 Release: version 1.0, May 2013, Q-Chem Inc. Pittsburgh 
 -------------------------------------------------------
 -------------------------------------------------------
 OpenMP BLAS3 based DFT computing Module                
 Release: version 1.0, May 2013, Q-Chem Inc. Pittsburgh 
 -------------------------------------------------------
 ---------------------------------------
  Cycle       Energy         DIIS Error
 ---------------------------------------
    1    -717.9154614651      3.29E-03
    2    -717.9533765764      8.00E-04
    3    -717.9513669988      1.60E-03
    4    -717.9540698621      2.23E-04
    5    -717.9541252057      6.67E-05
    6    -717.9541300072      2.20E-05
    7    -717.9541305551      8.60E-06
    8    -717.9541306346      4.22E-06
    9    -717.9541306527      1.36E-06
   10    -717.9541306549      2.02E-07
   11    -717.9541306550      5.52E-08
   12    -717.9541306550      2.02E-08
   13    -717.9541306550      8.28E-09 Convergence criterion met
 ---------------------------------------
 SCF time:  CPU 48.07 s  wall 2.03 s
 SCF   energy in the final basis set = -717.9541306550
 Total energy in the final basis set = -717.9541306550
 
 --------------------------------------------------------------
 
                    Orbital Energies (a.u.)
 --------------------------------------------------------------
 
 Alpha MOs
 -- Occupied --
-18.942 -18.932 -18.875 -18.869 -10.105 -10.100 -10.068 -10.059
-10.027 -10.027 -10.024 -10.020 -10.016 -10.015 -10.014  -1.016
 -1.006  -0.938  -0.931  -0.816  -0.735  -0.720  -0.673  -0.657
 -0.646  -0.586  -0.562  -0.507  -0.495  -0.458  -0.439  -0.426
 -0.415  -0.413  -0.406  -0.387  -0.379  -0.373  -0.368  -0.358
 -0.350  -0.342  -0.329  -0.312  -0.309  -0.295  -0.286  -0.260
 -0.251  -0.197  -0.192  -0.181  -0.171  -0.155  -0.148
 -- Virtual --
  0.046   0.071   0.115   0.136   0.238   0.251   0.277   0.318
  0.339   0.350   0.370   0.388   0.411   0.420   0.423   0.428
  0.429   0.436   0.436   0.440   0.446   0.454   0.461   0.474
  0.544   0.557   0.565   0.586   0.645   0.656   0.754   0.772
 --------------------------------------------------------------
 
          Ground-State Mulliken Net Atomic Charges

     Atom                 Charge (a.u.)
  ----------------------------------------
      1 C                    -0.016837
      2 C                    -0.015371
      3 C                     0.209349
      4 C                     0.214780
      5 O                    -0.166183
      6 O                    -0.211091
      7 O                    -0.167132
      8 O                    -0.209376
      9 C                    -0.126906
     10 C                    -0.126242
     11 C                    -0.074737
     12 C                    -0.076491
     13 C                    -0.076024
     14 C                     0.010693
     15 H                     0.094018
     16 H                     0.089518
     17 H                     0.080863
     18 H                     0.086596
     19 H                     0.088524
     20 H                     0.091230
     21 H                     0.091339
     22 H                     0.083481
     23 H                     0.091902
     24 C                    -0.224743
     25 H                     0.093054
     26 H                     0.084897
     27 H                     0.080889
  ----------------------------------------
  Sum of atomic charges =     0.000000

 -----------------------------------------------------------------
                    Cartesian Multipole Moments
 -----------------------------------------------------------------
    Charge (ESU x 10^10)
                 0.0000
    Dipole Moment (Debye)
         X       0.5592      Y      -0.6955      Z       1.1246
       Tot       1.4356
    Quadrupole Moments (Debye-Ang)
        XX     -69.0360     XY       1.9361     YY     -73.9643
        XZ      -1.5206     YZ       4.0999     ZZ     -83.3982
    Octopole Moments (Debye-Ang^2)
       XXX      37.9942    XXY       1.4924    XYY       0.8788
       YYY      26.9822    XXZ       1.3714    XYZ      -0.3195
       YYZ      10.3907    XZZ      10.0126    YZZ       8.7469
       ZZZ      -6.8828
    Hexadecapole Moments (Debye-Ang^3)
      XXXX   -1860.2789   XXXY     -38.3456   XXYY    -610.6799
      XYYY     -37.8871   YYYY   -1505.5972   XXXZ      -4.1221
      XXYZ       4.6538   XYYZ     -10.5137   YYYZ      12.6179
      XXZZ    -381.0140   XYZZ     -16.0256   YYZZ    -317.1222
      XZZZ      -7.8645   YZZZ      -2.4288   ZZZZ    -192.8725
 -----------------------------------------------------------------
 Calculating analytic gradient of the SCF energy
 Gradient of SCF Energy
            1           2           3           4           5           6
    1  -0.0016033   0.0012458   0.0056410   0.0040136  -0.0012480  -0.0006395
    2  -0.0008056  -0.0008860  -0.0032837   0.0034093   0.0019180   0.0027700
    3  -0.0005223   0.0012311   0.0009984   0.0066618   0.0003410  -0.0012173
            7           8           9          10          11          12
    1  -0.0007647  -0.0016784  -0.0011991  -0.0044305   0.0001051   0.0002773
    2  -0.0005490   0.0014855  -0.0044292  -0.0007222   0.0004958  -0.0002260
    3  -0.0020188  -0.0030749  -0.0019517  -0.0003037  -0.0001177   0.0000550
           13          14          15          16          17          18
    1  -0.0004260  -0.0000606   0.0002124   0.0002722  -0.0002634  -0.0005236
    2   0.0005012   0.0003736   0.0004093   0.0001094   0.0000356   0.0002447
    3  -0.0000867   0.0001958  -0.0004278  -0.0004792  -0.0001199   0.0000319
           19          20          21          22          23          24
    1   0.0003025  -0.0000290   0.0001742   0.0001140   0.0002233   0.0007879
    2  -0.0006864  -0.0005018   0.0005143  -0.0000931  -0.0002443   0.0006921
    3   0.0004547   0.0002965   0.0002367   0.0001041  -0.0001760  -0.0003438
           25          26          27
    1  -0.0001978  -0.0001058  -0.0001999
    2  -0.0001603   0.0000372  -0.0004083
    3  -0.0002063   0.0002110   0.0002282
 Max gradient component =       6.662E-03
 RMS gradient           =       1.602E-03
 Gradient time:  CPU 13.10 s  wall 0.55 s
 Geometry Optimization Parameters
   NAtoms,    NIC,     NZ,  NCons,   NDum,   NFix, NCnnct, MaxDiis
       27     173       0       2       0       0       0       0

 Cartesian Hessian Update
 Hessian Updated using BFGS Update


** CONSTRAINED OPTIMIZATION IN DELOCALIZED INTERNAL COORDINATES **
   Searching for a Minimum

   Optimization Cycle:   3

                       Coordinates (Angstroms)
     ATOM                X               Y               Z
      1  C         0.3869878640   -0.9496795481   -0.0553513353
      2  C        -0.8456614900   -0.2481497718   -0.0722261983
      3  C         1.6804625102   -0.1435156171   -0.2367965818
      4  C        -0.8468950846    1.2921842344   -0.2310442003
      5  O         2.7854124665   -0.8760932788    0.2855663327
      6  O         1.7669478975    0.9994951385   -0.7536216517
      7  O        -0.2697884436    1.8656977046    0.9399231519
      8  O        -1.3245764336    1.9504495521   -1.1853813771
      9  C        -0.2182347762    3.3328079646    0.7861929401
     10  C         4.0242597004   -0.0948543378    0.1014931842
     11  C         0.4016771904   -2.3574707821    0.0811508401
     12  C        -0.8121198257   -3.0596199480    0.1913622432
     13  C        -2.0379445736   -2.3625699858    0.1596665167
     14  C        -2.0744751952   -0.9550305678    0.0267352548
     15  H         0.3760597017    3.6275623881   -0.1034417732
     16  H         4.2536502296    0.0638022522   -0.9730538290
     17  H        -2.9832981604   -2.9170243424    0.2401424007
     18  H        -1.2336881461    3.7722640606    0.6954194095
     19  H         0.2698043062    3.7135911568    1.7027369357
     20  H         4.8302668636   -0.6923726413    0.5671573074
     21  H         3.9612817756    0.8961582264    0.5971602399
     22  H        -0.8065945250   -4.1531709302    0.2964427851
     23  H         1.3635989039   -2.8881551489    0.0924685704
     24  C        -3.4185135854   -0.2071257407   -0.0132212100
     25  H        -3.5590990648    0.2825078534   -0.9916661760
     26  H        -3.4563422932    0.5741620249    0.7639869058
     27  H        -4.2510814562   -0.9071690040    0.1530334804
   Point Group: c1    Number of degrees of freedom:    75


   Energy is   -717.954130655

              Constraints and their Current Values
                                        Value     Constraint
   Dihedral:        2   1   3   5      158.601      158.600
   Dihedral:        1   2   4   7      -67.299      -67.300
 Hessian Updated using BFGS Update

   Using Lagrange Multiplier Algorithm


 68 Hessian modes will be used to form the next step
  Hessian Eigenvalues:
    -0.977750   -0.976618    0.043850    0.045000    0.045000    0.045000
     0.045000    0.045000    0.045000    0.045002    0.045006    0.045010
     0.045025    0.045059    0.045244    0.045596    0.093134    0.094213
     0.112694    0.113893    0.116882    0.116948    0.157747    0.159986
     0.159996    0.160000    0.161284    0.163581    0.220883    0.234488
     0.238900    0.248962    0.249411    0.249810    0.249933    0.249993
     0.250000    0.251470    0.290531    0.319588    0.336763    0.342269
     0.342640    0.342726    0.342881    0.343342    0.343801    0.343972
     0.344423    0.345515    0.348664    0.350312    0.350693    0.374383
     0.394984    0.410647    0.413566    0.427102    0.442191    0.452259
     0.464042    0.468851    0.478566    0.534871    0.959902    1.005419
     1.022772    1.033054

 Minimum Search - Taking P-RFO Step
 Searching for Lamda that Maximizes Along the Constraint modes Only
 Value Taken    Lamda =   0.00000433
 Searching for Lamda that Minimizes Along All other modes
 Value Taken    Lamda =  -0.00044585
 Step Taken.  Stepsize is  0.042472

                             Maximum     Tolerance    Cnvgd?
         Gradient            0.005653       0.000300      NO
         Displacement        0.017225       0.001200      NO
         Energy change     -0.001914       0.000001      NO


 New Cartesian Coordinates Obtained by Inverse Iteration

 Displacement from previous Coordinates is:  0.128438
 Adding empirical dispersion correction 
 ----------------------------------------------------------------
 Doing -D3(op) with
 s6 =   1.00000
 s8 =   0.78311
 a1 =   0.30000
 a2 =   4.25000
 n  =  10.00000
 -D3 energy without 3body term =     -0.0279527555 hartrees
 ----------------------------------------------------------------
             Standard Nuclear Orientation (Angstroms)
    I     Atom           X                Y                Z
 ----------------------------------------------------------------
    1      C       0.3826558119    -0.9456755334    -0.0567141377
    2      C      -0.8540420326    -0.2472769192    -0.0716752556
    3      C       1.6770007460    -0.1410339769    -0.2343112642
    4      C      -0.8623119444     1.2932620184    -0.2323113577
    5      O       2.7876417811    -0.8771690198     0.2881570695
    6      O       1.7703059169     0.9999135922    -0.7511482206
    7      O      -0.2825679887     1.8778765807     0.9409968955
    8      O      -1.3353904942     1.9494938824    -1.1879140344
    9      C      -0.2160832382     3.3505371514     0.7897405108
   10      C       4.0379073380    -0.1044877067     0.1014760930
   11      C       0.4010891369    -2.3534827921     0.0797385778
   12      C      -0.8099086853    -3.0599755454     0.1883813253
   13      C      -2.0373998011    -2.3679039573     0.1574397232
   14      C      -2.0795588031    -0.9604828213     0.0262575680
   15      H       0.3855971498     3.6356667628    -0.0969545351
   16      H       4.2636456961     0.0510368845    -0.9733973236
   17      H      -2.9802155269    -2.9260939854     0.2387156336
   18      H      -1.2264157198     3.7971974638     0.6891695349
   19      H       0.2682291767     3.7315723236     1.7075850230
   20      H       4.8411579503    -0.7054636821     0.5660173215
   21      H       3.9798032445     0.8873081829     0.5940985893
   22      H      -0.8015274689    -4.1534488255     0.2926763112
   23      H       1.3655075515    -2.8787213908     0.0933946784
   24      C      -3.4264250504    -0.2167599002    -0.0121765057
   25      H      -3.5642022401     0.2771628393    -0.9886788838
   26      H      -3.4640714636     0.5631686404     0.7660763311
   27      H      -4.2583246863    -0.9175393544     0.1501944984
 ----------------------------------------------------------------
 Molecular Point Group                 C1    NOp =  1
 Largest Abelian Subgroup              C1    NOp =  1
 Nuclear Repulsion Energy =   989.7297491830 hartrees
 There are       55 alpha and       55 beta electrons
 Applying Cartesian multipole field
    Component          Value
    ---------          -----
     (2,0,0)        1.00000E-11
     (0,2,0)        2.00000E-11
     (0,0,2)       -3.00000E-11
 Nucleus-field energy     =     0.0000000388 hartrees
 Requested basis set is STO-3G
 There are 42 shells and 87 basis functions
 A cutoff of  1.0D-12 yielded    763 shell pairs
 There are      3688 function pairs
 Smallest overlap matrix eigenvalue = 1.82E-01
 Guess MOs from SCF MO coefficient file
 Reading MOs from coefficient file
 Reading MOs from coefficient file
 A restricted hybrid HF-DFT SCF calculation will be
 performed using Pulay DIIS extrapolation
 Exchange:     0.2000 Hartree-Fock + 0.0800 Slater + 0.7200 B88
 Correlation:  0.1900 VWN1RPA + 0.8100 LYP
 Using SG-1 standard quadrature grid
 Dispersion:   Grimme D3
 SCF converges when DIIS error is below 1.0E-08
 Geometry optimization detected.  Setting ReadMinima to 0
 Setting SaveMinima to 0
 -------------------------------------------------------
 OpenMP Integral computing Module                
 Release: version 1.0, May 2013, Q-Chem Inc. Pittsburgh 
 -------------------------------------------------------
 -------------------------------------------------------
 OpenMP BLAS3 based DFT computing Module                
 Release: version 1.0, May 2013, Q-Chem Inc. Pittsburgh 
 -------------------------------------------------------
 ---------------------------------------
  Cycle       Energy         DIIS Error
 ---------------------------------------
    1    -717.9495148698      8.36E-04
    2    -717.9542479888      2.90E-04
    3    -717.9539547741      5.89E-04
    4    -717.9543412977      5.84E-05
    5    -717.9543449983      1.26E-05
    6    -717.9543451597      4.84E-06
    7    -717.9543451857      2.25E-06
    8    -717.9543451909      8.22E-07
    9    -717.9543451915      2.96E-07
   10    -717.9543451916      3.98E-08
   11    -717.9543451916      1.37E-08
   12    -717.9543451916      4.29E-09 Convergence criterion met
 ---------------------------------------
 SCF time:  CPU 48.87 s  wall 2.07 s
 SCF   energy in the final basis set = -717.9543451916
 Total energy in the final basis set = -717.9543451916
 
 --------------------------------------------------------------
 
                    Orbital Energies (a.u.)
 --------------------------------------------------------------
 
 Alpha MOs
 -- Occupied --
-18.939 -18.929 -18.875 -18.871 -10.104 -10.100 -10.067 -10.058
-10.028 -10.028 -10.025 -10.020 -10.016 -10.016 -10.014  -1.013
 -1.003  -0.937  -0.930  -0.816  -0.735  -0.720  -0.672  -0.657
 -0.646  -0.587  -0.563  -0.507  -0.495  -0.457  -0.438  -0.426
 -0.414  -0.413  -0.404  -0.387  -0.379  -0.373  -0.368  -0.359
 -0.350  -0.342  -0.329  -0.313  -0.309  -0.295  -0.287  -0.259
 -0.250  -0.197  -0.193  -0.180  -0.170  -0.155  -0.148
 -- Virtual --
  0.045   0.070   0.114   0.136   0.237   0.247   0.273   0.317
  0.338   0.349   0.369   0.387   0.410   0.421   0.423   0.428
  0.430   0.436   0.436   0.441   0.446   0.453   0.461   0.474
  0.544   0.557   0.564   0.586   0.645   0.656   0.753   0.772
 --------------------------------------------------------------
 
          Ground-State Mulliken Net Atomic Charges

     Atom                 Charge (a.u.)
  ----------------------------------------
      1 C                    -0.016328
      2 C                    -0.015082
      3 C                     0.208559
      4 C                     0.214010
      5 O                    -0.166398
      6 O                    -0.210683
      7 O                    -0.167012
      8 O                    -0.208434
      9 C                    -0.128390
     10 C                    -0.127569
     11 C                    -0.074580
     12 C                    -0.076421
     13 C                    -0.076030
     14 C                     0.010964
     15 H                     0.093832
     16 H                     0.089438
     17 H                     0.081083
     18 H                     0.086603
     19 H                     0.089015
     20 H                     0.091530
     21 H                     0.091313
     22 H                     0.083700
     23 H                     0.092402
     24 C                    -0.225008
     25 H                     0.093091
     26 H                     0.085169
     27 H                     0.081226
  ----------------------------------------
  Sum of atomic charges =     0.000000

 -----------------------------------------------------------------
                    Cartesian Multipole Moments
 -----------------------------------------------------------------
    Charge (ESU x 10^10)
                 0.0000
    Dipole Moment (Debye)
         X       0.5284      Y      -0.7099      Z       1.1038
       Tot       1.4147
    Quadrupole Moments (Debye-Ang)
        XX     -69.0091     XY       1.9664     YY     -73.8523
        XZ      -1.5069     YZ       4.0843     ZZ     -83.4030
    Octopole Moments (Debye-Ang^2)
       XXX      38.7453    XXY       1.2749    XYY       1.0079
       YYY      27.2805    XXZ       1.3962    XYZ      -0.2793
       YYZ      10.4854    XZZ      10.2266    YZZ       8.7292
       ZZZ      -6.8766
    Hexadecapole Moments (Debye-Ang^3)
      XXXX   -1866.2783   XXXY     -38.0565   XXYY    -613.1708
      XYYY     -37.1050   YYYY   -1509.2178   XXXZ      -4.4300
      XXYZ       4.3449   XYYZ     -10.5192   YYYZ      12.4672
      XXZZ    -382.8327   XYZZ     -15.7506   YYZZ    -318.1072
      XZZZ      -8.3548   YZZZ      -3.2031   ZZZZ    -193.0718
 -----------------------------------------------------------------
 Calculating analytic gradient of the SCF energy
 Gradient of SCF Energy
            1           2           3           4           5           6
    1  -0.0007679  -0.0000001   0.0003843   0.0002587  -0.0007376  -0.0000599
    2  -0.0008722  -0.0006103  -0.0017873  -0.0003822   0.0009266   0.0009497
    3  -0.0013548   0.0010093  -0.0001977   0.0012486   0.0008435  -0.0005329
            7           8           9          10          11          12
    1  -0.0001719  -0.0003179   0.0003449   0.0009663  -0.0000364  -0.0000001
    2  -0.0001017   0.0005719   0.0007537  -0.0001464  -0.0000020   0.0003050
    3  -0.0006558  -0.0008957   0.0006285   0.0002564  -0.0000091  -0.0000532
           13          14          15          16          17          18
    1   0.0001425   0.0000701  -0.0002917  -0.0000680  -0.0000626   0.0001361
    2   0.0001655  -0.0001591  -0.0000562   0.0001186   0.0000554  -0.0000442
    3  -0.0000982   0.0001228  -0.0000446   0.0001040  -0.0000395  -0.0000786
           19          20          21          22          23          24
    1   0.0001083   0.0001690  -0.0000719  -0.0000412   0.0000252  -0.0002771
    2   0.0001717   0.0000389  -0.0000359   0.0000114   0.0000771   0.0000938
    3   0.0000213  -0.0000088  -0.0001978   0.0000645  -0.0000793  -0.0000338
           25          26          27
    1   0.0000887   0.0001781   0.0000322
    2  -0.0000319   0.0000927  -0.0001026
    3   0.0000010  -0.0001219   0.0001016
 Max gradient component =       1.787E-03
 RMS gradient           =       4.648E-04
 Gradient time:  CPU 12.57 s  wall 0.53 s
 Geometry Optimization Parameters
   NAtoms,    NIC,     NZ,  NCons,   NDum,   NFix, NCnnct, MaxDiis
       27     173       0       2       0       0       0       0

 Cartesian Hessian Update
 Hessian Updated using BFGS Update


** CONSTRAINED OPTIMIZATION IN DELOCALIZED INTERNAL COORDINATES **
   Searching for a Minimum

   Optimization Cycle:   4

                       Coordinates (Angstroms)
     ATOM                X               Y               Z
      1  C         0.3826558119   -0.9456755334   -0.0567141377
      2  C        -0.8540420326   -0.2472769192   -0.0716752556
      3  C         1.6770007460   -0.1410339769   -0.2343112642
      4  C        -0.8623119444    1.2932620184   -0.2323113577
      5  O         2.7876417811   -0.8771690198    0.2881570695
      6  O         1.7703059169    0.9999135922   -0.7511482206
      7  O        -0.2825679887    1.8778765807    0.9409968955
      8  O        -1.3353904942    1.9494938824   -1.1879140344
      9  C        -0.2160832382    3.3505371514    0.7897405108
     10  C         4.0379073380   -0.1044877067    0.1014760930
     11  C         0.4010891369   -2.3534827921    0.0797385778
     12  C        -0.8099086853   -3.0599755454    0.1883813253
     13  C        -2.0373998011   -2.3679039573    0.1574397232
     14  C        -2.0795588031   -0.9604828213    0.0262575680
     15  H         0.3855971498    3.6356667628   -0.0969545351
     16  H         4.2636456961    0.0510368845   -0.9733973236
     17  H        -2.9802155269   -2.9260939854    0.2387156336
     18  H        -1.2264157198    3.7971974638    0.6891695349
     19  H         0.2682291767    3.7315723236    1.7075850230
     20  H         4.8411579503   -0.7054636821    0.5660173215
     21  H         3.9798032445    0.8873081829    0.5940985893
     22  H        -0.8015274689   -4.1534488255    0.2926763112
     23  H         1.3655075515   -2.8787213908    0.0933946784
     24  C        -3.4264250504   -0.2167599002   -0.0121765057
     25  H        -3.5642022401    0.2771628393   -0.9886788838
     26  H        -3.4640714636    0.5631686404    0.7660763311
     27  H        -4.2583246863   -0.9175393544    0.1501944984
   Point Group: c1    Number of degrees of freedom:    75


   Energy is   -717.954345192

              Constraints and their Current Values
                                        Value     Constraint
   Dihedral:        2   1   3   5      158.600      158.600
   Dihedral:        1   2   4   7      -67.300      -67.300
 Hessian Updated using BFGS Update

 63 Hessian modes will be used to form the next step
  Hessian Eigenvalues:
     0.042145    0.045000    0.045000    0.045000    0.045002    0.045006
     0.045009    0.045012    0.045039    0.045121    0.045308    0.045638
     0.093583    0.094213    0.113885    0.114621    0.116870    0.116947
     0.158157    0.159986    0.159995    0.160000    0.160051    0.161282
     0.164040    0.220753    0.232224    0.234868    0.248966    0.249420
     0.249598    0.249935    0.249943    0.249998    0.250954    0.293407
     0.319383    0.336146    0.342226    0.342641    0.342725    0.342882
     0.343378    0.343830    0.343899    0.344418    0.347526    0.348810
     0.350320    0.350813    0.368767    0.408406    0.411959    0.413688
     0.442079    0.451154    0.458833    0.464449    0.465783    0.504630
     0.537118    0.959928    0.985171

 Minimum Search - Taking Simple RFO Step
 Searching for Lamda that Minimizes Along All modes
 Value Taken    Lamda =  -0.00002642
 Step Taken.  Stepsize is  0.013202

                             Maximum     Tolerance    Cnvgd?
         Gradient           0.001432      0.000300      NO
         Displacement       0.004711      0.001200      NO
         Energy change     -0.000215      0.000001      NO


 New Cartesian Coordinates Obtained by Inverse Iteration

 Displacement from previous Coordinates is:  0.038405
 Adding empirical dispersion correction 
 ----------------------------------------------------------------
 Doing -D3(op) with
 s6 =   1.00000
 s8 =   0.78311
 a1 =   0.30000
 a2 =   4.25000
 n  =  10.00000
 -D3 energy without 3body term =     -0.0279535505 hartrees
 ----------------------------------------------------------------
             Standard Nuclear Orientation (Angstroms)
    I     Atom           X                Y                Z
 ----------------------------------------------------------------
    1      C       0.3830187468    -0.9419313909    -0.0569341350
    2      C      -0.8546821427    -0.2449819389    -0.0713066506
    3      C       1.6775932254    -0.1387054635    -0.2335567927
    4      C      -0.8643580561     1.2945886047    -0.2313448046
    5      O       2.7860739859    -0.8782181467     0.2894150205
    6      O       1.7742101128     1.0020619170    -0.7487781020
    7      O      -0.2845726309     1.8782249663     0.9426686743
    8      O      -1.3376859946     1.9511583765    -1.1857852201
    9      C      -0.2155919154     3.3498351467     0.7870094629
   10      C       4.0361692171    -0.1067831201     0.1015942836
   11      C       0.4022830568    -2.3501856210     0.0790540165
   12      C      -0.8077458396    -3.0586819200     0.1868959646
   13      C      -2.0360137349    -2.3678865568     0.1565049986
   14      C      -2.0796003626    -0.9600070574     0.0263908513
   15      H       0.3917536454     3.6320580752    -0.0970015611
   16      H       4.2620226823     0.0475209492    -0.9735774255
   17      H      -2.9779396740    -2.9275093593     0.2379257396
   18      H      -1.2248316203     3.7982610771     0.6815366019
   19      H       0.2650705572     3.7317013259     1.7062424935
   20      H       4.8380252537    -0.7096077014     0.5658571796
   21      H       3.9805469639     0.8848727235     0.5951011189
   22      H      -0.7977959777    -4.1522638825     0.2901490364
   23      H       1.3669853683    -2.8749061761     0.0932131309
   24      C      -3.4276257539    -0.2180252931    -0.0104660715
   25      H      -3.5666892112     0.2782649459    -0.9856438852
   26      H      -3.4676324541     0.5596944372     0.7699562557
   27      H      -4.2588910915    -0.9198680055     0.1497139853
 ----------------------------------------------------------------
 Molecular Point Group                 C1    NOp =  1
 Largest Abelian Subgroup              C1    NOp =  1
 Nuclear Repulsion Energy =   989.8214781495 hartrees
 There are       55 alpha and       55 beta electrons
 Applying Cartesian multipole field
    Component          Value
    ---------          -----
     (2,0,0)        1.00000E-11
     (0,2,0)        2.00000E-11
     (0,0,2)       -3.00000E-11
 Nucleus-field energy     =     0.0000000388 hartrees
 Requested basis set is STO-3G
 There are 42 shells and 87 basis functions
 A cutoff of  1.0D-12 yielded    763 shell pairs
 There are      3688 function pairs
 Smallest overlap matrix eigenvalue = 1.82E-01
 Guess MOs from SCF MO coefficient file
 Reading MOs from coefficient file
 Reading MOs from coefficient file
 A restricted hybrid HF-DFT SCF calculation will be
 performed using Pulay DIIS extrapolation
 Exchange:     0.2000 Hartree-Fock + 0.0800 Slater + 0.7200 B88
 Correlation:  0.1900 VWN1RPA + 0.8100 LYP
 Using SG-1 standard quadrature grid
 Dispersion:   Grimme D3
 SCF converges when DIIS error is below 1.0E-08
 Geometry optimization detected.  Setting ReadMinima to 0
 Setting SaveMinima to 0
 -------------------------------------------------------
 OpenMP Integral computing Module                
 Release: version 1.0, May 2013, Q-Chem Inc. Pittsburgh 
 -------------------------------------------------------
 -------------------------------------------------------
 OpenMP BLAS3 based DFT computing Module                
 Release: version 1.0, May 2013, Q-Chem Inc. Pittsburgh 
 -------------------------------------------------------
 ---------------------------------------
  Cycle       Energy         DIIS Error
 ---------------------------------------
    1    -717.9547551804      2.07E-04
    2    -717.9543531408      2.35E-05
    3    -717.9543518950      4.14E-05
    4    -717.9543539091      1.07E-05
    5    -717.9543540180      3.76E-06
    6    -717.9543540325      1.27E-06
    7    -717.9543540344      2.58E-07
    8    -717.9543540345      7.77E-08
    9    -717.9543540345      1.73E-08
   10    -717.9543540345      1.32E-08
   11    -717.9543540345      3.45E-09 Convergence criterion met
 ---------------------------------------
 SCF time:  CPU 40.84 s  wall 1.72 s
 SCF   energy in the final basis set = -717.9543540345
 Total energy in the final basis set = -717.9543540345
 
 --------------------------------------------------------------
 
                    Orbital Energies (a.u.)
 --------------------------------------------------------------
 
 Alpha MOs
 -- Occupied --
-18.939 -18.929 -18.876 -18.871 -10.105 -10.100 -10.067 -10.058
-10.028 -10.028 -10.025 -10.020 -10.016 -10.016 -10.014  -1.013
 -1.004  -0.937  -0.930  -0.816  -0.735  -0.720  -0.672  -0.656
 -0.646  -0.587  -0.563  -0.507  -0.495  -0.457  -0.439  -0.426
 -0.414  -0.413  -0.404  -0.387  -0.379  -0.373  -0.368  -0.359
 -0.350  -0.342  -0.330  -0.313  -0.309  -0.295  -0.287  -0.259
 -0.251  -0.197  -0.192  -0.180  -0.170  -0.156  -0.149
 -- Virtual --
  0.045   0.070   0.114   0.136   0.237   0.248   0.273   0.317
  0.338   0.349   0.369   0.387   0.410   0.421   0.423   0.429
  0.430   0.436   0.436   0.440   0.446   0.453   0.461   0.474
  0.544   0.557   0.564   0.586   0.645   0.657   0.753   0.771
 --------------------------------------------------------------
 
          Ground-State Mulliken Net Atomic Charges

     Atom                 Charge (a.u.)
  ----------------------------------------
      1 C                    -0.016405
      2 C                    -0.015163
      3 C                     0.208714
      4 C                     0.214201
      5 O                    -0.166405
      6 O                    -0.210754
      7 O                    -0.166904
      8 O                    -0.208340
      9 C                    -0.128381
     10 C                    -0.127537
     11 C                    -0.074464
     12 C                    -0.076463
     13 C                    -0.075988
     14 C                     0.011021
     15 H                     0.093766
     16 H                     0.089363
     17 H                     0.081096
     18 H                     0.086637
     19 H                     0.088893
     20 H                     0.091386
     21 H                     0.091263
     22 H                     0.083716
     23 H                     0.092398
     24 C                    -0.225056
     25 H                     0.093022
     26 H                     0.085151
     27 H                     0.081234
  ----------------------------------------
  Sum of atomic charges =     0.000000

 -----------------------------------------------------------------
                    Cartesian Multipole Moments
 -----------------------------------------------------------------
    Charge (ESU x 10^10)
                 0.0000
    Dipole Moment (Debye)
         X       0.5211      Y      -0.7154      Z       1.0961
       Tot       1.4088
    Quadrupole Moments (Debye-Ang)
        XX     -69.0509     XY       1.9564     YY     -73.8744
        XZ      -1.5088     YZ       4.0703     ZZ     -83.3996
    Octopole Moments (Debye-Ang^2)
       XXX      38.5045    XXY       1.1703    XYY       1.0067
       YYY      26.9865    XXZ       1.3780    XYZ      -0.2743
       YYZ      10.4120    XZZ      10.2324    YZZ       8.6642
       ZZZ      -6.9532
    Hexadecapole Moments (Debye-Ang^3)
      XXXX   -1867.5212   XXXY     -37.9107   XXYY    -613.0941
      XYYY     -36.7242   YYYY   -1508.8210   XXXZ      -4.4777
      XXYZ       4.3818   XYYZ     -10.4903   YYYZ      12.3740
      XXZZ    -382.7850   XYZZ     -15.6399   YYZZ    -317.9945
      XZZZ      -8.3740   YZZZ      -3.2608   ZZZZ    -192.6863
 -----------------------------------------------------------------
 Calculating analytic gradient of the SCF energy
 Gradient of SCF Energy
            1           2           3           4           5           6
    1  -0.0001694   0.0001623   0.0005218  -0.0000141  -0.0004356  -0.0000220
    2  -0.0002203   0.0001140  -0.0009800   0.0001272   0.0005020   0.0002364
    3  -0.0014383   0.0011258  -0.0006887   0.0003301   0.0010954  -0.0001787
            7           8           9          10          11          12
    1  -0.0000507  -0.0000201   0.0001293   0.0002765   0.0000168  -0.0000701
    2  -0.0001198   0.0000649   0.0002417   0.0000692  -0.0000239  -0.0000021
    3  -0.0000155  -0.0001555   0.0001134   0.0000449   0.0000129  -0.0000310
           13          14          15          16          17          18
    1   0.0000519  -0.0000282  -0.0000742  -0.0000149   0.0000060  -0.0000230
    2  -0.0001209   0.0000263   0.0000129  -0.0000035  -0.0000094   0.0000299
    3  -0.0001017   0.0000721  -0.0000897  -0.0000350  -0.0000061   0.0000542
           19          20          21          22          23          24
    1   0.0000508  -0.0000767  -0.0000258  -0.0000346  -0.0000159  -0.0001850
    2  -0.0000275  -0.0000175   0.0000226  -0.0000190  -0.0000014  -0.0000399
    3  -0.0000724  -0.0000090  -0.0000195   0.0000424  -0.0000301   0.0000171
           25          26          27
    1  -0.0000265   0.0000402   0.0000312
    2  -0.0000347   0.0000961   0.0000769
    3  -0.0000248  -0.0000903   0.0000781
 Max gradient component =       1.438E-03
 RMS gradient           =       3.019E-04
 Gradient time:  CPU 12.79 s  wall 0.54 s
 Geometry Optimization Parameters
   NAtoms,    NIC,     NZ,  NCons,   NDum,   NFix, NCnnct, MaxDiis
       27     173       0       2       0       0       0       0

 Cartesian Hessian Update
 Hessian Updated using BFGS Update


** CONSTRAINED OPTIMIZATION IN DELOCALIZED INTERNAL COORDINATES **
   Searching for a Minimum

   Optimization Cycle:   5

                       Coordinates (Angstroms)
     ATOM                X               Y               Z
      1  C         0.3830187468   -0.9419313909   -0.0569341350
      2  C        -0.8546821427   -0.2449819389   -0.0713066506
      3  C         1.6775932254   -0.1387054635   -0.2335567927
      4  C        -0.8643580561    1.2945886047   -0.2313448046
      5  O         2.7860739859   -0.8782181467    0.2894150205
      6  O         1.7742101128    1.0020619170   -0.7487781020
      7  O        -0.2845726309    1.8782249663    0.9426686743
      8  O        -1.3376859946    1.9511583765   -1.1857852201
      9  C        -0.2155919154    3.3498351467    0.7870094629
     10  C         4.0361692171   -0.1067831201    0.1015942836
     11  C         0.4022830568   -2.3501856210    0.0790540165
     12  C        -0.8077458396   -3.0586819200    0.1868959646
     13  C        -2.0360137349   -2.3678865568    0.1565049986
     14  C        -2.0796003626   -0.9600070574    0.0263908513
     15  H         0.3917536454    3.6320580752   -0.0970015611
     16  H         4.2620226823    0.0475209492   -0.9735774255
     17  H        -2.9779396740   -2.9275093593    0.2379257396
     18  H        -1.2248316203    3.7982610771    0.6815366019
     19  H         0.2650705572    3.7317013259    1.7062424935
     20  H         4.8380252537   -0.7096077014    0.5658571796
     21  H         3.9805469639    0.8848727235    0.5951011189
     22  H        -0.7977959777   -4.1522638825    0.2901490364
     23  H         1.3669853683   -2.8749061761    0.0932131309
     24  C        -3.4276257539   -0.2180252931   -0.0104660715
     25  H        -3.5666892112    0.2782649459   -0.9856438852
     26  H        -3.4676324541    0.5596944372    0.7699562557
     27  H        -4.2588910915   -0.9198680055    0.1497139853
   Point Group: c1    Number of degrees of freedom:    75


   Energy is   -717.954354035

              Constraints and their Current Values
                                        Value     Constraint
   Dihedral:        2   1   3   5      158.600      158.600
   Dihedral:        1   2   4   7      -67.300      -67.300
 Hessian Updated using BFGS Update

 64 Hessian modes will be used to form the next step
  Hessian Eigenvalues:
     0.030634    0.044410    0.045000    0.045000    0.045001    0.045003
     0.045007    0.045011    0.045046    0.045148    0.045242    0.045779
     0.093078    0.094214    0.113881    0.114753    0.116881    0.116973
     0.157852    0.159748    0.159988    0.159996    0.161033    0.162484
     0.165555    0.221649    0.228529    0.234873    0.244386    0.249015
     0.249442    0.249895    0.249994    0.249998    0.250803    0.259319
     0.300898    0.320182    0.336259    0.342492    0.342638    0.342682
     0.342872    0.343425    0.343667    0.343837    0.344359    0.348485
     0.348723    0.350294    0.350520    0.365510    0.410183    0.413016
     0.418552    0.441817    0.446461    0.453178    0.464046    0.475297
     0.512880    0.535194    0.957553    0.972439

 Minimum Search - Taking Simple RFO Step
 Searching for Lamda that Minimizes Along All modes
 Value Taken    Lamda =  -0.00000830
 Step Taken.  Stepsize is  0.014948

                             Maximum     Tolerance    Cnvgd?
         Gradient           0.000341      0.000300      NO
         Displacement       0.006149      0.001200      NO
         Energy change     -0.000009      0.000001      NO


 New Cartesian Coordinates Obtained by Inverse Iteration

 Displacement from previous Coordinates is:  0.044442
 Adding empirical dispersion correction 
 ----------------------------------------------------------------
 Doing -D3(op) with
 s6 =   1.00000
 s8 =   0.78311
 a1 =   0.30000
 a2 =   4.25000
 n  =  10.00000
 -D3 energy without 3body term =     -0.0279624501 hartrees
 ----------------------------------------------------------------
             Standard Nuclear Orientation (Angstroms)
    I     Atom           X                Y                Z
 ----------------------------------------------------------------
    1      C       0.3818755869    -0.9398260707    -0.0572504582
    2      C      -0.8564208462    -0.2443959280    -0.0708844079
    3      C       1.6758441311    -0.1360346884    -0.2327366560
    4      C      -0.8662569259     1.2943890617    -0.2312474341
    5      O       2.7841100104    -0.8767829975     0.2900284049
    6      O       1.7732750764     1.0052932497    -0.7457121936
    7      O      -0.2855598113     1.8773628727     0.9428433288
    8      O      -1.3392635434     1.9513228507    -1.1852409619
    9      C      -0.2112548446     3.3480288416     0.7842525163
   10      C       4.0342445362    -0.1060229218     0.1024972869
   11      C       0.4023779683    -2.3481743747     0.0780046872
   12      C      -0.8068893847    -3.0579964855     0.1854162126
   13      C      -2.0359048470    -2.3683064343     0.1558739089
   14      C      -2.0805875989    -0.9604569082     0.0267188272
   15      H       0.4033347077     3.6263671972    -0.0959720908
   16      H       4.2601260867     0.0489635667    -0.9725471179
   17      H      -2.9773743879    -2.9286874080     0.2374638590
   18      H      -1.2183098892     3.7994553371     0.6713245666
   19      H       0.2645490408     3.7304386554     1.7058753955
   20      H       4.8361193712    -0.7096778964     0.5658614104
   21      H       3.9798145361     0.8850603847     0.5972429416
   22      H      -0.7956091765    -4.1516340632     0.2875672851
   23      H       1.3675545859    -2.8720578893     0.0923398282
   24      C      -3.4290455025    -0.2196866478    -0.0084895492
   25      H      -3.5683091849     0.2798690986    -0.9819758113
   26      H      -3.4706592949     0.5549502228     0.7749545006
   27      H      -4.2596840440    -0.9230797133     0.1486258870
 ----------------------------------------------------------------
 Molecular Point Group                 C1    NOp =  1
 Largest Abelian Subgroup              C1    NOp =  1
 Nuclear Repulsion Energy =   990.0234301867 hartrees
 There are       55 alpha and       55 beta electrons
 Applying Cartesian multipole field
    Component          Value
    ---------          -----
     (2,0,0)        1.00000E-11
     (0,2,0)        2.00000E-11
     (0,0,2)       -3.00000E-11
 Nucleus-field energy     =     0.0000000388 hartrees
 Requested basis set is STO-3G
 There are 42 shells and 87 basis functions
 A cutoff of  1.0D-12 yielded    763 shell pairs
 There are      3688 function pairs
 Smallest overlap matrix eigenvalue = 1.82E-01
 Guess MOs from SCF MO coefficient file
 Reading MOs from coefficient file
 Reading MOs from coefficient file
[...]
 IR Intens:       10.537                  3.343                  9.955
 Raman Active:       YES                    YES                    YES
               X      Y      Z        X      Y      Z        X      Y      Z
 C         -0.005 -0.008  0.001    0.073  0.005 -0.000    0.225  0.009  0.000
 C          0.003  0.002 -0.000   -0.032  0.057 -0.007   -0.311 -0.053 -0.001
 C          0.012 -0.001  0.001   -0.025 -0.002  0.000   -0.036 -0.023  0.007
 C         -0.001 -0.001 -0.000    0.004 -0.018 -0.007    0.030  0.012 -0.019
 O         -0.002 -0.017  0.005    0.002 -0.000  0.000   -0.005  0.002 -0.001
 O         -0.004  0.006 -0.002    0.003 -0.001  0.000    0.005  0.012 -0.004
 O         -0.000  0.001 -0.002   -0.001  0.004  0.002   -0.003  0.003  0.003
 O          0.000  0.000  0.001    0.001 -0.001  0.003   -0.003 -0.008  0.013
 C         -0.002  0.002 -0.005   -0.002  0.006 -0.001   -0.001  0.000  0.001
 C         -0.007 -0.054  0.015    0.006  0.004 -0.001    0.003  0.001  0.000
 C         -0.003  0.003 -0.000   -0.031 -0.063  0.007   -0.238 -0.173  0.019
 C          0.009  0.003 -0.000   -0.026  0.038 -0.005    0.402  0.070 -0.005
 C         -0.000 -0.006  0.001    0.042 -0.011  0.001   -0.211  0.025 -0.005
 C         -0.003  0.002  0.000   -0.031 -0.067  0.012    0.228  0.125 -0.011
 H          0.052 -0.024  0.047    0.029 -0.029  0.019   -0.005 -0.015 -0.010
 H          0.096  0.624  0.253   -0.028 -0.030 -0.016   -0.002 -0.010 -0.004
 H         -0.017  0.017 -0.003   -0.066  0.149 -0.020   -0.071 -0.200  0.023
 H         -0.034 -0.034  0.052   -0.023 -0.044  0.011    0.000  0.010  0.001
 H          0.007  0.029 -0.014    0.018 -0.011  0.002   -0.009 -0.006  0.004
 H         -0.137 -0.167  0.028   -0.014 -0.018  0.002    0.009  0.005 -0.002
 H          0.116  0.417 -0.531   -0.031 -0.018  0.026   -0.003 -0.006  0.008
 H         -0.028  0.000 -0.000    0.086  0.056 -0.005   -0.529 -0.002 -0.005
 H         -0.005  0.003  0.000    0.101  0.221 -0.026   -0.022  0.336 -0.039
 C         -0.002 -0.002  0.002   -0.032 -0.018  0.013   -0.028 -0.011  0.001
 H         -0.004  0.022  0.011    0.031  0.489  0.191    0.017 -0.064 -0.023
 H          0.020  0.025 -0.025    0.115  0.385 -0.425    0.062 -0.041  0.050
 H          0.017 -0.024 -0.014    0.333 -0.371 -0.000   -0.130  0.085 -0.038
 TransDip  -0.079  0.066 -0.014   -0.007  0.047 -0.034   -0.072 -0.071 -0.002

 Mode:                61                     62                     63
 Frequency:      1629.85                1766.38                1787.27
 Force Cnst:      9.0180                21.5726                22.3033
 Red. Mass:       5.7618                11.7350                11.8506
 IR Active:          YES                    YES                    YES
 IR Intens:        9.916                250.105                272.141
 Raman Active:       YES                    YES                    YES
               X      Y      Z        X      Y      Z        X      Y      Z
 C          0.089 -0.259  0.034   -0.009 -0.115  0.019    0.011  0.004 -0.001
 C         -0.078  0.152 -0.018   -0.025  0.040 -0.007   -0.030  0.078 -0.028
 C         -0.018 -0.034  0.012    0.037  0.758 -0.198   -0.010 -0.053  0.014
 C          0.001 -0.019 -0.031    0.029 -0.012  0.047    0.234 -0.384  0.643
 O         -0.003 -0.004  0.001    0.011 -0.051  0.014    0.001  0.004 -0.001
 O          0.008  0.044 -0.012   -0.006 -0.476  0.128    0.002  0.035 -0.012
 O          0.000  0.004  0.004   -0.006 -0.004 -0.006   -0.016  0.008 -0.049
 O          0.005 -0.008  0.020   -0.013  0.010 -0.028   -0.151  0.226 -0.429
 C         -0.001  0.004  0.001    0.001 -0.002 -0.002    0.004 -0.029  0.009
 C         -0.001  0.001 -0.000    0.024  0.023 -0.006   -0.002 -0.002  0.001
 C          0.063  0.280 -0.034   -0.026  0.016 -0.001    0.001 -0.005  0.003
 C          0.057 -0.161  0.021    0.038 -0.003  0.000    0.007 -0.002 -0.000
 C         -0.174  0.309 -0.042   -0.021  0.017 -0.002   -0.013  0.008  0.001
 C          0.057 -0.272  0.036    0.017 -0.015  0.002    0.017 -0.014  0.007
 H          0.001 -0.014 -0.007    0.017 -0.021  0.009   -0.010  0.111  0.090
 H          0.013  0.001  0.001   -0.144  0.028 -0.040    0.011 -0.002  0.004
 H          0.334 -0.403  0.062    0.010 -0.028  0.005    0.017 -0.030  0.004
 H         -0.004 -0.011 -0.008   -0.003 -0.001  0.024    0.043  0.107  0.092
 H          0.002 -0.014  0.008   -0.009  0.013 -0.006   -0.023  0.216 -0.068
 H          0.004  0.005 -0.002   -0.174 -0.170  0.040    0.012  0.012 -0.004
 H          0.009 -0.001 -0.000   -0.145  0.040  0.010    0.010 -0.002 -0.002
 H         -0.026 -0.193  0.026   -0.041 -0.011  0.000   -0.003 -0.004 -0.003
 H         -0.229 -0.337  0.037   -0.052 -0.011  0.002   -0.001 -0.009  0.005
 C         -0.017  0.022 -0.003   -0.003  0.002 -0.000    0.003  0.007 -0.001
 H         -0.046  0.141  0.050    0.003  0.006 -0.000   -0.072 -0.054 -0.005
 H         -0.087  0.102 -0.109    0.008  0.009 -0.003    0.012 -0.020  0.026
 H          0.126 -0.112  0.036    0.012 -0.013 -0.001   -0.029  0.021 -0.047
 TransDip   0.056 -0.082 -0.016    0.001  0.498 -0.090    0.159 -0.176  0.472

 Mode:                64                     65                     66
 Frequency:      3035.03                3050.09                3050.53
 Force Cnst:      5.6249                 5.6433                 5.6431
 Red. Mass:       1.0364                 1.0296                 1.0292
 IR Active:          YES                    YES                    YES
 IR Intens:       18.051                 33.584                 39.925
 Raman Active:       YES                    YES                    YES
               X      Y      Z        X      Y      Z        X      Y      Z
 C         -0.000  0.000 -0.000    0.000 -0.000  0.000    0.000 -0.000  0.000
 C          0.001  0.000 -0.000   -0.000  0.000 -0.000   -0.000  0.000  0.000
 C          0.000  0.000 -0.000   -0.002  0.002 -0.001   -0.000  0.000 -0.000
 C         -0.000  0.000 -0.000    0.000  0.000  0.001   -0.001 -0.001 -0.003
 O         -0.000 -0.000 -0.000    0.003  0.001 -0.000    0.001  0.000 -0.000
 O         -0.000 -0.000  0.000    0.000 -0.001  0.000   -0.000 -0.000  0.000
 O          0.000 -0.000 -0.000   -0.000 -0.001 -0.000    0.000  0.003  0.001
 O          0.000 -0.000  0.000   -0.000  0.000 -0.000    0.000 -0.000  0.001
 C          0.000 -0.000  0.000    0.001 -0.011  0.004   -0.004  0.040 -0.014
 C         -0.000 -0.000  0.000    0.029  0.031 -0.007    0.008  0.008 -0.002
 C         -0.000 -0.000 -0.000    0.000 -0.000  0.000    0.000 -0.000 -0.000
 C         -0.000  0.000 -0.000    0.000  0.000 -0.000   -0.000  0.000 -0.000
 C          0.001  0.000  0.000    0.000  0.000  0.000    0.000  0.000 -0.000
 C          0.000 -0.000  0.000    0.000  0.000  0.000   -0.000  0.000 -0.000
 H          0.001  0.000 -0.001    0.117  0.046 -0.098   -0.436 -0.171  0.363
 H          0.000  0.001 -0.004   -0.049 -0.200  0.576   -0.013 -0.054  0.155
 H         -0.011 -0.007  0.001   -0.000 -0.000  0.000   -0.001 -0.000  0.000
 H         -0.001  0.000 -0.000   -0.150  0.050 -0.057    0.559 -0.187  0.210
 H          0.000  0.000  0.001    0.020  0.038  0.109   -0.072 -0.141 -0.404
 H          0.002 -0.002  0.001   -0.308  0.284 -0.090   -0.083  0.076 -0.024
 H         -0.000  0.003  0.003   -0.008 -0.465 -0.396   -0.002 -0.125 -0.107
 H         -0.000  0.000  0.000    0.000 -0.001  0.000    0.000 -0.000  0.000
 H          0.001 -0.000  0.000   -0.002  0.000 -0.000   -0.000 -0.000 -0.000
 C         -0.041  0.030  0.001   -0.000  0.000 -0.000   -0.000  0.000  0.000
 H          0.077 -0.195  0.520    0.001 -0.001  0.003    0.000 -0.000  0.001
 H          0.067 -0.503 -0.434    0.000 -0.002 -0.002    0.000 -0.003 -0.003
 H          0.335  0.341 -0.094    0.002  0.002 -0.001   -0.000 -0.000  0.000
 TransDip  -0.130  0.035  0.019    0.185  0.010 -0.015    0.026  0.199  0.025

 Mode:                67                     68                     69
 Frequency:      3090.33                3111.70                3123.09
 Force Cnst:      6.1893                 6.2888                 6.3617
 Red. Mass:       1.1000                 1.1024                 1.1070
 IR Active:          YES                    YES                    YES
 IR Intens:        8.593                 15.271                 17.419
 Raman Active:       YES                    YES                    YES
               X      Y      Z        X      Y      Z        X      Y      Z
 C          0.000 -0.000 -0.000    0.000 -0.000  0.000    0.000 -0.000 -0.000
 C          0.000  0.000  0.000   -0.000 -0.000  0.000    0.000  0.000  0.000
 C         -0.000 -0.000  0.000    0.000 -0.000  0.000   -0.000  0.000  0.000
 C          0.000  0.000 -0.000    0.000 -0.000  0.000   -0.000 -0.000 -0.000
 O          0.000  0.000  0.000   -0.000  0.000 -0.000   -0.000  0.000  0.000
 O         -0.000  0.000 -0.000   -0.000  0.000 -0.000   -0.000  0.000  0.000
 O         -0.000  0.000  0.000   -0.000 -0.000 -0.000    0.000  0.000  0.000
 O          0.000  0.000  0.000   -0.000  0.000 -0.000   -0.000  0.000  0.000
 C         -0.000  0.000 -0.000   -0.000  0.000 -0.000    0.001  0.000 -0.000
 C         -0.000  0.000  0.000   -0.000  0.000 -0.000    0.004 -0.026 -0.091
 C          0.000  0.000 -0.000    0.000  0.000 -0.000   -0.000  0.000  0.000
 C         -0.000 -0.000 -0.000   -0.000 -0.000  0.000    0.000 -0.000  0.000
 C          0.001  0.000 -0.000    0.004  0.003 -0.000   -0.000  0.000 -0.000
 C         -0.000 -0.000 -0.001    0.000 -0.001  0.000   -0.000 -0.000  0.000
 H         -0.001 -0.000  0.000    0.001  0.000 -0.001   -0.005 -0.002  0.004
 H          0.000  0.000 -0.000   -0.000 -0.000  0.000   -0.050 -0.246  0.654
 H         -0.006 -0.004  0.000   -0.043 -0.027  0.003    0.000  0.000 -0.000
 H          0.002 -0.001  0.001    0.004 -0.001  0.002   -0.007  0.002 -0.003
 H         -0.000 -0.000 -0.001    0.000  0.000  0.001   -0.000 -0.001 -0.002
 H          0.000 -0.000  0.000    0.000 -0.000  0.000   -0.005  0.000 -0.020
 H          0.000 -0.000 -0.000   -0.000 -0.000 -0.000    0.004  0.550  0.445
 H         -0.000  0.001 -0.000   -0.001  0.008 -0.001   -0.000  0.000 -0.000
 H          0.000 -0.000 -0.000   -0.000  0.000 -0.000    0.000 -0.000 -0.000
 C         -0.011 -0.030 -0.086   -0.042 -0.076  0.033   -0.000 -0.000 -0.000
 H          0.104 -0.268  0.640   -0.074  0.142 -0.403    0.000 -0.000  0.000
 H         -0.078  0.530  0.435   -0.036  0.180  0.176   -0.000  0.000  0.000
 H          0.105  0.099 -0.047    0.600  0.590 -0.165    0.000  0.000 -0.000
 TransDip  -0.014 -0.054 -0.075   -0.087 -0.087  0.023    0.006 -0.037 -0.128

 Mode:                70                     71                     72
 Frequency:      3126.26                3156.34                3157.22
 Force Cnst:      6.3757                 6.4932                 6.4980
 Red. Mass:       1.1072                 1.1062                 1.1064
 IR Active:          YES                    YES                    YES
 IR Intens:       13.563                 14.208                 13.903
 Raman Active:       YES                    YES                    YES
               X      Y      Z        X      Y      Z        X      Y      Z
 C          0.000  0.000 -0.000    0.000 -0.000  0.000    0.000 -0.000 -0.000
 C         -0.000 -0.000  0.000    0.000  0.000  0.000    0.000  0.000  0.000
 C         -0.000 -0.000  0.000    0.001  0.001 -0.000   -0.000  0.000 -0.000
 C          0.000  0.000 -0.000    0.000 -0.000  0.000   -0.000  0.001 -0.001
 O         -0.000  0.000 -0.000    0.000 -0.000  0.000    0.000 -0.000  0.000
 O          0.000  0.000 -0.000   -0.000 -0.000  0.000    0.000 -0.000  0.000
 O          0.000  0.000  0.000   -0.000  0.000 -0.000    0.000  0.000  0.000
 O          0.000 -0.000 -0.000   -0.000  0.000 -0.000    0.000 -0.000  0.000
 C         -0.094 -0.001  0.012    0.000  0.000  0.001   -0.012 -0.009 -0.093
 C         -0.000 -0.000 -0.001   -0.051  0.076 -0.024   -0.001  0.001 -0.000
 C         -0.000 -0.000 -0.000   -0.000  0.000 -0.000    0.000 -0.000 -0.000
 C          0.000  0.000 -0.000    0.000 -0.000  0.000    0.000  0.000 -0.000
 C         -0.000 -0.000 -0.000    0.000  0.000 -0.000   -0.000 -0.000  0.000
 C          0.000 -0.000 -0.000    0.000 -0.000  0.000   -0.000 -0.000 -0.000
 H          0.505  0.205 -0.446    0.003  0.001 -0.002   -0.261 -0.100  0.199
 H         -0.001 -0.003  0.007   -0.032 -0.090  0.297   -0.000 -0.001  0.004
 H          0.000  0.000 -0.000   -0.002 -0.001  0.000    0.003  0.002 -0.000
 H          0.620 -0.211  0.249   -0.004  0.001 -0.001    0.252 -0.084  0.078
 H         -0.009  0.018  0.053   -0.002 -0.004 -0.011    0.146  0.290  0.832
 H          0.001 -0.001  0.000    0.645 -0.594  0.189    0.009 -0.008  0.002
 H          0.000  0.005  0.004   -0.011 -0.218 -0.204   -0.000 -0.002 -0.002
 H          0.000 -0.000  0.000   -0.000  0.004 -0.001    0.000 -0.001  0.000
 H          0.000 -0.000 -0.000    0.004 -0.002  0.000   -0.000  0.000 -0.000
 C          0.000  0.000 -0.000    0.000  0.000 -0.000    0.000  0.000 -0.000
 H          0.000 -0.000  0.001    0.000 -0.000  0.000    0.000 -0.000  0.001
 H          0.000 -0.001 -0.001    0.000 -0.000 -0.000    0.000 -0.000 -0.000
 H         -0.002 -0.002  0.001   -0.001 -0.000  0.000   -0.001 -0.001  0.000
 TransDip  -0.117  0.007  0.013   -0.089  0.078 -0.024   -0.020 -0.038 -0.111

 Mode:                73                     74                     75
 Frequency:      3165.17                3184.62                3220.89
 Force Cnst:      6.4220                 6.5340                 6.6796
 Red. Mass:       1.0880                 1.0935                 1.0928
 IR Active:          YES                    YES                    YES
 IR Intens:        7.070                 15.411                  2.061
 Raman Active:       YES                    YES                    YES
               X      Y      Z        X      Y      Z        X      Y      Z
 C          0.000 -0.000 -0.000   -0.000  0.000  0.000   -0.000 -0.003  0.000
 C          0.000  0.000  0.000    0.000  0.000 -0.000    0.001 -0.000  0.000
 C         -0.000 -0.000  0.000    0.000  0.000 -0.000   -0.001  0.001 -0.000
 C         -0.000  0.000 -0.000   -0.000  0.000 -0.000   -0.000 -0.000  0.000
 O          0.000  0.000 -0.000   -0.000 -0.000  0.000   -0.000 -0.001  0.000
 O         -0.000  0.000  0.000   -0.000 -0.000  0.000    0.000  0.000 -0.000
 O          0.000 -0.000 -0.000    0.000 -0.000 -0.000   -0.000  0.000  0.000
 O          0.000 -0.000  0.000    0.000 -0.000  0.000   -0.000  0.000 -0.000
 C          0.000  0.000  0.000    0.000  0.000  0.000    0.000 -0.000 -0.000
 C         -0.000  0.000 -0.000    0.000 -0.000  0.000    0.000 -0.000  0.000
 C          0.004 -0.003  0.000   -0.012  0.009 -0.001   -0.078  0.035 -0.005
 C         -0.001  0.039 -0.005    0.008 -0.075  0.009    0.001  0.019 -0.002
 C         -0.061 -0.044  0.005   -0.036 -0.022  0.002    0.003  0.001 -0.000
 C         -0.001  0.002 -0.000   -0.001  0.002 -0.000    0.000 -0.000  0.000
 H          0.001  0.000 -0.000   -0.000 -0.000  0.000   -0.000 -0.000  0.000
 H         -0.000 -0.000  0.001   -0.000 -0.000 -0.000   -0.000  0.000 -0.000
 H          0.716  0.500 -0.053    0.387  0.265 -0.028   -0.025 -0.016  0.002
 H         -0.001  0.000 -0.000    0.000 -0.000  0.000   -0.000  0.000 -0.000
 H         -0.001 -0.001 -0.003   -0.000 -0.000 -0.001    0.000  0.000  0.000
 H          0.003 -0.002  0.001   -0.003  0.003 -0.001   -0.003  0.003 -0.001
 H         -0.000 -0.001 -0.001   -0.000 -0.000  0.000   -0.000 -0.000  0.000
 H          0.035 -0.464  0.058   -0.073  0.848 -0.106    0.012 -0.191  0.024
 H         -0.060  0.028 -0.004    0.169 -0.080  0.010    0.888 -0.403  0.052
 C         -0.003 -0.003  0.001   -0.001 -0.001  0.000    0.000 -0.000  0.000
 H         -0.001  0.003 -0.009    0.000  0.001 -0.003   -0.000  0.000 -0.001
 H         -0.000  0.007  0.006    0.001  0.001  0.001    0.000  0.001  0.000
 H          0.036  0.031 -0.009    0.014  0.012 -0.003   -0.000 -0.000  0.000
 TransDip  -0.085 -0.009 -0.000   -0.040 -0.118  0.015   -0.004  0.046 -0.004

 STANDARD THERMODYNAMIC QUANTITIES AT   298.15 K  AND     1.00 ATM

   This Molecule has  0 Imaginary Frequencies
   Zero point vibrational energy:      133.290 kcal/mol

   Atom    1 Element C  Has Mass   12.00000
   Atom    2 Element C  Has Mass   12.00000
   Atom    3 Element C  Has Mass   12.00000
   Atom    4 Element C  Has Mass   12.00000
   Atom    5 Element O  Has Mass   15.99491
   Atom    6 Element O  Has Mass   15.99491
   Atom    7 Element O  Has Mass   15.99491
   Atom    8 Element O  Has Mass   15.99491
   Atom    9 Element C  Has Mass   12.00000
   Atom   10 Element C  Has Mass   12.00000
   Atom   11 Element C  Has Mass   12.00000
   Atom   12 Element C  Has Mass   12.00000
   Atom   13 Element C  Has Mass   12.00000
   Atom   14 Element C  Has Mass   12.00000
   Atom   15 Element H  Has Mass    1.00783
   Atom   16 Element H  Has Mass    1.00783
   Atom   17 Element H  Has Mass    1.00783
   Atom   18 Element H  Has Mass    1.00783
   Atom   19 Element H  Has Mass    1.00783
   Atom   20 Element H  Has Mass    1.00783
   Atom   21 Element H  Has Mass    1.00783
   Atom   22 Element H  Has Mass    1.00783
   Atom   23 Element H  Has Mass    1.00783
   Atom   24 Element C  Has Mass   12.00000
   Atom   25 Element H  Has Mass    1.00783
   Atom   26 Element H  Has Mass    1.00783
   Atom   27 Element H  Has Mass    1.00783
   Molecular Mass:   208.073600 amu
   Principal axes and moments of inertia in amu*Bohr^2:
                             1           2           3
    Eigenvalues --     2454.43399  3111.29660  5138.35617
          X               0.99986     0.01656    -0.00184
          Y              -0.01654     0.99982     0.00979
          Z               0.00200    -0.00976     0.99995
   Rotational Symmetry Number is   1
   The Molecule is an Asymmetric Top
   Translational Enthalpy:        0.889 kcal/mol
   Rotational Enthalpy:           0.889 kcal/mol
   Vibrational Enthalpy:        141.064 kcal/mol
   gas constant (RT):             0.592 kcal/mol
   Translational Entropy:        41.902  cal/mol.K
   Rotational Entropy:           32.040  cal/mol.K
   Vibrational Entropy:          52.001  cal/mol.K

   Total Enthalpy:              143.434 kcal/mol
   Total Entropy:               125.943  cal/mol.K
Archival summary:
1\1\nid01080\FREQ\ProcedureUnspecified\BasisUnspecified\41112\junteng\WedOct420:06:502017WedOct420:06:502017\0\\#,FREQ,ProcedureUnspecified,BasisUnspecified,\\0,1\O\C,1,1.3434\O,2,1.20541,1,124.655\C,1,1.44026,2,115.629,3,-9.76179,0\H,4,1.08767,1,105.423,2,179.539,0\H,4,1.09085,1,110.691,2,59.6819,0\H,4,1.09088,1,109.472,2,-61.2873,0\C,2,1.50484,1,111.081,3,-175.635,0\C,8,1.40494,2,117.805,1,103.635,0\C,9,1.39755,8,118.455,2,179.763,0\H,10,1.08502,9,118.923,8,179.675,0\C,10,1.39208,9,121.406,8,-0.448418,0\H,12,1.084,10,120.05,9,-179.829,0\C,12,1.38826,10,119.872,9,-0.0330074,0\H,14,1.08091,12,120.66,10,-179.393,0\C,14,1.40023,12,120.08,10,0.273135,0\C,16,1.49138,14,120.501,12,-177.857,0\O,17,1.20991,16,124.885,14,170.195,0\O,17,1.34997,16,112.207,14,-9.08514,0\C,19,1.43819,17,115.97,16,178.405,0\H,20,1.08775,19,105.338,17,-179.195,0\H,20,1.09093,19,110.44,17,61.3034,0\H,20,1.09099,19,110.436,17,-59.6418,0\C,9,1.51003,8,121.35,2,0.104502,0\H,24,1.09116,9,110.725,8,-172.613,0\H,24,1.09295,9,110.872,8,67.0096,0\H,24,1.09368,9,111.565,8,-52.3186,0\\\@

 Total job time:  5901.01s(wall), 31442.10s(cpu) 
 Wed Oct  4 20:06:50 2017

        *************************************************************
        *                                                           *
        *  Thank you very much for using Q-Chem.  Have a nice day.  *
        *                                                           *
        *************************************************************


