nid04266 10.128.16
Q-Chem Developer Version! Running on 10.128.16.*
                  Welcome to Q-Chem
     A Quantum Leap Into The Future Of Chemistry


 Q-Chem 5.0, Q-Chem, Inc., Pleasanton, CA (2017)

 Yihan Shao,  Zhengting Gan,  E. Epifanovsky,  A. T. B. Gilbert,  M. Wormit,  
 J. Kussmann,  A. W. Lange,  A. Behn,  Jia Deng,  Xintian Feng,  D. Ghosh,  
 M. Goldey,  P. R. Horn,  L. D. Jacobson,  I. Kaliman,  T. Kus,  A. Landau,  
 Jie Liu,  E. I. Proynov,  R. M. Richard,  R. P. Steele,  E. J. Sundstrom,  
 H. L. Woodcock III,  P. M. Zimmerman,  D. Zuev,  B. Albrecht,  E. Alguire,  
 S. A. Baeppler,  Z. Benda,  Y. A. Bernard,  E. J. Berquist,  K. B. Bravaya,  
 D. Casanova,  Chun-Min Chang,  Yunqing Chen,  A. Chien,  K. D. Closser,  
 M. P. Coons,  S. Dasgupta,  M. Diedenhofen,  Hainam Do,  R. G. Edgar,  
 Po-Tung Fang,  S. Fatehi,  Qingguo Feng,  Qinghui Ge,  A. Ghysels,  
 J. Gomes,  J. Gonthier,  A. Gunina,  M. W. D. Hanson-Heine,  
 P. H. P. Harbach,  A. W. Hauser,  J. E. Herr,  E. G. Hohenstein,  
 Z. C. Holden,  Kerwin Hui,  T.-C. Jagau,  Hyunjun Ji,  B. Kaduk,  
 K. Khistyaev,  Jaehoon Kim,  P. Klunzinger,  K. Koh,  D. Kosenkov,  
 T. Kowalczyk,  C. M. Krauter,  A. Kunitsa,  Ka Un Lao,  A. Laurent,  
 K. V. Lawler,  Joonho Lee,  D. Lefrancois,  S. Lehtola,  D. S. Levine,  
 Yi-Pei Li,  You-Sheng Lin,  Fenglai Liu,  E. Livshits,  A. Luenser,  
 P. Manohar,  E. Mansoor,  S. F. Manzer,  Shan-Ping Mao,  Yuezhi Mao,  
 N. Mardirossian,  A. V. Marenich,  L. A. Martinez-Martinez,  S. A. Maurer,  
 N. J. Mayhall,  S. C. McKenzie,  J.-M. Mewes,  A. F. Morrison,  K. Nanda,  
 T. S. Nguyen-Beck,  R. Olivares-Amaya,  J. A. Parkhill,  T. M. Perrine,  
 F. Plasser,  S. Prager,  A. Prociuk,  D. R. Rehn,  F. Rob,  M. Schneider,  
 N. Sergueev,  S. M. Sharada,  S. Sharma,  D. W. Small,  T. Stauch,  
 T. Stein,  Yu-Chuan Su,  A. J. W. Thom,  T. Tsuchimochi,  L. Vogt,  
 O. Vydrov,  M. A. Watson,  J. Wenzel,  M. de Wergifosse,  T. A. Wesolowski,  
 A. White,  J. Witte,  A. Yamada,  Jun Yang,  K. Yao,  S. Yeganeh,  
 S. R. Yost,  Zhi-Qiang You,  A. Zech,  Igor Ying Zhang,  Xing Zhang,  
 Yan Zhao,  Ying Zhu,  B. R. Brooks,  G. K. L. Chan,  C. J. Cramer,  
 M. S. Gordon,  W. J. Hehre,  A. Klamt,  M. W. Schmidt,  C. D. Sherrill,  
 D. G. Truhlar,  A. Aspuru-Guzik,  R. Baer,  A. T. Bell,  N. A. Besley,  
 Jeng-Da Chai,  A. Dreuw,  B. D. Dunietz,  T. R. Furlani,  Chao-Ping Hsu,  
 Yousung Jung,  Jing Kong,  D. S. Lambrecht,  WanZhen Liang,  C. Ochsenfeld,  
 V. A. Rassolov,  L. V. Slipchenko,  J. E. Subotnik,  T. Van Voorhis,  
 J. M. Herbert,  A. I. Krylov,  P. M. W. Gill,  M. Head-Gordon

 Contributors to earlier versions of Q-Chem not listed above: 
 R. D. Adamson,  B. Austin,  J. Baker,  G. J. O. Beran,  K. Brandhorst,  
 S. T. Brown,  E. F. C. Byrd,  A. K. Chakraborty,  C.-L. Cheng,  
 Siu Hung Chien,  D. M. Chipman,  D. L. Crittenden,  H. Dachsel,  
 R. A. DiStasio Jr.,  R. J. Doerksen,  A. D. Dutoi,  L. Fusti-Molnar,  
 W. A. Goddard III,  A. Golubeva-Zadorozhnaya,  S. R. Gwaltney,  G. Hawkins,  
 A. Heyden,  S. Hirata,  G. Kedziora,  F. J. Keil,  C. Kelley,  Jihan Kim,  
 R. A. King,  R. Z. Khaliullin,  P. P. Korambath,  W. Kurlancheek,  
 A. M. Lee,  M. S. Lee,  S. V. Levchenko,  Ching Yeh Lin,  D. Liotard,  
 R. C. Lochan,  I. Lotan,  P. E. Maslen,  N. Nair,  D. P. O'Neill,  
 D. Neuhauser,  E. Neuscamman,  C. M. Oana,  R. Olson,  B. Peters,  
 R. Peverati,  P. A. Pieniazek,  Y. M. Rhee,  J. Ritchie,  M. A. Rohrdanz,  
 E. Rosta,  N. J. Russ,  H. F. Schaefer III,  N. E. Schultz,  N. Shenvi,  
 A. C. Simmonett,  A. Sodt,  D. Stuck,  K. S. Thanthiriwatte,  V. Vanovschi,  
 Tao Wang,  A. Warshel,  C. F. Williams,  Q. Wu,  X. Xu,  W. Zhang

 Please cite Q-Chem as follows:
 Y. Shao et al., Mol. Phys. 113, 184-215 (2015)
 DOI: 10.1080/00268976.2014.952696

 Q-Chem 5.0.0 for Intel X86 EM64T Linux

 Parts of Q-Chem use Armadillo 5.200.1 (Boston Tea Smuggler).
 http://arma.sourceforge.net/

 Q-Chem begins on Wed Oct  4 17:59:30 2017  

Host: nid04266
0

     Scratch files written to /global/cscratch1/sd/junteng/scratch/15/opt_1111-+.save//

Checking the input file for inconsistencies... 	...done.

--------------------------------------------------------------
User input:
--------------------------------------------------------------
$molecule
0  1
C    0.579  -1.978   0.499
C   -0.345  -1.987   1.740
C    0.941  -0.610  -0.048
C   -0.562  -0.630   2.386
O    2.215  -0.645  -0.542
O    0.210   0.366  -0.087
O    0.648  -0.161   2.826
O   -1.631  -0.088   2.617
C    0.572   1.116   3.461
C    2.652   0.593  -1.106
C   -0.242  -2.782  -0.524
C   -0.292  -4.259  -0.098
C   -1.265  -4.223   1.081
C   -1.594  -2.718   1.188
O   -1.591  -2.362  -0.216
H    1.516  -2.494   0.747
H    0.090  -2.606   2.538
H   -0.024   1.052   4.377
H    2.622   1.389  -0.356
H   -0.708  -4.895  -0.888
H    0.690  -4.657   0.174
H   -2.154  -4.811   0.825
H   -0.840  -4.639   1.999
H    1.587   1.422   3.729
H    0.156   1.863   2.777
H    2.039   0.852  -1.975
H    3.687   0.467  -1.436
C   -2.945  -2.478   1.828
H   -3.699  -3.155   1.411
H   -2.911  -2.635   2.910
H   -3.320  -1.473   1.614
C    0.085  -2.603  -1.994
H   -0.579  -3.214  -2.616
H   -0.074  -1.570  -2.320
H    1.119  -2.890  -2.210
$end


$opt
CONSTRAINT
tors    2    1    3    5    142.3
tors    1    2    4    7    -59.6
ENDCONSTRAINT
$end

$rem
JOBTYPE                   OPT
METHOD                    B3LYP
DFT_D                     D3_OP
BASIS                     STO-3G
GEOM_OPT_MAX_CYCLES       500
SYMMETRY                  False
THRESH                    12
SCF_CONVERGENCE           8
MAX_SUB_FILE_NUM          128
MEM_STATIC                400
MEM_TOTAL                 4000
$end

--------------------------------------------------------------
 Adding empirical dispersion correction 
 ----------------------------------------------------------------
 Doing -D3(op) with
 s6 =   1.00000
 s8 =   0.78311
 a1 =   0.30000
 a2 =   4.25000
 n  =  10.00000
 -D3 energy without 3body term =     -0.0411703493 hartrees
 ----------------------------------------------------------------
             Standard Nuclear Orientation (Angstroms)
    I     Atom           X                Y                Z
 ----------------------------------------------------------------
    1      C       0.0405485511     0.6575719166     0.6279970458
    2      C       0.4485580788    -0.8348816956     0.6210370951
    3      C      -1.2236982091     1.0027230799    -0.1363509142
    4      C      -0.5983616521    -1.7818052351     0.0614400192
    5      O      -1.8727982861     2.0215992616     0.5030999569
    6      O      -1.5961984503     0.4914952944    -1.1795899671
    7      O      -1.7171432315    -1.7052423029     0.8489213808
    8      O      -0.4521119641    -2.5882506495    -0.8430724586
    9      C      -2.7784272181    -2.5607562126     0.4228905721
   10      C      -3.0723596472     2.4436939349    -0.1485116050
   11      C       1.2695511140     1.3340043222    -0.0036499292
   12      C       2.4565832498     1.2598809157     0.9715246343
   13      C       2.8623527980    -0.2112841170     0.8761804153
   14      C       1.8144140588    -0.7767714946    -0.1070608698
   15      O       1.6672726917     0.3585939812    -0.9943351534
   16      H      -0.1006442077     0.9849117819     1.6665740614
   17      H       0.6216642017    -1.1903109685     1.6471434747
   18      H      -2.4797608129    -3.6105469360     0.5071865717
   19      H      -3.7802435395     1.6131239838    -0.2264214976
   20      H       3.2933331402     1.8856898890     0.6400661152
   21      H       2.1911460006     1.5619689502     1.9888730929
   22      H       3.8755559769    -0.2734341450     0.4624683269
   23      H       2.8636012425    -0.7181800102     1.8454378604
   24      H      -3.6353600821    -2.3906923623     1.0804841802
   25      H      -3.0783059100    -2.3222438675    -0.6028314328
   26      H      -2.8433670294     2.8555358485    -1.1364182905
   27      H      -3.5276066382     3.2308286629     0.4590820891
   28      C       2.3256610058    -2.0007489527    -0.8370654871
   29      H       3.3506780532    -1.8430305545    -1.1909001368
   30      H       2.3227728949    -2.8841446677    -0.1919820277
   31      H       1.7440132593    -2.2037087567    -1.7409123862
   32      C       1.0880301320     2.7130571330    -0.6079126850
   33      H       2.0289460417     3.0747186755    -1.0380047444
   34      H       0.3716132743     2.6999266795    -1.4356931372
   35      H       0.7526844869     3.4359215512     0.1425480610
 ----------------------------------------------------------------
 Molecular Point Group                 C1    NOp =  1
 Largest Abelian Subgroup              C1    NOp =  1
 Nuclear Repulsion Energy =  1395.7531872986 hartrees
 There are       65 alpha and       65 beta electrons
 Requested basis set is STO-3G
 There are 52 shells and 103 basis functions

 Total QAlloc Memory Limit   4000 MB
 Mega-Array Size       392 MB
 MEM_STATIC part       400 MB
 A cutoff of  1.0D-12 yielded   1204 shell pairs
 There are      5194 function pairs
 
 -------------------------------------------------------
 OpenMP Integral Computing Module                       
 Release: version 1.0, May 2013, Q-Chem Inc. Pittsburgh 
 -------------------------------------------------------
 Integral Job Info:
 Integral job number is                      11
 Integral operator is                         1
 short-range coefficients                     0
 long-range coefficients              100000000
 Omega coefficients                           0
 if combine SR and LR in K                    0
 Integral screening is                        0
 Integral computing path is                   2
 max size of driver memory is            800000
 size of driver memory is                 45569
 size of scratch memory is               945100
 max col of scratch BK array                289
 max len of scratch array in speh3           22
 max len of scratch index in speh4            8
 max int batch size is                      520
 min int batch size is                       52
 fixed nKL is                                52
 max L of basis functions is                  1
 order of int derivative is                   0
 number of shells is                         52
 number of basis is                         103
 number of cartesian basis is               103
 number of contracted shell pairs          1204
 number of primitive shell pairs           6556
 maxK2 (contraction) of shell pair            9
 max number of K2 of shell pair               1
 max number of CS2 of shell pair            185
 max number of PS2 of shell pair            828
 mem total for path MDJ                   33898
 -------------------------------------------------------
 Smallest overlap matrix eigenvalue = 1.95E-01

 Scale SEOQF with 1.000000e-01/1.000000e-01/1.000000e-01

 Standard Electronic Orientation quadrupole field applied
 Nucleus-field energy     =     0.0000000384 hartrees
 Guess from superposition of atomic densities
 Warning:  Energy on first SCF cycle will be non-variational
 A restricted hybrid HF-DFT SCF calculation will be
 performed using Pulay DIIS extrapolation
 Exchange:     0.2000 Hartree-Fock + 0.0800 Slater + 0.7200 B88
 Correlation:  0.1900 VWN1RPA + 0.8100 LYP
 Using SG-1 standard quadrature grid
 Dispersion:   Grimme D3
 SCF converges when DIIS error is below 1.0E-08
 -------------------------------------------------------
 OpenMP Integral computing Module                
 Release: version 1.0, May 2013, Q-Chem Inc. Pittsburgh 
 -------------------------------------------------------
 -------------------------------------------------------
 OpenMP BLAS3 based DFT computing Module                
 Release: version 1.0, May 2013, Q-Chem Inc. Pittsburgh 
 -------------------------------------------------------
 ---------------------------------------
  Cycle       Energy         DIIS Error
 ---------------------------------------
    1    -832.4613427662      1.05E-01
    2    -833.1370762580      1.27E-02
    3    -832.1370895692      3.08E-02
    4    -833.3782765538      4.55E-03
    5    -833.4066960607      1.46E-03
    6    -833.4098473704      2.71E-04
    7    -833.4099544728      7.62E-05
    8    -833.4099606041      4.17E-05
    9    -833.4099632398      4.63E-06
   10    -833.4099632746      1.22E-06
   11    -833.4099632769      3.03E-07
   12    -833.4099632770      8.71E-08
   13    -833.4099632770      1.56E-08
   14    -833.4099632771      3.41E-09 Convergence criterion met
 ---------------------------------------
 SCF time:  CPU 140.79 s  wall 7.02 s
 SCF   energy in the final basis set = -833.4099632771
 Total energy in the final basis set = -833.4099632771
 
 --------------------------------------------------------------
 
                    Orbital Energies (a.u.)
 --------------------------------------------------------------
 
 Alpha MOs
 -- Occupied --
-18.942 -18.934 -18.865 -18.864 -18.861 -10.107 -10.103 -10.074
-10.068 -10.064 -10.060 -10.030 -10.029 -10.013 -10.007 -10.005
-10.002  -1.042  -1.034  -0.985  -0.951  -0.945  -0.773  -0.753
 -0.733  -0.690  -0.680  -0.671  -0.624  -0.593  -0.545  -0.520
 -0.491  -0.482  -0.466  -0.447  -0.439  -0.429  -0.428  -0.422
 -0.411  -0.391  -0.387  -0.379  -0.371  -0.369  -0.364  -0.345
 -0.341  -0.334  -0.309  -0.305  -0.304  -0.292  -0.287  -0.281
 -0.271  -0.247  -0.241  -0.214  -0.181  -0.175  -0.151  -0.141
 -0.130
 -- Virtual --
  0.111   0.129   0.243   0.280   0.295   0.311   0.331   0.354
  0.372   0.379   0.388   0.400   0.403   0.413   0.419   0.432
  0.439   0.444   0.449   0.451   0.456   0.457   0.463   0.467
  0.475   0.480   0.487   0.492   0.498   0.506   0.510   0.513
  0.537   0.546   0.583   0.586   0.707   0.709
 --------------------------------------------------------------
 
          Ground-State Mulliken Net Atomic Charges

     Atom                 Charge (a.u.)
  ----------------------------------------
      1 C                    -0.084595
      2 C                    -0.084928
      3 C                     0.236932
      4 C                     0.238677
      5 O                    -0.187608
      6 O                    -0.231157
      7 O                    -0.194162
      8 O                    -0.225991
      9 C                    -0.126414
     10 C                    -0.126312
     11 C                     0.111091
     12 C                    -0.148495
     13 C                    -0.147098
     14 C                     0.111557
     15 O                    -0.214092
     16 H                     0.087026
     17 H                     0.085427
     18 H                     0.091170
     19 H                     0.093535
     20 H                     0.075293
     21 H                     0.069960
     22 H                     0.075299
     23 H                     0.068530
     24 H                     0.092479
     25 H                     0.096380
     26 H                     0.092817
     27 H                     0.095226
     28 C                    -0.230291
     29 H                     0.078853
     30 H                     0.081177
     31 H                     0.098540
     32 C                    -0.231645
     33 H                     0.084746
     34 H                     0.083765
     35 H                     0.084309
  ----------------------------------------
  Sum of atomic charges =    -0.000000

 -----------------------------------------------------------------
                    Cartesian Multipole Moments
 -----------------------------------------------------------------
    Charge (ESU x 10^10)
                 0.0000
    Dipole Moment (Debye)
         X      -0.8782      Y       1.1630      Z       2.3527
       Tot       2.7675
    Quadrupole Moments (Debye-Ang)
        XX     -83.8071     XY      -0.7113     YY     -88.8934
        XZ       0.9767     YZ      -3.9015     ZZ     -96.9292
    Octopole Moments (Debye-Ang^2)
       XXX     -46.3966    XXY      -1.7284    XYY     -21.3534
       YYY       5.1219    XXZ      -0.4018    XYZ       3.8207
       YYZ       2.3429    XZZ      -3.9993    YZZ      -0.3880
       ZZZ      -3.3241
    Hexadecapole Moments (Debye-Ang^3)
      XXXX   -2091.2066   XXXY      -6.0688   XXYY    -600.9185
      XYYY      -2.1704   YYYY   -1803.7757   XXXZ     -28.9029
      XXYZ      -4.3762   XYYZ      -7.7605   YYYZ     -36.1812
      XXZZ    -448.9289   XYZZ      -3.9821   YYZZ    -373.8865
      XZZZ      -5.3102   YZZZ       4.7161   ZZZZ    -389.6427
 -----------------------------------------------------------------
 Calculating analytic gradient of the SCF energy
 Gradient of SCF Energy
            1           2           3           4           5           6
    1   0.0068753  -0.0046877  -0.0166998  -0.0197001  -0.0083837   0.0221746
    2  -0.0061405   0.0027730   0.0136587  -0.0050542  -0.0333299   0.0277086
    3  -0.0439619  -0.0259477  -0.0049261   0.0059897  -0.0526228   0.0536548
            7           8           9          10          11          12
    1   0.0189254  -0.0015472   0.0137487   0.0155365  -0.0147881  -0.0140183
    2  -0.0354658   0.0374925   0.0122788  -0.0053058  -0.0088645  -0.0163340
    3  -0.0479698   0.0469183   0.0073292   0.0104380   0.0044710  -0.0276032
           13          14          15          16          17          18
    1  -0.0188788  -0.0134132   0.0002181   0.0010425   0.0008687  -0.0002796
    2   0.0098466   0.0013371  -0.0017583  -0.0047971  -0.0026952   0.0134481
    3  -0.0239240   0.0041002   0.0591838  -0.0036425  -0.0066526   0.0045960
           19          20          21          22          23          24
    1   0.0096437   0.0015668   0.0018289  -0.0016174   0.0000789   0.0064180
    2   0.0080000  -0.0065480  -0.0026222   0.0062579   0.0036352  -0.0035888
    3   0.0068064   0.0026614  -0.0056205   0.0037838  -0.0055836  -0.0080883
           25          26          27          28          29          30
    1   0.0035522   0.0029766   0.0019587  -0.0076661  -0.0055637   0.0022017
    2   0.0031584  -0.0020146  -0.0071906   0.0172553  -0.0035201   0.0034711
    3   0.0127123   0.0138624  -0.0075342   0.0224771  -0.0038969  -0.0029576
           31          32          33          34          35
    1   0.0094985   0.0042312  -0.0054129   0.0069380   0.0023733
    2   0.0036308  -0.0187618   0.0004390   0.0011666  -0.0015662
    3  -0.0003602   0.0173100  -0.0021302   0.0011114  -0.0039838
 Max gradient component =       5.918E-02
 RMS gradient           =       1.675E-02
 Gradient time:  CPU 26.30 s  wall 1.18 s
 Geometry Optimization Parameters
   NAtoms,    NIC,     NZ,  NCons,   NDum,   NFix, NCnnct, MaxDiis
       35     275       0       2       0       0       0       0


** CONSTRAINED OPTIMIZATION IN DELOCALIZED INTERNAL COORDINATES **
   Searching for a Minimum

   Optimization Cycle:   1

                       Coordinates (Angstroms)
     ATOM                X               Y               Z
      1  C         0.0405485511    0.6575719166    0.6279970458
      2  C         0.4485580788   -0.8348816956    0.6210370951
      3  C        -1.2236982091    1.0027230799   -0.1363509142
      4  C        -0.5983616521   -1.7818052351    0.0614400192
      5  O        -1.8727982861    2.0215992616    0.5030999569
      6  O        -1.5961984503    0.4914952944   -1.1795899671
      7  O        -1.7171432315   -1.7052423029    0.8489213808
      8  O        -0.4521119641   -2.5882506495   -0.8430724586
      9  C        -2.7784272181   -2.5607562126    0.4228905721
     10  C        -3.0723596472    2.4436939349   -0.1485116050
     11  C         1.2695511140    1.3340043222   -0.0036499292
     12  C         2.4565832498    1.2598809157    0.9715246343
     13  C         2.8623527980   -0.2112841170    0.8761804153
     14  C         1.8144140588   -0.7767714946   -0.1070608698
     15  O         1.6672726917    0.3585939812   -0.9943351534
     16  H        -0.1006442077    0.9849117819    1.6665740614
     17  H         0.6216642017   -1.1903109685    1.6471434747
     18  H        -2.4797608129   -3.6105469360    0.5071865717
     19  H        -3.7802435395    1.6131239838   -0.2264214976
     20  H         3.2933331402    1.8856898890    0.6400661152
     21  H         2.1911460006    1.5619689502    1.9888730929
     22  H         3.8755559769   -0.2734341450    0.4624683269
     23  H         2.8636012425   -0.7181800102    1.8454378604
     24  H        -3.6353600821   -2.3906923623    1.0804841802
     25  H        -3.0783059100   -2.3222438675   -0.6028314328
     26  H        -2.8433670294    2.8555358485   -1.1364182905
     27  H        -3.5276066382    3.2308286629    0.4590820891
     28  C         2.3256610058   -2.0007489527   -0.8370654871
     29  H         3.3506780532   -1.8430305545   -1.1909001368
     30  H         2.3227728949   -2.8841446677   -0.1919820277
     31  H         1.7440132593   -2.2037087567   -1.7409123862
     32  C         1.0880301320    2.7130571330   -0.6079126850
     33  H         2.0289460417    3.0747186755   -1.0380047444
     34  H         0.3716132743    2.6999266795   -1.4356931372
     35  H         0.7526844869    3.4359215512    0.1425480610
   Point Group: c1    Number of degrees of freedom:    99


   Energy is   -833.409963277

              Constraints and their Current Values
                                        Value     Constraint
   Dihedral:        2   1   3   5      145.794      142.300
   Dihedral:        1   2   4   7      -61.913      -59.600

 Attempting to Generate Delocalized Internal Coordinates

   Using Lagrange Multiplier Algorithm


101 Hessian modes will be used to form the next step
  Hessian Eigenvalues:
    -0.977753   -0.977753    0.045000    0.045000    0.045000    0.045000
     0.045000    0.045000    0.045023    0.045263    0.045502    0.048606
     0.060298    0.061777    0.067925    0.070278    0.071449    0.071695
     0.075522    0.076606    0.078244    0.080811    0.081377    0.081808
     0.083396    0.083502    0.083514    0.083675    0.084645    0.090017
     0.091538    0.091907    0.106339    0.109001    0.113820    0.113949
     0.116299    0.116905    0.116996    0.126894    0.131265    0.139894
     0.144501    0.160000    0.160000    0.160000    0.160000    0.160000
     0.160000    0.160000    0.160000    0.160000    0.160000    0.160000
     0.160000    0.165730    0.185925    0.241736    0.248635    0.249881
     0.250000    0.250000    0.250000    0.250000    0.250633    0.260748
     0.267050    0.282050    0.285547    0.305111    0.306449    0.307030
     0.309452    0.327325    0.337229    0.338979    0.340712    0.341060
     0.341086    0.341343    0.341531    0.342465    0.342607    0.342751
     0.342848    0.342936    0.343451    0.343609    0.343704    0.343747
     0.343768    0.343978    0.344143    0.411501    0.412503    0.509233
     0.515826    0.951140    0.953727    1.022753    1.022753

 Minimum Search - Taking P-RFO Step
 Searching for Lamda that Maximizes Along the Constraint modes Only
 Value Taken    Lamda =   0.00276720
 Searching for Lamda that Minimizes Along All other modes
 Value Taken    Lamda =  -0.06711650
 Calculated Step too Large.  Step scaled by  0.715720
 Step Taken.  Stepsize is  0.300000

                             Maximum     Tolerance    Cnvgd?
         Gradient            0.083192       0.000300      NO
         Displacement        0.102320       0.001200      NO
         Energy change     *********       0.000001      NO


 New Cartesian Coordinates Obtained by Inverse Iteration

 Displacement from previous Coordinates is:  0.994031
 Adding empirical dispersion correction 
 ----------------------------------------------------------------
 Doing -D3(op) with
 s6 =   1.00000
 s8 =   0.78311
 a1 =   0.30000
 a2 =   4.25000
 n  =  10.00000
 -D3 energy without 3body term =     -0.0407621380 hartrees
 ----------------------------------------------------------------
             Standard Nuclear Orientation (Angstroms)
    I     Atom           X                Y                Z
 ----------------------------------------------------------------
    1      C       0.0744210560     0.6779644984     0.6425452911
    2      C       0.4810474125    -0.8313627971     0.6398668001
    3      C      -1.2322423654     0.9896567725    -0.1304547805
    4      C      -0.6040656191    -1.7838229196     0.0610777637
    5      O      -1.9302184598     1.9981337708     0.5481419672
    6      O      -1.6219963822     0.4437432688    -1.1779643748
    7      O      -1.7552313646    -1.6498549867     0.8557322864
    8      O      -0.4917396649    -2.6022781198    -0.8674309770
    9      C      -2.8541808282    -2.4857295193     0.3879025617
   10      C      -3.1793017255     2.3560910241    -0.1153070641
   11      C       1.3311870197     1.3597026132    -0.0165750473
   12      C       2.5285414780     1.2878214558     0.9991100042
   13      C       2.9329661228    -0.2157067613     0.9102435552
   14      C       1.8726078622    -0.7835981860    -0.1096248802
   15      O       1.7301964511     0.3631294113    -1.0320126608
   16      H      -0.0680540387     1.0178030785     1.6818825595
   17      H       0.6499379642    -1.1770151834     1.6752057988
   18      H      -2.6080115811    -3.5616927721     0.4637832407
   19      H      -3.8569362599     1.4864337633    -0.2020298309
   20      H       3.3620314392     1.9238448132     0.6686072080
   21      H       2.2492525407     1.5990931837     2.0163504652
   22      H       3.9486464441    -0.3045165463     0.4994228847
   23      H       2.9181434891    -0.7250788750     1.8849970770
   24      H      -3.7197994430    -2.2760714519     1.0387086819
   25      H      -3.1313511075    -2.2458800415    -0.6558411825
   26      H      -2.9977328858     2.7808327040    -1.1204700064
   27      H      -3.6681669273     3.1232105636     0.5084839959
   28      C       2.3628881545    -2.0389592308    -0.8525453850
   29      H       3.3947928063    -1.8905441121    -1.2031983630
   30      H       2.3423597667    -2.9205836153    -0.1982961541
   31      H       1.7552190147    -2.2356889182    -1.7466526669
   32      C       1.1349516757     2.7496747832    -0.6492034200
   33      H       2.0817912030     3.1072827614    -1.0783465581
   34      H       0.4082399487     2.7166184018    -1.4740596319
   35      H       0.7924001778     3.4765601023     0.1001930726
 ----------------------------------------------------------------
 Molecular Point Group                 C1    NOp =  1
 Largest Abelian Subgroup              C1    NOp =  1
 Nuclear Repulsion Energy =  1374.8962801329 hartrees
 There are       65 alpha and       65 beta electrons
 Applying Cartesian multipole field
    Component          Value
    ---------          -----
     (2,0,0)        1.00000E-11
     (0,2,0)        2.00000E-11
     (0,0,2)       -3.00000E-11
 Nucleus-field energy     =     0.0000000387 hartrees
 Requested basis set is STO-3G
 There are 52 shells and 103 basis functions
 A cutoff of  1.0D-12 yielded   1202 shell pairs
 There are      5186 function pairs
 Smallest overlap matrix eigenvalue = 2.08E-01
 Guess MOs from SCF MO coefficient file
 Reading MOs from coefficient file
 Reading MOs from coefficient file
 A restricted hybrid HF-DFT SCF calculation will be
 performed using Pulay DIIS extrapolation
 Exchange:     0.2000 Hartree-Fock + 0.0800 Slater + 0.7200 B88
 Correlation:  0.1900 VWN1RPA + 0.8100 LYP
 Using SG-1 standard quadrature grid
 Dispersion:   Grimme D3
 SCF converges when DIIS error is below 1.0E-08
 Geometry optimization detected.  Setting ReadMinima to 0
 Setting SaveMinima to 0
 -------------------------------------------------------
 OpenMP Integral computing Module                
 Release: version 1.0, May 2013, Q-Chem Inc. Pittsburgh 
 -------------------------------------------------------
 -------------------------------------------------------
 OpenMP BLAS3 based DFT computing Module                
 Release: version 1.0, May 2013, Q-Chem Inc. Pittsburgh 
 -------------------------------------------------------
 ---------------------------------------
  Cycle       Energy         DIIS Error
 ---------------------------------------
    1    -833.2739028838      5.00E-03
    2    -833.4350894410      1.83E-03
    3    -833.4290063486      2.76E-03
    4    -833.4396679688      6.16E-04
    5    -833.4402562640      1.05E-04
    6    -833.4402738622      2.86E-05
    7    -833.4402745089      2.22E-05
    8    -833.4402752567      4.14E-06
    9    -833.4402752892      7.04E-07
   10    -833.4402752902      3.37E-07
   11    -833.4402752904      7.65E-08
   12    -833.4402752905      2.86E-08
   13    -833.4402752905      4.39E-09 Convergence criterion met
 ---------------------------------------
 SCF time:  CPU 129.66 s  wall 6.27 s
 SCF   energy in the final basis set = -833.4402752905
 Total energy in the final basis set = -833.4402752905
 
 --------------------------------------------------------------
 
                    Orbital Energies (a.u.)
 --------------------------------------------------------------
 
 Alpha MOs
 -- Occupied --
-18.939 -18.929 -18.868 -18.866 -18.864 -10.100 -10.097 -10.069
-10.063 -10.062 -10.058 -10.031 -10.030 -10.014 -10.010 -10.008
-10.004  -1.022  -1.013  -0.965  -0.939  -0.933  -0.763  -0.741
 -0.722  -0.679  -0.675  -0.661  -0.619  -0.589  -0.537  -0.514
 -0.483  -0.475  -0.455  -0.437  -0.429  -0.419  -0.418  -0.411
 -0.403  -0.384  -0.383  -0.378  -0.368  -0.365  -0.359  -0.342
 -0.338  -0.331  -0.307  -0.298  -0.296  -0.290  -0.287  -0.277
 -0.266  -0.249  -0.243  -0.218  -0.178  -0.171  -0.150  -0.141
 -0.132
 -- Virtual --
  0.102   0.120   0.234   0.263   0.276   0.294   0.314   0.336
  0.353   0.357   0.370   0.379   0.389   0.398   0.410   0.416
  0.425   0.426   0.432   0.432   0.436   0.441   0.446   0.450
  0.453   0.466   0.470   0.478   0.485   0.486   0.493   0.498
  0.520   0.522   0.560   0.563   0.669   0.672
 --------------------------------------------------------------
 
          Ground-State Mulliken Net Atomic Charges

     Atom                 Charge (a.u.)
  ----------------------------------------
      1 C                    -0.081323
      2 C                    -0.081524
      3 C                     0.220513
      4 C                     0.222585
      5 O                    -0.176695
      6 O                    -0.220669
      7 O                    -0.184145
      8 O                    -0.215786
      9 C                    -0.125381
     10 C                    -0.125257
     11 C                     0.106378
     12 C                    -0.146520
     13 C                    -0.145425
     14 C                     0.106672
     15 O                    -0.202045
     16 H                     0.085548
     17 H                     0.083172
     18 H                     0.087896
     19 H                     0.090416
     20 H                     0.074453
     21 H                     0.069957
     22 H                     0.074195
     23 H                     0.068459
     24 H                     0.088983
     25 H                     0.093535
     26 H                     0.089470
     27 H                     0.091836
     28 C                    -0.227534
     29 H                     0.078358
     30 H                     0.080331
     31 H                     0.097643
     32 C                    -0.228614
     33 H                     0.083806
     34 H                     0.083847
     35 H                     0.082866
  ----------------------------------------
  Sum of atomic charges =    -0.000000

 -----------------------------------------------------------------
                    Cartesian Multipole Moments
 -----------------------------------------------------------------
    Charge (ESU x 10^10)
                 0.0000
    Dipole Moment (Debye)
         X      -0.7457      Y       1.1448      Z       2.2836
       Tot       2.6611
    Quadrupole Moments (Debye-Ang)
        XX     -83.3600     XY      -0.7365     YY     -89.2128
        XZ       1.3742     YZ      -3.7223     ZZ     -96.7465
    Octopole Moments (Debye-Ang^2)
       XXX     -49.7210    XXY      -1.8075    XYY     -19.9667
       YYY       4.2968    XXZ      -0.4857    XYZ       3.9764
       YYZ       1.6786    XZZ      -4.3485    YZZ      -0.0738
       ZZZ      -3.5269
    Hexadecapole Moments (Debye-Ang^3)
      XXXX   -2196.4681   XXXY     -14.0764   XXYY    -616.4347
      XYYY      -4.2118   YYYY   -1788.4989   XXXZ     -27.0043
      XXYZ      -6.2821   XYYZ      -6.9328   YYYZ     -41.0338
      XXZZ    -470.7888   XYZZ      -6.6051   YYZZ    -372.5334
      XZZZ      -3.9648   YZZZ      -2.6334   ZZZZ    -401.8208
 -----------------------------------------------------------------
 Calculating analytic gradient of the SCF energy
 Gradient of SCF Energy
            1           2           3           4           5           6
    1   0.0053769  -0.0037831  -0.0060725  -0.0132030  -0.0032437   0.0063248
    2  -0.0076808   0.0063033   0.0128787   0.0047968  -0.0154367   0.0057952
    3  -0.0208860  -0.0099629   0.0071391   0.0125520  -0.0219282   0.0128485
            7           8           9          10          11          12
    1   0.0087260   0.0015762   0.0070363   0.0086365  -0.0106442  -0.0041363
    2  -0.0156842   0.0075970   0.0066953  -0.0017342   0.0010808  -0.0021258
    3  -0.0212239   0.0112268   0.0048606   0.0062654   0.0049746  -0.0101702
           13          14          15          16          17          18
    1  -0.0041718  -0.0080159   0.0031011  -0.0000811   0.0008137  -0.0005031
    2   0.0014305  -0.0050608   0.0002034  -0.0038361  -0.0017229   0.0029957
    3  -0.0094669   0.0024524   0.0165813  -0.0001793  -0.0019804   0.0021451
           19          20          21          22          23          24
    1   0.0014417   0.0010729   0.0020386  -0.0004874   0.0016544   0.0005870
    2   0.0023885  -0.0029552  -0.0000953   0.0029937   0.0012119  -0.0018468
    3   0.0026015   0.0020982  -0.0012101   0.0023849  -0.0012803  -0.0027884
           25          26          27          28          29          30
    1  -0.0002865   0.0006941  -0.0006716  -0.0032253  -0.0018873   0.0014058
    2   0.0012026   0.0007142  -0.0016319   0.0053953  -0.0015688   0.0008019
    3   0.0033505   0.0035971  -0.0027468   0.0115617  -0.0028092  -0.0014276
           31          32          33          34          35
    1   0.0055801   0.0023713  -0.0023187   0.0032821   0.0010122
    2   0.0015999  -0.0065939   0.0004281   0.0014669  -0.0000065
    3  -0.0024048   0.0087910  -0.0020367  -0.0012819  -0.0016471
 Max gradient component =       2.193E-02
 RMS gradient           =       6.710E-03
 Gradient time:  CPU 26.35 s  wall 1.12 s
 Geometry Optimization Parameters
   NAtoms,    NIC,     NZ,  NCons,   NDum,   NFix, NCnnct, MaxDiis
       35     275       0       2       0       0       0       0

 Cartesian Hessian Update
 Hessian Updated using BFGS Update


** CONSTRAINED OPTIMIZATION IN DELOCALIZED INTERNAL COORDINATES **
   Searching for a Minimum

   Optimization Cycle:   2

                       Coordinates (Angstroms)
     ATOM                X               Y               Z
      1  C         0.0744210560    0.6779644984    0.6425452911
      2  C         0.4810474125   -0.8313627971    0.6398668001
      3  C        -1.2322423654    0.9896567725   -0.1304547805
      4  C        -0.6040656191   -1.7838229196    0.0610777637
      5  O        -1.9302184598    1.9981337708    0.5481419672
      6  O        -1.6219963822    0.4437432688   -1.1779643748
      7  O        -1.7552313646   -1.6498549867    0.8557322864
      8  O        -0.4917396649   -2.6022781198   -0.8674309770
      9  C        -2.8541808282   -2.4857295193    0.3879025617
     10  C        -3.1793017255    2.3560910241   -0.1153070641
     11  C         1.3311870197    1.3597026132   -0.0165750473
     12  C         2.5285414780    1.2878214558    0.9991100042
     13  C         2.9329661228   -0.2157067613    0.9102435552
     14  C         1.8726078622   -0.7835981860   -0.1096248802
     15  O         1.7301964511    0.3631294113   -1.0320126608
     16  H        -0.0680540387    1.0178030785    1.6818825595
     17  H         0.6499379642   -1.1770151834    1.6752057988
     18  H        -2.6080115811   -3.5616927721    0.4637832407
     19  H        -3.8569362599    1.4864337633   -0.2020298309
     20  H         3.3620314392    1.9238448132    0.6686072080
     21  H         2.2492525407    1.5990931837    2.0163504652
     22  H         3.9486464441   -0.3045165463    0.4994228847
     23  H         2.9181434891   -0.7250788750    1.8849970770
     24  H        -3.7197994430   -2.2760714519    1.0387086819
     25  H        -3.1313511075   -2.2458800415   -0.6558411825
     26  H        -2.9977328858    2.7808327040   -1.1204700064
     27  H        -3.6681669273    3.1232105636    0.5084839959
     28  C         2.3628881545   -2.0389592308   -0.8525453850
     29  H         3.3947928063   -1.8905441121   -1.2031983630
     30  H         2.3423597667   -2.9205836153   -0.1982961541
     31  H         1.7552190147   -2.2356889182   -1.7466526669
     32  C         1.1349516757    2.7496747832   -0.6492034200
     33  H         2.0817912030    3.1072827614   -1.0783465581
     34  H         0.4082399487    2.7166184018   -1.4740596319
     35  H         0.7924001778    3.4765601023    0.1001930726
   Point Group: c1    Number of degrees of freedom:    99


   Energy is   -833.440275290

              Constraints and their Current Values
                                        Value     Constraint
   Dihedral:        2   1   3   5      143.366      142.300
   Dihedral:        1   2   4   7      -60.320      -59.600
 Hessian Updated using BFGS Update

   Using Lagrange Multiplier Algorithm


 85 Hessian modes will be used to form the next step
  Hessian Eigenvalues:
    -0.977782   -0.976932    0.044979    0.045001    0.045056    0.045344
     0.045503    0.048602    0.060299    0.061432    0.067888    0.070234
     0.071458    0.071694    0.075563    0.076676    0.078217    0.080789
     0.081255    0.081779    0.083108    0.083417    0.083519    0.083643
     0.084735    0.090005    0.091418    0.091895    0.106314    0.109024
     0.113667    0.113898    0.115268    0.116905    0.116996    0.126763
     0.131347    0.139916    0.144461    0.158573    0.161547    0.166647
     0.185887    0.240728    0.243026    0.248814    0.249888    0.250078
     0.250657    0.260786    0.268685    0.283770    0.290274    0.305735
     0.306838    0.308728    0.316568    0.327348    0.337250    0.338987
     0.340979    0.341073    0.341340    0.341525    0.342288    0.342579
     0.342659    0.342835    0.342874    0.343344    0.343591    0.343686
     0.343728    0.343759    0.343919    0.344101    0.376869    0.411915
     0.417732    0.497632    0.513532    0.952359    0.972802    1.022742
     1.026423

 Minimum Search - Taking P-RFO Step
 Searching for Lamda that Maximizes Along the Constraint modes Only
 Value Taken    Lamda =   0.00033636
 Searching for Lamda that Minimizes Along All other modes
 Value Taken    Lamda =  -0.01133848
 Step Taken.  Stepsize is  0.259831

                             Maximum     Tolerance    Cnvgd?
         Gradient            0.026754       0.000300      NO
         Displacement        0.079532       0.001200      NO
         Energy change     -0.030312       0.000001      NO


 New Cartesian Coordinates Obtained by Inverse Iteration

 Displacement from previous Coordinates is:  0.819179
 Adding empirical dispersion correction 
 ----------------------------------------------------------------
 Doing -D3(op) with
 s6 =   1.00000
 s8 =   0.78311
 a1 =   0.30000
 a2 =   4.25000
 n  =  10.00000
 -D3 energy without 3body term =     -0.0409900551 hartrees
 ----------------------------------------------------------------
             Standard Nuclear Orientation (Angstroms)
    I     Atom           X                Y                Z
 ----------------------------------------------------------------
    1      C       0.1035123955     0.7024651555     0.6883728238
    2      C       0.5116452728    -0.8224684414     0.6868675795
    3      C      -1.2245036816     0.9821191391    -0.0891355845
    4      C      -0.5872172460    -1.7655522529     0.0787690828
    5      O      -1.9517497111     1.9881075809     0.6103322479
    6      O      -1.6292864314     0.4171979128    -1.1307329920
    7      O      -1.7623289869    -1.5933442617     0.8740945691
    8      O      -0.5025610097    -2.5675749215    -0.8759194526
    9      C      -2.8600383304    -2.4061926961     0.3185702351
   10      C      -3.2153095015     2.2716117395    -0.0985218055
   11      C       1.3637827642     1.3661349078    -0.0187286852
   12      C       2.5726951421     1.3011189144     1.0023050799
   13      C       2.9717400685    -0.2157249053     0.9238279793
   14      C       1.8966364273    -0.7814841537    -0.0967370603
   15      O       1.7363485077     0.3547797325    -1.0424613351
   16      H      -0.0283755238     1.0732560926     1.7204302759
   17      H       0.6849087341    -1.1619447566     1.7250688252
   18      H      -2.6319039003    -3.4915448101     0.3594189020
   19      H      -3.8446789446     1.3626711440    -0.1918517050
   20      H       3.3955638998     1.9455765465     0.6534066578
   21      H       2.2865657383     1.6233495205     2.0166207669
   22      H       3.9817228857    -0.3333235827     0.4991094233
   23      H       2.9470300864    -0.7242437373     1.9013805032
   24      H      -3.7451448400    -2.1930100094     0.9466758825
   25      H      -3.0773642610    -2.1305863694    -0.7341449905
   26      H      -3.0340100153     2.6790631082    -1.1146255884
   27      H      -3.7448413594     3.0268877274     0.5115230736
   28      C       2.3333587663    -2.0620396177    -0.8510581043
   29      H       3.3612787445    -1.9371750667    -1.2260934527
   30      H       2.3024888133    -2.9306473579    -0.1762792624
   31      H       1.6632069937    -2.2491166310    -1.7039143411
   32      C       1.1297350138     2.7472528849    -0.6804812143
   33      H       2.0680363083     3.1060050518    -1.1307321411
   34      H       0.3705913747     2.6711547053    -1.4747244925
   35      H       0.7910591800     3.4764346410     0.0716105304
 ----------------------------------------------------------------
 Molecular Point Group                 C1    NOp =  1
 Largest Abelian Subgroup              C1    NOp =  1
 Nuclear Repulsion Energy =  1372.2618162314 hartrees
 There are       65 alpha and       65 beta electrons
 Applying Cartesian multipole field
    Component          Value
    ---------          -----
     (2,0,0)        1.00000E-11
     (0,2,0)        2.00000E-11
     (0,0,2)       -3.00000E-11
 Nucleus-field energy     =     0.0000000381 hartrees
 Requested basis set is STO-3G
 There are 52 shells and 103 basis functions
 A cutoff of  1.0D-12 yielded   1202 shell pairs
 There are      5186 function pairs
 Smallest overlap matrix eigenvalue = 2.13E-01
 Guess MOs from SCF MO coefficient file
 Reading MOs from coefficient file
 Reading MOs from coefficient file
 A restricted hybrid HF-DFT SCF calculation will be
 performed using Pulay DIIS extrapolation
 Exchange:     0.2000 Hartree-Fock + 0.0800 Slater + 0.7200 B88
 Correlation:  0.1900 VWN1RPA + 0.8100 LYP
 Using SG-1 standard quadrature grid
 Dispersion:   Grimme D3
 SCF converges when DIIS error is below 1.0E-08
 Geometry optimization detected.  Setting ReadMinima to 0
 Setting SaveMinima to 0
 -------------------------------------------------------
 OpenMP Integral computing Module                
 Release: version 1.0, May 2013, Q-Chem Inc. Pittsburgh 
 -------------------------------------------------------
 -------------------------------------------------------
 OpenMP BLAS3 based DFT computing Module                
 Release: version 1.0, May 2013, Q-Chem Inc. Pittsburgh 
 -------------------------------------------------------
 ---------------------------------------
  Cycle       Energy         DIIS Error
 ---------------------------------------
    1    -833.3614225639      3.27E-03
    2    -833.4443636224      1.18E-03
    3    -833.4405098348      2.02E-03
    4    -833.4463208424      3.49E-04
    5    -833.4465089458      7.53E-05
    6    -833.4465176748      2.33E-05
    7    -833.4465180879      1.78E-05
    8    -833.4465185704      3.05E-06
    9    -833.4465185878      5.35E-07
   10    -833.4465185883      2.75E-07
   11    -833.4465185884      5.00E-08
   12    -833.4465185884      1.97E-08
   13    -833.4465185885      3.65E-09 Convergence criterion met
 ---------------------------------------
 SCF time:  CPU 128.70 s  wall 6.32 s
 SCF   energy in the final basis set = -833.4465185885
 Total energy in the final basis set = -833.4465185885
 
 --------------------------------------------------------------
 
                    Orbital Energies (a.u.)
 --------------------------------------------------------------
 
 Alpha MOs
 -- Occupied --
-18.936 -18.926 -18.871 -18.869 -18.869 -10.096 -10.094 -10.065
-10.061 -10.059 -10.057 -10.031 -10.029 -10.015 -10.013 -10.010
-10.004  -1.013  -1.004  -0.960  -0.934  -0.930  -0.760  -0.737
 -0.718  -0.674  -0.671  -0.655  -0.616  -0.588  -0.533  -0.511
 -0.479  -0.472  -0.452  -0.434  -0.425  -0.416  -0.414  -0.405
 -0.399  -0.384  -0.381  -0.377  -0.367  -0.363  -0.353  -0.341
 -0.336  -0.329  -0.309  -0.294  -0.292  -0.288  -0.287  -0.275
 -0.264  -0.253  -0.247  -0.222  -0.178  -0.170  -0.151  -0.143
 -0.134
 -- Virtual --
  0.096   0.116   0.234   0.259   0.271   0.287   0.306   0.325
  0.341   0.343   0.362   0.371   0.382   0.392   0.403   0.412
  0.415   0.421   0.427   0.428   0.432   0.433   0.438   0.440
  0.447   0.459   0.464   0.471   0.480   0.482   0.489   0.493
  0.509   0.514   0.550   0.557   0.653   0.658
 --------------------------------------------------------------
 
          Ground-State Mulliken Net Atomic Charges

     Atom                 Charge (a.u.)
  ----------------------------------------
      1 C                    -0.080360
      2 C                    -0.080935
      3 C                     0.212889
      4 C                     0.215504
      5 O                    -0.169834
      6 O                    -0.216540
      7 O                    -0.177368
      8 O                    -0.210311
      9 C                    -0.127903
     10 C                    -0.127367
     11 C                     0.104696
     12 C                    -0.145613
     13 C                    -0.144801
     14 C                     0.104492
     15 O                    -0.197504
     16 H                     0.084863
     17 H                     0.082244
     18 H                     0.086717
     19 H                     0.089588
     20 H                     0.074371
     21 H                     0.070717
     22 H                     0.073873
     23 H                     0.069314
     24 H                     0.086695
     25 H                     0.093011
     26 H                     0.088127
     27 H                     0.089746
     28 C                    -0.227086
     29 H                     0.077833
     30 H                     0.078738
     31 H                     0.099546
     32 C                    -0.227134
     33 H                     0.083386
     34 H                     0.084413
     35 H                     0.081991
  ----------------------------------------
  Sum of atomic charges =     0.000000

 -----------------------------------------------------------------
                    Cartesian Multipole Moments
 -----------------------------------------------------------------
    Charge (ESU x 10^10)
                 0.0000
    Dipole Moment (Debye)
         X      -0.5699      Y       1.0836      Z       2.1625
       Tot       2.4850
    Quadrupole Moments (Debye-Ang)
        XX     -83.8341     XY      -0.6134     YY     -89.6562
        XZ       1.8449     YZ      -3.4813     ZZ     -96.5968
    Octopole Moments (Debye-Ang^2)
       XXX     -49.8443    XXY      -1.8640    XYY     -18.1852
       YYY       1.6900    XXZ      -2.0124    XYZ       3.4349
       YYZ       0.2181    XZZ      -4.6818    YZZ      -0.1831
       ZZZ      -6.0212
    Hexadecapole Moments (Debye-Ang^3)
      XXXX   -2230.4417   XXXY     -15.3679   XXYY    -621.3289
      XYYY      -1.3927   YYYY   -1752.1601   XXXZ     -29.4635
      XXYZ      -8.2055   XYYZ      -6.0428   YYYZ     -44.0504
      XXZZ    -476.9405   XYZZ      -6.8713   YYZZ    -367.0832
      XZZZ      -5.1864   YZZZ      -9.9021   ZZZZ    -406.5480
 -----------------------------------------------------------------
 Calculating analytic gradient of the SCF energy
 Gradient of SCF Energy
            1           2           3           4           5           6
    1   0.0037878  -0.0015882  -0.0025663  -0.0060410  -0.0003235  -0.0005203
    2  -0.0010428   0.0029127   0.0079899   0.0000802  -0.0030943  -0.0020972
    3  -0.0060203  -0.0019495   0.0021987   0.0052466  -0.0014553  -0.0002137
            7           8           9          10          11          12
    1   0.0017763   0.0017885   0.0042132   0.0037659  -0.0041710  -0.0017265
    2  -0.0004978  -0.0015671   0.0015259  -0.0019833   0.0019464   0.0001115
    3  -0.0026848  -0.0011556   0.0002118   0.0006277   0.0044379  -0.0013876
           13          14          15          16          17          18
    1  -0.0016235  -0.0033467   0.0031664  -0.0006664   0.0011425  -0.0000312
    2  -0.0006259  -0.0031769   0.0003000  -0.0017336   0.0000557  -0.0002942
    3  -0.0008993   0.0012646  -0.0009306   0.0010156   0.0001884   0.0001820
           19          20          21          22          23          24
    1  -0.0003201   0.0005060   0.0008303   0.0002254   0.0012683   0.0000025
    2  -0.0000914  -0.0002985   0.0006571   0.0003407  -0.0001564   0.0003245
    3   0.0001325   0.0000859   0.0003718  -0.0000984   0.0004026   0.0002114
           25          26          27          28          29          30
    1  -0.0002557   0.0000143   0.0000772  -0.0015926   0.0002339  -0.0002085
    2  -0.0000670   0.0002120   0.0001161   0.0002693   0.0002462   0.0000796
    3  -0.0002319  -0.0001508   0.0002810   0.0025364  -0.0004830   0.0001375
           31          32          33          34          35
    1   0.0012432   0.0001577   0.0002854   0.0003438   0.0001529
    2   0.0008992  -0.0011341  -0.0003421   0.0001529  -0.0000174
    3  -0.0019279   0.0012833  -0.0004962  -0.0009384   0.0002075
 Max gradient component =       7.990E-03
 RMS gradient           =       1.933E-03
 Gradient time:  CPU 27.67 s  wall 1.21 s
 Geometry Optimization Parameters
   NAtoms,    NIC,     NZ,  NCons,   NDum,   NFix, NCnnct, MaxDiis
       35     275       0       2       0       0       0       0

 Cartesian Hessian Update
 Hessian Updated using BFGS Update


** CONSTRAINED OPTIMIZATION IN DELOCALIZED INTERNAL COORDINATES **
   Searching for a Minimum

   Optimization Cycle:   3

                       Coordinates (Angstroms)
     ATOM                X               Y               Z
      1  C         0.1035123955    0.7024651555    0.6883728238
      2  C         0.5116452728   -0.8224684414    0.6868675795
      3  C        -1.2245036816    0.9821191391   -0.0891355845
      4  C        -0.5872172460   -1.7655522529    0.0787690828
      5  O        -1.9517497111    1.9881075809    0.6103322479
      6  O        -1.6292864314    0.4171979128   -1.1307329920
      7  O        -1.7623289869   -1.5933442617    0.8740945691
      8  O        -0.5025610097   -2.5675749215   -0.8759194526
      9  C        -2.8600383304   -2.4061926961    0.3185702351
     10  C        -3.2153095015    2.2716117395   -0.0985218055
     11  C         1.3637827642    1.3661349078   -0.0187286852
     12  C         2.5726951421    1.3011189144    1.0023050799
     13  C         2.9717400685   -0.2157249053    0.9238279793
     14  C         1.8966364273   -0.7814841537   -0.0967370603
     15  O         1.7363485077    0.3547797325   -1.0424613351
     16  H        -0.0283755238    1.0732560926    1.7204302759
     17  H         0.6849087341   -1.1619447566    1.7250688252
     18  H        -2.6319039003   -3.4915448101    0.3594189020
     19  H        -3.8446789446    1.3626711440   -0.1918517050
     20  H         3.3955638998    1.9455765465    0.6534066578
     21  H         2.2865657383    1.6233495205    2.0166207669
     22  H         3.9817228857   -0.3333235827    0.4991094233
     23  H         2.9470300864   -0.7242437373    1.9013805032
     24  H        -3.7451448400   -2.1930100094    0.9466758825
     25  H        -3.0773642610   -2.1305863694   -0.7341449905
     26  H        -3.0340100153    2.6790631082   -1.1146255884
     27  H        -3.7448413594    3.0268877274    0.5115230736
     28  C         2.3333587663   -2.0620396177   -0.8510581043
     29  H         3.3612787445   -1.9371750667   -1.2260934527
     30  H         2.3024888133   -2.9306473579   -0.1762792624
     31  H         1.6632069937   -2.2491166310   -1.7039143411
     32  C         1.1297350138    2.7472528849   -0.6804812143
     33  H         2.0680363083    3.1060050518   -1.1307321411
     34  H         0.3705913747    2.6711547053   -1.4747244925
     35  H         0.7910591800    3.4764346410    0.0716105304
   Point Group: c1    Number of degrees of freedom:    99


   Energy is   -833.446518588

              Constraints and their Current Values
                                        Value     Constraint
   Dihedral:        2   1   3   5      142.306      142.300
   Dihedral:        1   2   4   7      -59.601      -59.600
 Hessian Updated using BFGS Update

   Using Lagrange Multiplier Algorithm


 88 Hessian modes will be used to form the next step
  Hessian Eigenvalues:
    -0.977576   -0.976893    0.043450    0.045000    0.045002    0.045040
     0.045389    0.045482    0.048503    0.057912    0.060328    0.067528
     0.070265    0.071450    0.071648    0.075530    0.076212    0.078173
     0.080160    0.080943    0.081709    0.082588    0.083417    0.083525
     0.083634    0.084735    0.090123    0.091394    0.092034    0.106515
     0.108407    0.113449    0.113891    0.115738    0.116909    0.116997
     0.127712    0.131886    0.139997    0.144850    0.158785    0.160803
     0.162689    0.166945    0.185698    0.241125    0.242054    0.249486
     0.249998    0.250076    0.250365    0.260688    0.267504    0.268757
     0.284295    0.290384    0.305748    0.306983    0.308758    0.313160
     0.327364    0.337239    0.338998    0.341067    0.341116    0.341380
     0.341519    0.342173    0.342549    0.342674    0.342843    0.342879
     0.343323    0.343603    0.343676    0.343748    0.343762    0.343947
     0.344108    0.385884    0.396127    0.412031    0.477429    0.513064
     0.952287    0.987851    1.023065    1.028804

 Minimum Search - Taking P-RFO Step
 Searching for Lamda that Maximizes Along the Constraint modes Only
 Value Taken    Lamda =   0.00000864
 Searching for Lamda that Minimizes Along All other modes
 Value Taken    Lamda =  -0.00132591
 Step Taken.  Stepsize is  0.133703

                             Maximum     Tolerance    Cnvgd?
         Gradient            0.006732       0.000300      NO
         Displacement        0.044670       0.001200      NO
         Energy change     -0.006243       0.000001      NO


 New Cartesian Coordinates Obtained by Inverse Iteration

 Displacement from previous Coordinates is:  0.381996
 Adding empirical dispersion correction 
 ----------------------------------------------------------------
 Doing -D3(op) with
 s6 =   1.00000
 s8 =   0.78311
 a1 =   0.30000
 a2 =   4.25000
 n  =  10.00000
 -D3 energy without 3body term =     -0.0411707577 hartrees
 ----------------------------------------------------------------
             Standard Nuclear Orientation (Angstroms)
    I     Atom           X                Y                Z
 ----------------------------------------------------------------
    1      C       0.1151232360     0.6934602601     0.7102708638
    2      C       0.5322580810    -0.8350262333     0.7058498095
    3      C      -1.2131070901     0.9597845478    -0.0761996143
    4      C      -0.5753424386    -1.7651904683     0.0835510192
    5      O      -1.9614257089     1.9641810198     0.6211727033
    6      O      -1.6041091065     0.4037976169    -1.1277120911
    7      O      -1.7606777931    -1.5906418719     0.8803526667
    8      O      -0.5102803583    -2.5463237281    -0.8888937879
    9      C      -2.8847532642    -2.3629576903     0.3004533217
   10      C      -3.2259049916     2.2522460518    -0.0994517178
   11      C       1.3701767213     1.3589611055    -0.0182648361
   12      C       2.5877730172     1.3069558289     0.9971913951
   13      C       2.9968183208    -0.2073580340     0.9221259016
   14      C       1.9172107125    -0.7833442510    -0.0905192145
   15      O       1.7306872074     0.3446411850    -1.0404764999
   16      H      -0.0134657582     1.0776648460     1.7370874621
   17      H       0.7045843515    -1.1783055243     1.7423697899
   18      H      -2.6810767977    -3.4535845979     0.3049464750
   19      H      -3.8481863210     1.3404302814    -0.2081981908
   20      H       3.4007148642     1.9606058389     0.6424300856
   21      H       2.2965680083     1.6275744871     2.0101381228
   22      H       4.0053133753    -0.3245771752     0.4940880817
   23      H       2.9708269397    -0.7142658305     1.8998565817
   24      H      -3.7655278248    -2.1495920441     0.9342396368
   25      H      -3.0913280779    -2.0488733444    -0.7433661271
   26      H      -3.0353075426     2.6664182025    -1.1109036308
   27      H      -3.7649785628     3.0004131659     0.5106353686
   28      C       2.3485295750    -2.0699724848    -0.8449989135
   29      H       3.3684596417    -1.9472238519    -1.2400988697
   30      H       2.3337531816    -2.9313686271    -0.1602771223
   31      H       1.6515220970    -2.2709096293    -1.6715565877
   32      C       1.1070031696     2.7365945100    -0.6842810382
   33      H       2.0310228920     3.1110435417    -1.1497975520
   34      H       0.3320104753     2.6410609187    -1.4599108814
   35      H       0.7677091427     3.4628949117     0.0703896206
 ----------------------------------------------------------------
 Molecular Point Group                 C1    NOp =  1
 Largest Abelian Subgroup              C1    NOp =  1
 Nuclear Repulsion Energy =  1371.8292239933 hartrees
 There are       65 alpha and       65 beta electrons
 Applying Cartesian multipole field
    Component          Value
    ---------          -----
     (2,0,0)        1.00000E-11
     (0,2,0)        2.00000E-11
     (0,0,2)       -3.00000E-11
 Nucleus-field energy     =     0.0000000378 hartrees
 Requested basis set is STO-3G
 There are 52 shells and 103 basis functions
 A cutoff of  1.0D-12 yielded   1201 shell pairs
 There are      5182 function pairs
 Smallest overlap matrix eigenvalue = 2.13E-01
 Guess MOs from SCF MO coefficient file
 Reading MOs from coefficient file
 Reading MOs from coefficient file
 A restricted hybrid HF-DFT SCF calculation will be
 performed using Pulay DIIS extrapolation
 Exchange:     0.2000 Hartree-Fock + 0.0800 Slater + 0.7200 B88
 Correlation:  0.1900 VWN1RPA + 0.8100 LYP
 Using SG-1 standard quadrature grid
 Dispersion:   Grimme D3
 SCF converges when DIIS error is below 1.0E-08
 Geometry optimization detected.  Setting ReadMinima to 0
 Setting SaveMinima to 0
 -------------------------------------------------------
 OpenMP Integral computing Module                
 Release: version 1.0, May 2013, Q-Chem Inc. Pittsburgh 
 -------------------------------------------------------
 -------------------------------------------------------
 OpenMP BLAS3 based DFT computing Module                
 Release: version 1.0, May 2013, Q-Chem Inc. Pittsburgh 
 -------------------------------------------------------
 ---------------------------------------
  Cycle       Energy         DIIS Error
 ---------------------------------------
    1    -833.4301760257      1.63E-03
    2    -833.4469941155      3.88E-04
    3    -833.4461418668      8.55E-04
    4    -833.4472320575      7.15E-05
    5    -833.4472395693      2.43E-05
    6    -833.4472403225      1.11E-05
    7    -833.4472404625      6.15E-06
    8    -833.4472405206      9.39E-07
    9    -833.4472405221      1.35E-07
   10    -833.4472405221      4.11E-08
   11    -833.4472405221      2.24E-08
   12    -833.4472405221      4.89E-09 Convergence criterion met
 ---------------------------------------
 SCF time:  CPU 113.48 s  wall 5.72 s
 SCF   energy in the final basis set = -833.4472405221
 Total energy in the final basis set = -833.4472405221
 
 --------------------------------------------------------------
 
                    Orbital Energies (a.u.)
 --------------------------------------------------------------
 
 Alpha MOs
 -- Occupied --
-18.932 -18.923 -18.873 -18.871 -18.869 -10.095 -10.093 -10.063
-10.061 -10.057 -10.057 -10.031 -10.030 -10.015 -10.014 -10.011
-10.004  -1.009  -1.000  -0.961  -0.932  -0.928  -0.759  -0.736
 -0.718  -0.674  -0.669  -0.653  -0.616  -0.588  -0.532  -0.511
 -0.477  -0.470  -0.451  -0.434  -0.424  -0.415  -0.412  -0.403
 -0.399  -0.385  -0.381  -0.378  -0.367  -0.363  -0.352  -0.341
 -0.337  -0.329  -0.311  -0.295  -0.293  -0.289  -0.287  -0.275
 -0.263  -0.251  -0.246  -0.223  -0.176  -0.169  -0.151  -0.143
 -0.135
 -- Virtual --
  0.096   0.116   0.231   0.255   0.266   0.287   0.304   0.323
  0.338   0.341   0.359   0.370   0.381   0.390   0.401   0.409
  0.414   0.421   0.424   0.427   0.431   0.433   0.438   0.440
  0.448   0.457   0.463   0.470   0.480   0.482   0.487   0.494
  0.506   0.513   0.547   0.556   0.652   0.657
 --------------------------------------------------------------
 
          Ground-State Mulliken Net Atomic Charges

     Atom                 Charge (a.u.)
  ----------------------------------------
      1 C                    -0.080112
      2 C                    -0.080503
      3 C                     0.211356
      4 C                     0.214012
      5 O                    -0.169499
      6 O                    -0.216026
      7 O                    -0.177215
      8 O                    -0.208960
      9 C                    -0.129449
     10 C                    -0.128780
     11 C                     0.105218
     12 C                    -0.145800
     13 C                    -0.145132
     14 C                     0.105011
     15 O                    -0.196894
     16 H                     0.085109
     17 H                     0.082496
     18 H                     0.086634
     19 H                     0.089198
     20 H                     0.074735
     21 H                     0.071264
     22 H                     0.074502
     23 H                     0.070111
     24 H                     0.086843
     25 H                     0.092764
     26 H                     0.087725
     27 H                     0.089864
     28 C                    -0.228217
     29 H                     0.078269
     30 H                     0.078239
     31 H                     0.100520
     32 C                    -0.227470
     33 H                     0.083354
     34 H                     0.084888
     35 H                     0.081946
  ----------------------------------------
  Sum of atomic charges =     0.000000

 -----------------------------------------------------------------
                    Cartesian Multipole Moments
 -----------------------------------------------------------------
    Charge (ESU x 10^10)
                -0.0000
    Dipole Moment (Debye)
         X      -0.4914      Y       1.0838      Z       2.1437
       Tot       2.4518
    Quadrupole Moments (Debye-Ang)
        XX     -83.6157     XY      -0.6561     YY     -89.7044
        XZ       1.9917     YZ      -3.4244     ZZ     -96.6808
    Octopole Moments (Debye-Ang^2)
       XXX     -51.0996    XXY      -1.7261    XYY     -17.9146
       YYY       2.1772    XXZ      -2.5719    XYZ       3.2980
       YYZ      -0.2753    XZZ      -4.8405    YZZ       0.2425
       ZZZ      -6.4023
    Hexadecapole Moments (Debye-Ang^3)
      XXXX   -2244.0898   XXXY     -13.4612   XXYY    -621.4288
      XYYY       0.5430   YYYY   -1730.6602   XXXZ     -31.1736
      XXYZ      -8.8519   XYYZ      -6.3517   YYYZ     -44.0495
      XXZZ    -480.1722   XYZZ      -6.3967   YYZZ    -364.2820
      XZZZ      -6.6633   YZZZ     -11.7025   ZZZZ    -408.2456
 -----------------------------------------------------------------
 Calculating analytic gradient of the SCF energy
 Gradient of SCF Energy
            1           2           3           4           5           6
    1   0.0019857  -0.0004474   0.0022215   0.0008953  -0.0001962  -0.0011634
    2   0.0005550   0.0002422   0.0024193  -0.0001708  -0.0011435  -0.0017317
    3  -0.0014907  -0.0001078   0.0001275   0.0024689   0.0008560  -0.0006761
            7           8           9          10          11          12
    1   0.0004046  -0.0003126  -0.0019676  -0.0015171  -0.0012731  -0.0002005
    2   0.0008296  -0.0009545  -0.0003955   0.0011484   0.0005400   0.0000078
    3  -0.0010679  -0.0008036   0.0004445   0.0001143   0.0025899   0.0005193
           13          14          15          16          17          18
    1   0.0003198  -0.0006814   0.0013587  -0.0004959   0.0007604  -0.0000404
    2  -0.0004904  -0.0006438   0.0003577  -0.0009047   0.0005059  -0.0001261
    3   0.0006123   0.0008269  -0.0017954   0.0003376  -0.0000063  -0.0001535
           19          20          21          22          23          24
    1  -0.0000167   0.0000802   0.0002317   0.0000928   0.0005830  -0.0004572
    2  -0.0000802  -0.0000615   0.0003727   0.0001869  -0.0001900  -0.0001434
    3  -0.0002023  -0.0002378   0.0000607  -0.0002581  -0.0000243  -0.0001143
           25          26          27          28          29          30
    1   0.0000533  -0.0001520  -0.0003227  -0.0001245   0.0003754  -0.0005757
    2  -0.0002785  -0.0001386   0.0002116  -0.0006048  -0.0000702  -0.0000845
    3  -0.0001173  -0.0001819  -0.0000768  -0.0008795   0.0005014  -0.0002371
           31          32          33          34          35
    1   0.0007101  -0.0002542   0.0000961  -0.0000003   0.0000304
    2   0.0005488   0.0003905  -0.0000776  -0.0001008   0.0000745
    3  -0.0003676  -0.0008027   0.0001185  -0.0000095   0.0000328
 Max gradient component =       2.590E-03
 RMS gradient           =       7.958E-04
 Gradient time:  CPU 27.32 s  wall 1.17 s
 Geometry Optimization Parameters
   NAtoms,    NIC,     NZ,  NCons,   NDum,   NFix, NCnnct, MaxDiis
       35     275       0       2       0       0       0       0

 Cartesian Hessian Update
 Hessian Updated using BFGS Update


** CONSTRAINED OPTIMIZATION IN DELOCALIZED INTERNAL COORDINATES **
   Searching for a Minimum

   Optimization Cycle:   4

                       Coordinates (Angstroms)
     ATOM                X               Y               Z
      1  C         0.1151232360    0.6934602601    0.7102708638
      2  C         0.5322580810   -0.8350262333    0.7058498095
      3  C        -1.2131070901    0.9597845478   -0.0761996143
      4  C        -0.5753424386   -1.7651904683    0.0835510192
      5  O        -1.9614257089    1.9641810198    0.6211727033
      6  O        -1.6041091065    0.4037976169   -1.1277120911
      7  O        -1.7606777931   -1.5906418719    0.8803526667
      8  O        -0.5102803583   -2.5463237281   -0.8888937879
      9  C        -2.8847532642   -2.3629576903    0.3004533217
     10  C        -3.2259049916    2.2522460518   -0.0994517178
     11  C         1.3701767213    1.3589611055   -0.0182648361
     12  C         2.5877730172    1.3069558289    0.9971913951
     13  C         2.9968183208   -0.2073580340    0.9221259016
     14  C         1.9172107125   -0.7833442510   -0.0905192145
     15  O         1.7306872074    0.3446411850   -1.0404764999
     16  H        -0.0134657582    1.0776648460    1.7370874621
     17  H         0.7045843515   -1.1783055243    1.7423697899
     18  H        -2.6810767977   -3.4535845979    0.3049464750
     19  H        -3.8481863210    1.3404302814   -0.2081981908
     20  H         3.4007148642    1.9606058389    0.6424300856
     21  H         2.2965680083    1.6275744871    2.0101381228
     22  H         4.0053133753   -0.3245771752    0.4940880817
     23  H         2.9708269397   -0.7142658305    1.8998565817
     24  H        -3.7655278248   -2.1495920441    0.9342396368
     25  H        -3.0913280779   -2.0488733444   -0.7433661271
     26  H        -3.0353075426    2.6664182025   -1.1109036308
     27  H        -3.7649785628    3.0004131659    0.5106353686
     28  C         2.3485295750   -2.0699724848   -0.8449989135
     29  H         3.3684596417   -1.9472238519   -1.2400988697
     30  H         2.3337531816   -2.9313686271   -0.1602771223
     31  H         1.6515220970   -2.2709096293   -1.6715565877
     32  C         1.1070031696    2.7365945100   -0.6842810382
     33  H         2.0310228920    3.1110435417   -1.1497975520
     34  H         0.3320104753    2.6410609187   -1.4599108814
     35  H         0.7677091427    3.4628949117    0.0703896206
   Point Group: c1    Number of degrees of freedom:    99


   Energy is   -833.447240522

              Constraints and their Current Values
                                        Value     Constraint
   Dihedral:        2   1   3   5      142.300      142.300
   Dihedral:        1   2   4   7      -59.600      -59.600
 Hessian Updated using BFGS Update

   Using Lagrange Multiplier Algorithm


 89 Hessian modes will be used to form the next step
  Hessian Eigenvalues:
    -0.976135    0.028288    0.045000    0.045002    0.045008    0.045092
     0.045479    0.045510    0.048358    0.055029    0.060331    0.067326
     0.070296    0.071420    0.071731    0.075495    0.075897    0.078125
     0.080671    0.081034    0.081748    0.082899    0.083423    0.083524
     0.083649    0.084735    0.090087    0.091618    0.092042    0.106590
     0.107900    0.113880    0.114555    0.115673    0.116911    0.116997
     0.127656    0.131507    0.139979    0.144763    0.159196    0.160372
     0.160812    0.163171    0.168464    0.186165    0.240001    0.243201
     0.249456    0.250000    0.250046    0.250081    0.250346    0.260693
     0.268649    0.279374    0.287241    0.293166    0.305940    0.306995
     0.308768    0.324951    0.327935    0.337386    0.339124    0.341068
     0.341120    0.341400    0.341567    0.342485    0.342660    0.342805
     0.342856    0.342946    0.343406    0.343601    0.343678    0.343751
     0.343899    0.344094    0.345361    0.384166    0.411964    0.452736
     0.511427    0.536190    0.952730    0.987836    1.026700

 Minimum Search - Taking P-RFO Step
 Searching for Lamda that Maximizes Along the Constraint modes Only
 Value Taken    Lamda =   0.00000085
 Searching for Lamda that Minimizes Along All other modes
 Value Taken    Lamda =  -0.00039986
 Step Taken.  Stepsize is  0.101973

                             Maximum     Tolerance    Cnvgd?
         Gradient            0.003632       0.000300      NO
         Displacement        0.040535       0.001200      NO
         Energy change     -0.000722       0.000001      NO


 New Cartesian Coordinates Obtained by Inverse Iteration

 Displacement from previous Coordinates is:  0.283848
 Adding empirical dispersion correction 
 ----------------------------------------------------------------
 Doing -D3(op) with
 s6 =   1.00000
 s8 =   0.78311
 a1 =   0.30000
 a2 =   4.25000
 n  =  10.00000
 -D3 energy without 3body term =     -0.0413468828 hartrees
 ----------------------------------------------------------------
             Standard Nuclear Orientation (Angstroms)
    I     Atom           X                Y                Z
 ----------------------------------------------------------------
    1      C       0.1168180850     0.6870784148     0.7263506734
    2      C       0.5394456311    -0.8413285588     0.7203567601
    3      C      -1.2105093283     0.9492578369    -0.0614138121
    4      C      -0.5677781388    -1.7651217692     0.0901266293
    5      O      -1.9617411475     1.9512021908     0.6392096373
    6      O      -1.5921993125     0.4084530324    -1.1233827029
    7      O      -1.7552820895    -1.5889931372     0.8867545488
    8      O      -0.5069026040    -2.5330254171    -0.8923249069
    9      C      -2.8792247750    -2.3366880632     0.2766610703
   10      C      -3.2174641997     2.2403397905    -0.0953334636
   11      C       1.3653644265     1.3529058450    -0.0208300092
   12      C       2.5910213354     1.3121516830     0.9858105836
   13      C       3.0040566373    -0.2001317574     0.9161559428
   14      C       1.9196082832    -0.7858368204    -0.0851040707
   15      O       1.7132846097     0.3334000967    -1.0396705135
   16      H      -0.0063782711     1.0798724100     1.7503489555
   17      H       0.7106355311    -1.1871956466     1.7562190613
   18      H      -2.6849391106    -3.4287640293     0.2545385830
   19      H      -3.8370531406     1.3282057760    -0.2162673329
   20      H       3.3978954944     1.9698150288     0.6252173347
   21      H       2.3005501460     1.6333304154     1.9986216161
   22      H       4.0107732241    -0.3199979792     0.4854532414
   23      H       2.9787673206    -0.7011337392     1.8968104855
   24      H      -3.7616049343    -2.1306095461     0.9100096551
   25      H      -3.0736284097    -1.9917129178    -0.7598913257
   26      H      -3.0147083845     2.6614660899    -1.1015713990
   27      H      -3.7630094128     2.9837441204     0.5142477491
   28      C       2.3448320409    -2.0791883121    -0.8316266353
   29      H       3.3552524644    -1.9580093502    -1.2499207997
   30      H       2.3494928403    -2.9301445909    -0.1334770059
   31      H       1.6271351299    -2.2981212191    -1.6359909718
   32      C       1.0865184704     2.7275499132    -0.6874547098
   33      H       2.0011281779     3.1085561840    -1.1658122425
   34      H       0.3006374119     2.6251874451    -1.4509414164
   35      H       0.7517993726     3.4526995144     0.0703630211
 ----------------------------------------------------------------
 Molecular Point Group                 C1    NOp =  1
 Largest Abelian Subgroup              C1    NOp =  1
 Nuclear Repulsion Energy =  1373.9296035499 hartrees
 There are       65 alpha and       65 beta electrons
 Applying Cartesian multipole field
    Component          Value
    ---------          -----
     (2,0,0)        1.00000E-11
     (0,2,0)        2.00000E-11
     (0,0,2)       -3.00000E-11
 Nucleus-field energy     =     0.0000000375 hartrees
 Requested basis set is STO-3G
 There are 52 shells and 103 basis functions
 A cutoff of  1.0D-12 yielded   1201 shell pairs
 There are      5182 function pairs
 Smallest overlap matrix eigenvalue = 2.13E-01
 Guess MOs from SCF MO coefficient file
 Reading MOs from coefficient file
 Reading MOs from coefficient file
 A restricted hybrid HF-DFT SCF calculation will be
 performed using Pulay DIIS extrapolation
 Exchange:     0.2000 Hartree-Fock + 0.0800 Slater + 0.7200 B88
 Correlation:  0.1900 VWN1RPA + 0.8100 LYP
 Using SG-1 standard quadrature grid
 Dispersion:   Grimme D3
 SCF converges when DIIS error is below 1.0E-08
 Geometry optimization detected.  Setting ReadMinima to 0
 Setting SaveMinima to 0
 -------------------------------------------------------
 OpenMP Integral computing Module                
 Release: version 1.0, May 2013, Q-Chem Inc. Pittsburgh 
 -------------------------------------------------------
 -------------------------------------------------------
 OpenMP BLAS3 based DFT computing Module                
 Release: version 1.0, May 2013, Q-Chem Inc. Pittsburgh 
 -------------------------------------------------------
 ---------------------------------------
  Cycle       Energy         DIIS Error
 ---------------------------------------
    1    -833.4458624771      1.07E-03
    2    -833.4474703893      1.11E-04
    3    -833.4474303938      2.13E-04
    4    -833.4474951677      4.00E-05
    5    -833.4474973409      1.48E-05
    6    -833.4474976466      6.16E-06
    7    -833.4474976987      2.28E-06
    8    -833.4474977065      4.94E-07
    9    -833.4474977069      9.84E-08
   10    -833.4474977069      4.30E-08
   11    -833.4474977069      9.64E-09 Convergence criterion met
 ---------------------------------------
 SCF time:  CPU 107.06 s  wall 5.12 s
 SCF   energy in the final basis set = -833.4474977069
 Total energy in the final basis set = -833.4474977069
 
 --------------------------------------------------------------
 
                    Orbital Energies (a.u.)
 --------------------------------------------------------------
 
 Alpha MOs
 -- Occupied --
-18.932 -18.923 -18.874 -18.872 -18.870 -10.095 -10.094 -10.063
-10.061 -10.058 -10.057 -10.031 -10.030 -10.015 -10.014 -10.012
-10.004  -1.010  -1.001  -0.962  -0.932  -0.929  -0.759  -0.736
 -0.719  -0.674  -0.669  -0.653  -0.616  -0.588  -0.531  -0.511
 -0.477  -0.470  -0.451  -0.434  -0.424  -0.416  -0.412  -0.403
 -0.399  -0.385  -0.381  -0.378  -0.367  -0.363  -0.352  -0.341
 -0.336  -0.329  -0.311  -0.295  -0.293  -0.289  -0.287  -0.275
 -0.263  -0.252  -0.247  -0.223  -0.176  -0.169  -0.152  -0.144
 -0.136
 -- Virtual --
  0.096   0.115   0.232   0.256   0.267   0.288   0.304   0.323
  0.337   0.341   0.358   0.370   0.380   0.390   0.401   0.409
  0.414   0.420   0.423   0.427   0.431   0.433   0.438   0.440
  0.448   0.456   0.463   0.471   0.480   0.482   0.486   0.495
  0.505   0.514   0.546   0.556   0.652   0.657
 --------------------------------------------------------------
 
          Ground-State Mulliken Net Atomic Charges

     Atom                 Charge (a.u.)
  ----------------------------------------
      1 C                    -0.080248
      2 C                    -0.080618
      3 C                     0.211332
      4 C                     0.214218
      5 O                    -0.169335
      6 O                    -0.216507
      7 O                    -0.176663
      8 O                    -0.208202
      9 C                    -0.129833
     10 C                    -0.129032
     11 C                     0.105618
     12 C                    -0.145929
     13 C                    -0.145314
     14 C                     0.105311
     15 O                    -0.196834
     16 H                     0.084981
     17 H                     0.082454
     18 H                     0.086860
     19 H                     0.089039
     20 H                     0.074866
     21 H                     0.071443
     22 H                     0.074774
     23 H                     0.070325
     24 H                     0.086619
     25 H                     0.092832
     26 H                     0.087592
     27 H                     0.089588
     28 C                    -0.228989
     29 H                     0.078252
     30 H                     0.077634
     31 H                     0.101284
     32 C                    -0.227700
     33 H                     0.083323
     34 H                     0.084949
     35 H                     0.081909
[...]
 C          0.000  0.000 -0.000    0.000  0.000 -0.000   -0.001  0.000 -0.001
 C         -0.000 -0.000  0.000    0.015  0.033  0.021    0.019  0.040  0.021
 C         -0.001  0.001 -0.001   -0.031  0.022 -0.030    0.011 -0.013  0.019
 C          0.000  0.000 -0.000    0.000  0.000  0.000   -0.001 -0.001 -0.001
 O         -0.000 -0.000  0.000   -0.000 -0.000 -0.000    0.000 -0.000  0.000
 H          0.001 -0.001 -0.004   -0.007  0.023  0.063    0.003 -0.010 -0.029
 H         -0.003  0.007 -0.022   -0.041  0.083 -0.285    0.082 -0.168  0.574
 H         -0.108  0.413  0.011    0.006 -0.024 -0.001   -0.005  0.021  0.001
 H          0.270  0.360  0.049    0.002  0.002  0.000    0.001  0.001  0.000
 H          0.001  0.001 -0.001   -0.305 -0.246  0.156   -0.374 -0.302  0.191
 H          0.000 -0.000 -0.000    0.136 -0.141 -0.402    0.147 -0.152 -0.429
 H          0.016 -0.001 -0.006    0.408 -0.031 -0.157   -0.149  0.010  0.061
 H         -0.002 -0.009  0.019   -0.046 -0.232  0.502    0.025  0.135 -0.287
 H          0.227 -0.050 -0.205   -0.014  0.003  0.012    0.011 -0.002 -0.010
 H          0.109 -0.139  0.382   -0.007  0.008 -0.023    0.006 -0.007  0.019
 H         -0.101 -0.200  0.426   -0.000 -0.001  0.002   -0.000 -0.000  0.001
 H          0.133 -0.216 -0.201    0.001 -0.001 -0.001    0.000 -0.000 -0.000
 C          0.001 -0.001  0.000   -0.005  0.005  0.000    0.000 -0.000  0.000
 H         -0.009 -0.002  0.004    0.070  0.018 -0.028   -0.003 -0.001  0.001
 H         -0.001  0.010 -0.008    0.006 -0.064  0.053   -0.000  0.004 -0.003
 H          0.003  0.001  0.004   -0.022 -0.010 -0.029   -0.000  0.001  0.001
 C         -0.000  0.000  0.000   -0.001  0.004 -0.002   -0.001  0.003 -0.001
 H         -0.001 -0.000  0.001   -0.037 -0.015  0.020   -0.026 -0.011  0.014
 H          0.003  0.001  0.003    0.033  0.007  0.034    0.028  0.005  0.030
 H          0.002 -0.003 -0.003    0.018 -0.034 -0.032    0.014 -0.027 -0.025
 TransDip  -0.225 -0.016 -0.045   -0.064  0.164 -0.004    0.090  0.116  0.051

 Mode:                88                     89                     90
 Frequency:      3067.76                3090.54                3099.13
 Force Cnst:      5.9446                 6.2291                 6.2370
 Red. Mass:       1.0721                 1.1069                 1.1022
 IR Active:          YES                    YES                    YES
 IR Intens:       28.487                  0.297                 12.887
 Raman Active:       YES                    YES                    YES
               X      Y      Z        X      Y      Z        X      Y      Z
 C         -0.001  0.004  0.010   -0.001  0.002  0.007   -0.001  0.002  0.006
 C         -0.007  0.017 -0.055    0.001 -0.003  0.009    0.000 -0.000  0.001
 C          0.000 -0.000  0.000   -0.000  0.000  0.000   -0.000  0.000  0.000
 C          0.000 -0.000 -0.001   -0.000  0.000  0.000    0.000 -0.000 -0.000
 O         -0.000  0.000 -0.000    0.000 -0.000 -0.000   -0.000 -0.000 -0.000
 O         -0.000 -0.000 -0.000    0.000 -0.000  0.000    0.000 -0.000 -0.000
 O         -0.000 -0.000  0.000   -0.000 -0.000 -0.000   -0.000  0.000  0.000
 O         -0.000  0.000  0.000    0.000 -0.000 -0.000   -0.000  0.000  0.000
 C         -0.000 -0.001 -0.000    0.000  0.000 -0.000   -0.000  0.000  0.000
 C          0.000 -0.000  0.000   -0.000 -0.000  0.000    0.000  0.000 -0.000
 C          0.001 -0.001  0.000    0.001  0.000 -0.000    0.000  0.000 -0.000
 C         -0.007 -0.019 -0.012    0.042  0.011 -0.053    0.017  0.004 -0.020
 C         -0.034  0.018 -0.017   -0.041 -0.011  0.045    0.002  0.001 -0.003
 C         -0.000  0.001  0.000   -0.000 -0.000  0.000   -0.001 -0.001  0.001
 O          0.000 -0.000  0.000   -0.000  0.000  0.000   -0.000  0.000 -0.000
 H          0.013 -0.044 -0.120    0.007 -0.030 -0.079    0.007 -0.025 -0.068
 H          0.094 -0.194  0.666   -0.015  0.034 -0.114   -0.001  0.003 -0.012
 H         -0.002  0.009  0.000    0.000 -0.001 -0.000    0.001 -0.003 -0.000
 H         -0.004 -0.005 -0.001    0.000  0.000  0.000   -0.001 -0.001 -0.000
 H          0.164  0.132 -0.084   -0.362 -0.302  0.170   -0.143 -0.119  0.067
 H         -0.076  0.079  0.221   -0.145  0.174  0.459   -0.055  0.066  0.173
 H          0.424 -0.034 -0.158    0.464 -0.042 -0.161   -0.018  0.003  0.008
 H         -0.034 -0.168  0.362    0.021  0.175 -0.375   -0.001 -0.015  0.027
 H          0.005 -0.001 -0.004   -0.001  0.000  0.001    0.000 -0.000 -0.000
 H          0.002 -0.002  0.007   -0.000  0.000 -0.001    0.000 -0.000  0.000
 H          0.002  0.003 -0.007    0.000  0.000 -0.001    0.000  0.000 -0.000
 H         -0.002  0.003  0.003   -0.000  0.000  0.000   -0.000  0.000  0.000
 C         -0.003  0.004  0.000    0.009  0.012 -0.011   -0.043 -0.054  0.055
 H          0.051  0.012 -0.020   -0.119 -0.029  0.042    0.610  0.147 -0.222
 H          0.005 -0.051  0.041    0.014 -0.112  0.093   -0.066  0.522 -0.430
 H         -0.020 -0.009 -0.026   -0.001  0.001 -0.009   -0.024 -0.020 -0.003
 C          0.000 -0.001  0.000   -0.006  0.000  0.002   -0.003  0.000  0.001
 H          0.009  0.004 -0.005    0.044  0.017 -0.021    0.024  0.010 -0.012
 H         -0.009 -0.001 -0.009    0.013  0.003  0.016    0.005  0.001  0.007
 H         -0.004  0.008  0.007    0.010 -0.023 -0.021    0.006 -0.013 -0.012
 TransDip  -0.115  0.055 -0.114    0.006  0.011 -0.012   -0.073 -0.061  0.065

 Mode:                91                     92                     93
 Frequency:      3108.49                3110.52                3116.82
 Force Cnst:      6.2813                 6.2746                 6.3110
 Red. Mass:       1.1033                 1.1007                 1.1026
 IR Active:          YES                    YES                    YES
 IR Intens:       14.493                 29.231                 20.121
 Raman Active:       YES                    YES                    YES
               X      Y      Z        X      Y      Z        X      Y      Z
 C          0.003 -0.010 -0.025    0.003 -0.009 -0.024   -0.000  0.002  0.006
 C          0.000 -0.000  0.002   -0.000  0.001 -0.001    0.000 -0.000  0.002
 C          0.000 -0.001 -0.001    0.001 -0.000 -0.000    0.000  0.000 -0.000
 C          0.000  0.000  0.000    0.000  0.000  0.000   -0.000  0.000  0.000
 O         -0.000  0.000  0.000   -0.000 -0.000  0.000    0.000 -0.000 -0.000
 O          0.000  0.000  0.000    0.000  0.000 -0.000   -0.000 -0.000  0.000
 O         -0.000 -0.000  0.000   -0.000 -0.000  0.000    0.000 -0.000 -0.000
 O         -0.000 -0.000 -0.000   -0.000 -0.000 -0.000    0.000 -0.000 -0.000
 C         -0.000  0.000 -0.000    0.000 -0.000  0.000    0.000 -0.001  0.000
 C          0.000  0.001 -0.001   -0.000 -0.001  0.001   -0.001 -0.002  0.002
 C         -0.000 -0.000 -0.000   -0.001  0.000  0.002   -0.002 -0.001 -0.001
 C         -0.028 -0.008  0.032   -0.015 -0.005  0.017   -0.008 -0.002  0.010
 C         -0.040 -0.011  0.045   -0.017 -0.005  0.019   -0.006 -0.002  0.006
 C         -0.001 -0.001  0.001   -0.001 -0.000  0.001   -0.000 -0.000  0.000
 O          0.000  0.000 -0.000    0.000 -0.000 -0.000    0.000  0.000 -0.000
 H         -0.031  0.112  0.302   -0.029  0.104  0.278    0.008 -0.026 -0.069
 H         -0.001  0.006 -0.021    0.003 -0.004  0.012   -0.002  0.006 -0.019
 H          0.001 -0.004 -0.000   -0.000  0.000  0.000   -0.001  0.005  0.000
 H         -0.003 -0.004 -0.001    0.004  0.005  0.001    0.012  0.016  0.003
 H          0.244  0.205 -0.116    0.139  0.116 -0.064    0.075  0.061 -0.034
 H          0.086 -0.105 -0.267    0.046 -0.056 -0.145    0.027 -0.032 -0.085
 H          0.460 -0.043 -0.159    0.197 -0.019 -0.068    0.065 -0.006 -0.022
 H          0.021  0.178 -0.377    0.009  0.075 -0.159    0.003  0.027 -0.056
 H         -0.000 -0.000 -0.000   -0.000  0.000  0.000   -0.001  0.000  0.001
 H          0.000 -0.000  0.000   -0.001  0.001 -0.002   -0.001  0.002 -0.005
 H         -0.002 -0.004  0.009    0.001  0.003 -0.006    0.005  0.010 -0.021
 H          0.001 -0.001 -0.001   -0.000 -0.000 -0.000    0.001 -0.002 -0.002
 C         -0.009 -0.011  0.012   -0.004 -0.004  0.005   -0.001 -0.001  0.001
 H          0.132  0.031 -0.049    0.054  0.012 -0.020    0.014  0.003 -0.005
 H         -0.013  0.103 -0.084   -0.005  0.040 -0.033   -0.001  0.010 -0.008
 H         -0.011 -0.007 -0.010   -0.005 -0.003 -0.004   -0.002 -0.001 -0.002
 C          0.033 -0.008 -0.029   -0.043  0.023  0.064   -0.073 -0.036 -0.041
 H         -0.296 -0.124  0.147    0.456  0.196 -0.224    0.420  0.170 -0.231
 H          0.009 -0.001 -0.005   -0.158 -0.027 -0.138    0.552  0.116  0.572
 H         -0.105  0.224  0.207    0.214 -0.446 -0.414   -0.093  0.153  0.145
 TransDip  -0.082 -0.063  0.065   -0.125 -0.025  0.117   -0.134 -0.052 -0.005

 Mode:                94                     95                     96
 Frequency:      3118.56                3122.21                3123.47
 Force Cnst:      6.2426                 6.3578                 6.3639
 Red. Mass:       1.0895                 1.1070                 1.1071
 IR Active:          YES                    YES                    YES
 IR Intens:       26.081                 20.359                 13.991
 Raman Active:       YES                    YES                    YES
               X      Y      Z        X      Y      Z        X      Y      Z
 C          0.007 -0.026 -0.069    0.000  0.000 -0.000   -0.000  0.000  0.000
 C         -0.002  0.004 -0.011   -0.000  0.000 -0.000    0.000 -0.000  0.000
 C          0.001 -0.001 -0.001   -0.000 -0.000  0.000    0.000  0.000  0.000
 C          0.000  0.000 -0.000    0.000  0.000 -0.000   -0.000 -0.000 -0.000
 O         -0.000  0.000  0.000   -0.000 -0.000  0.000   -0.000 -0.000  0.000
 O          0.000  0.000  0.001   -0.000 -0.000  0.000   -0.000 -0.000 -0.000
 O         -0.000 -0.000  0.000   -0.000 -0.000  0.000   -0.000  0.000 -0.000
 O         -0.000  0.000  0.000   -0.000 -0.000  0.000    0.000  0.000 -0.000
 C          0.000 -0.001  0.001   -0.004  0.008 -0.005    0.032 -0.075  0.048
 C         -0.001 -0.000  0.000    0.048  0.067 -0.046    0.005  0.007 -0.005
 C          0.000 -0.001 -0.001   -0.000 -0.000  0.000    0.000  0.000 -0.000
 C          0.018  0.002 -0.026    0.000 -0.000 -0.000   -0.000  0.000  0.000
 C          0.014  0.005 -0.018    0.000  0.000 -0.000   -0.000 -0.000  0.000
 C         -0.000  0.001 -0.001    0.000  0.000 -0.000    0.000 -0.000  0.000
 O         -0.000  0.000  0.001    0.000 -0.000  0.000   -0.000  0.000 -0.000
 H         -0.088  0.302  0.816   -0.001  0.002  0.004    0.001 -0.002 -0.006
 H          0.019 -0.041  0.131    0.000 -0.001  0.002   -0.000  0.001 -0.002
 H         -0.001  0.006  0.000    0.020 -0.076 -0.004   -0.182  0.682  0.034
 H          0.006  0.008  0.001   -0.414 -0.563 -0.095   -0.044 -0.060 -0.010
 H         -0.141 -0.119  0.067   -0.000 -0.000  0.000    0.000  0.000 -0.000
 H         -0.078  0.094  0.247   -0.000  0.000  0.001    0.000 -0.000 -0.001
 H         -0.160  0.016  0.056   -0.002  0.000  0.001    0.001 -0.000 -0.000
 H         -0.009 -0.075  0.157   -0.000 -0.001  0.002    0.000  0.001 -0.002
 H          0.001 -0.000 -0.001    0.005  0.000 -0.006   -0.023 -0.008  0.035
 H         -0.001  0.002 -0.006    0.018 -0.022  0.066   -0.169  0.214 -0.635
 H          0.001 -0.000  0.000   -0.141 -0.273  0.619   -0.016 -0.030  0.068
 H          0.002 -0.004 -0.004   -0.009  0.043  0.019   -0.002  0.006  0.004
 C          0.002  0.002 -0.002    0.000  0.000 -0.000   -0.000 -0.000  0.000
 H         -0.026 -0.006  0.010   -0.001 -0.000  0.001    0.001  0.000 -0.001
 H          0.003 -0.020  0.016    0.000 -0.001  0.001   -0.000  0.002 -0.002
 H          0.001  0.001  0.001    0.000  0.000 -0.000   -0.000 -0.000 -0.000
 C         -0.004 -0.009 -0.014   -0.003 -0.001 -0.001    0.000  0.000  0.000
 H          0.002 -0.001 -0.004    0.020  0.008 -0.011   -0.003 -0.001  0.001
 H          0.092  0.018  0.093    0.017  0.004  0.019   -0.003 -0.001 -0.003
 H         -0.043  0.085  0.078    0.000 -0.002 -0.002    0.000 -0.001 -0.001
 TransDip   0.051 -0.030 -0.152    0.068  0.104 -0.073    0.038 -0.101  0.052

 Mode:                97                     98                     99
 Frequency:      3152.51                3156.28                3165.28
 Force Cnst:      6.4790                 6.4923                 6.4724
 Red. Mass:       1.1065                 1.1061                 1.0964
 IR Active:          YES                    YES                    YES
 IR Intens:       14.034                 14.380                  2.150
 Raman Active:       YES                    YES                    YES
               X      Y      Z        X      Y      Z        X      Y      Z
 C         -0.000  0.000  0.000    0.000  0.000 -0.000    0.000 -0.000 -0.000
 C          0.000 -0.000 -0.000   -0.000  0.000 -0.000    0.000 -0.000 -0.000
 C         -0.000  0.000  0.000   -0.001 -0.000 -0.001    0.000 -0.000 -0.000
 C          0.000  0.001  0.001   -0.000  0.000 -0.000    0.000 -0.000 -0.000
 O          0.000 -0.000 -0.000   -0.000  0.000  0.000   -0.000  0.000 -0.000
 O         -0.000 -0.000 -0.000    0.000  0.000  0.000    0.000  0.000  0.000
 O          0.000 -0.000 -0.000    0.000 -0.000  0.000   -0.000  0.000  0.000
 O         -0.000 -0.000 -0.000    0.000 -0.000  0.000   -0.001 -0.000  0.000
 C         -0.052  0.025  0.075    0.000  0.000 -0.001    0.000 -0.000 -0.000
 C         -0.000 -0.001 -0.000    0.019 -0.062 -0.069    0.000 -0.000 -0.000
 C          0.000  0.000  0.000   -0.000 -0.000  0.000    0.000 -0.000 -0.000
 C         -0.000  0.000  0.000    0.000 -0.000 -0.000   -0.000  0.000 -0.000
 C         -0.000 -0.000  0.000   -0.000  0.000 -0.000   -0.001  0.000  0.001
 C          0.000  0.000  0.000   -0.000  0.000 -0.000   -0.001  0.000 -0.001
 O         -0.000 -0.000 -0.000    0.000  0.000  0.000    0.000 -0.000  0.000
 H          0.000 -0.001 -0.002    0.000  0.000  0.002   -0.000  0.001  0.002
 H         -0.000 -0.000 -0.001    0.000 -0.000  0.000   -0.000 -0.001  0.003
 H          0.067 -0.280  0.008    0.000 -0.001 -0.000   -0.000  0.002 -0.000
 H          0.003  0.004  0.001    0.201  0.258  0.023    0.000  0.000  0.000
 H         -0.000 -0.000  0.000    0.000  0.000 -0.000    0.000  0.000 -0.000
 H          0.000 -0.000 -0.001   -0.000  0.000  0.001   -0.000  0.000  0.002
 H          0.000 -0.000 -0.000    0.000 -0.000 -0.000    0.011  0.000 -0.003
 H          0.000  0.000 -0.000   -0.000 -0.000  0.000    0.000  0.002 -0.005
 H          0.649 -0.144 -0.589   -0.003  0.001  0.003   -0.003  0.001  0.002
 H         -0.099  0.123 -0.307    0.001 -0.001  0.003    0.000 -0.000  0.001
 H          0.000  0.000 -0.001   -0.059 -0.129  0.238   -0.000 -0.000  0.000
 H         -0.002  0.003  0.003   -0.367  0.600  0.559   -0.000  0.001  0.001
 C         -0.000  0.000 -0.000    0.000  0.000  0.000   -0.063 -0.015 -0.063
 H         -0.000 -0.000  0.000    0.000  0.000 -0.000    0.198  0.053 -0.086
 H          0.000 -0.001  0.001   -0.000  0.000 -0.000    0.004 -0.151  0.113
 H          0.003  0.001  0.003   -0.001 -0.000 -0.001    0.561  0.271  0.720
 C         -0.000  0.000  0.000   -0.000 -0.000 -0.000   -0.000 -0.000 -0.000
 H         -0.000 -0.000  0.000    0.001  0.001 -0.001    0.000  0.000 -0.000
 H         -0.000  0.000 -0.000    0.001  0.000  0.002    0.001  0.000  0.001
 H          0.000 -0.000 -0.000   -0.000  0.001  0.001   -0.000  0.001  0.000
 TransDip  -0.083  0.021  0.084    0.045 -0.084 -0.075   -0.023 -0.005 -0.041

 STANDARD THERMODYNAMIC QUANTITIES AT   298.15 K  AND     1.00 ATM

   This Molecule has  0 Imaginary Frequencies
   Zero point vibrational energy:      183.654 kcal/mol

   Atom    1 Element C  Has Mass   12.00000
   Atom    2 Element C  Has Mass   12.00000
   Atom    3 Element C  Has Mass   12.00000
   Atom    4 Element C  Has Mass   12.00000
   Atom    5 Element O  Has Mass   15.99491
   Atom    6 Element O  Has Mass   15.99491
   Atom    7 Element O  Has Mass   15.99491
   Atom    8 Element O  Has Mass   15.99491
   Atom    9 Element C  Has Mass   12.00000
   Atom   10 Element C  Has Mass   12.00000
   Atom   11 Element C  Has Mass   12.00000
   Atom   12 Element C  Has Mass   12.00000
   Atom   13 Element C  Has Mass   12.00000
   Atom   14 Element C  Has Mass   12.00000
   Atom   15 Element O  Has Mass   15.99491
   Atom   16 Element H  Has Mass    1.00783
   Atom   17 Element H  Has Mass    1.00783
   Atom   18 Element H  Has Mass    1.00783
   Atom   19 Element H  Has Mass    1.00783
   Atom   20 Element H  Has Mass    1.00783
   Atom   21 Element H  Has Mass    1.00783
   Atom   22 Element H  Has Mass    1.00783
   Atom   23 Element H  Has Mass    1.00783
   Atom   24 Element H  Has Mass    1.00783
   Atom   25 Element H  Has Mass    1.00783
   Atom   26 Element H  Has Mass    1.00783
   Atom   27 Element H  Has Mass    1.00783
   Atom   28 Element C  Has Mass   12.00000
   Atom   29 Element H  Has Mass    1.00783
   Atom   30 Element H  Has Mass    1.00783
   Atom   31 Element H  Has Mass    1.00783
   Atom   32 Element C  Has Mass   12.00000
   Atom   33 Element H  Has Mass    1.00783
   Atom   34 Element H  Has Mass    1.00783
   Atom   35 Element H  Has Mass    1.00783
   Molecular Mass:   242.115490 amu
   Principal axes and moments of inertia in amu*Bohr^2:
                             1           2           3
    Eigenvalues --     2976.69946  3617.23692  5613.49523
          X               0.99992    -0.01156     0.00565
          Y               0.01158     0.99992    -0.00477
          Z              -0.00559     0.00483     0.99997
   Rotational Symmetry Number is   1
   The Molecule is an Asymmetric Top
   Translational Enthalpy:        0.889 kcal/mol
   Rotational Enthalpy:           0.889 kcal/mol
   Vibrational Enthalpy:        192.705 kcal/mol
   gas constant (RT):             0.592 kcal/mol
   Translational Entropy:        42.354  cal/mol.K
   Rotational Entropy:           32.469  cal/mol.K
   Vibrational Entropy:          58.042  cal/mol.K

   Total Enthalpy:              195.075 kcal/mol
   Total Entropy:               132.865  cal/mol.K
Archival summary:
1\1\nid04266\FREQ\ProcedureUnspecified\BasisUnspecified\51218\junteng\WedOct422:40:032017WedOct422:40:032017\0\\#,FREQ,ProcedureUnspecified,BasisUnspecified,\\0,1\O\C,1,1.43122\C,1,1.44195,2,99.1129\C,2,1.5129,1,110.851,3,179.415,0\H,4,1.09144,2,110.817,1,56.9436,0\H,4,1.09186,2,109.671,1,-62.5591,0\H,4,1.0929,2,110.56,1,177.719,0\C,3,1.51341,1,110.745,2,-176.303,0\H,8,1.08662,3,111.122,1,-55.4133,0\H,8,1.0926,3,109.184,1,65.6044,0\H,8,1.09342,3,110.329,1,-175.34,0\C,2,1.5498,1,102.59,3,55.1733,0\H,12,1.09169,2,112.543,1,-155.583,0\H,12,1.09188,2,109.569,1,84.3826,0\C,12,1.54972,2,101.437,1,-33.4778,0\H,15,1.09122,12,111.237,2,117.233,0\H,15,1.09195,12,113.713,2,-120.846,0\C,3,1.5638,1,102.124,2,55.7304,0\H,18,1.09298,3,110.045,1,-148.028,0\C,18,1.52254,3,117.915,1,92.2735,0\O,20,1.2018,18,128.213,3,3.01931,0\O,20,1.35679,18,108.574,3,179.921,0\C,22,1.43912,20,115.758,18,174.673,0\H,23,1.08806,22,105.478,20,-179.353,0\H,23,1.09097,22,110.732,20,61.0167,0\H,23,1.09117,22,109.846,20,-59.9866,0\C,18,1.56726,3,101.732,1,-33.1079,0\H,27,1.08839,18,111.669,3,-117.427,0\C,27,1.51194,18,115.402,3,119.435,0\O,29,1.20568,27,126.467,18,-38.9449,0\O,29,1.35291,27,110.213,18,143.911,0\C,31,1.4395,29,115.908,27,176.736,0\H,32,1.08777,31,105.476,29,177.803,0\H,32,1.09088,31,110.455,29,58.1984,0\H,32,1.09128,31,110.482,29,-62.6601,0\\\@

 Total job time:  14130.03s(wall), 84744.99s(cpu) 
 Wed Oct  4 22:40:04 2017

        *************************************************************
        *                                                           *
        *  Thank you very much for using Q-Chem.  Have a nice day.  *
        *                                                           *
        *************************************************************


