nid04364 10.128.17
Q-Chem Developer Version! Running on 10.128.17.*
                  Welcome to Q-Chem
     A Quantum Leap Into The Future Of Chemistry


 Q-Chem 5.0, Q-Chem, Inc., Pleasanton, CA (2017)

 Yihan Shao,  Zhengting Gan,  E. Epifanovsky,  A. T. B. Gilbert,  M. Wormit,  
 J. Kussmann,  A. W. Lange,  A. Behn,  Jia Deng,  Xintian Feng,  D. Ghosh,  
 M. Goldey,  P. R. Horn,  L. D. Jacobson,  I. Kaliman,  T. Kus,  A. Landau,  
 Jie Liu,  E. I. Proynov,  R. M. Richard,  R. P. Steele,  E. J. Sundstrom,  
 H. L. Woodcock III,  P. M. Zimmerman,  D. Zuev,  B. Albrecht,  E. Alguire,  
 S. A. Baeppler,  Z. Benda,  Y. A. Bernard,  E. J. Berquist,  K. B. Bravaya,  
 D. Casanova,  Chun-Min Chang,  Yunqing Chen,  A. Chien,  K. D. Closser,  
 M. P. Coons,  S. Dasgupta,  M. Diedenhofen,  Hainam Do,  R. G. Edgar,  
 Po-Tung Fang,  S. Fatehi,  Qingguo Feng,  Qinghui Ge,  A. Ghysels,  
 J. Gomes,  J. Gonthier,  A. Gunina,  M. W. D. Hanson-Heine,  
 P. H. P. Harbach,  A. W. Hauser,  J. E. Herr,  E. G. Hohenstein,  
 Z. C. Holden,  Kerwin Hui,  T.-C. Jagau,  Hyunjun Ji,  B. Kaduk,  
 K. Khistyaev,  Jaehoon Kim,  P. Klunzinger,  K. Koh,  D. Kosenkov,  
 T. Kowalczyk,  C. M. Krauter,  A. Kunitsa,  Ka Un Lao,  A. Laurent,  
 K. V. Lawler,  Joonho Lee,  D. Lefrancois,  S. Lehtola,  D. S. Levine,  
 Yi-Pei Li,  You-Sheng Lin,  Fenglai Liu,  E. Livshits,  A. Luenser,  
 P. Manohar,  E. Mansoor,  S. F. Manzer,  Shan-Ping Mao,  Yuezhi Mao,  
 N. Mardirossian,  A. V. Marenich,  L. A. Martinez-Martinez,  S. A. Maurer,  
 N. J. Mayhall,  S. C. McKenzie,  J.-M. Mewes,  A. F. Morrison,  K. Nanda,  
 T. S. Nguyen-Beck,  R. Olivares-Amaya,  J. A. Parkhill,  T. M. Perrine,  
 F. Plasser,  S. Prager,  A. Prociuk,  D. R. Rehn,  F. Rob,  M. Schneider,  
 N. Sergueev,  S. M. Sharada,  S. Sharma,  D. W. Small,  T. Stauch,  
 T. Stein,  Yu-Chuan Su,  A. J. W. Thom,  T. Tsuchimochi,  L. Vogt,  
 O. Vydrov,  M. A. Watson,  J. Wenzel,  M. de Wergifosse,  T. A. Wesolowski,  
 A. White,  J. Witte,  A. Yamada,  Jun Yang,  K. Yao,  S. Yeganeh,  
 S. R. Yost,  Zhi-Qiang You,  A. Zech,  Igor Ying Zhang,  Xing Zhang,  
 Yan Zhao,  Ying Zhu,  B. R. Brooks,  G. K. L. Chan,  C. J. Cramer,  
 M. S. Gordon,  W. J. Hehre,  A. Klamt,  M. W. Schmidt,  C. D. Sherrill,  
 D. G. Truhlar,  A. Aspuru-Guzik,  R. Baer,  A. T. Bell,  N. A. Besley,  
 Jeng-Da Chai,  A. Dreuw,  B. D. Dunietz,  T. R. Furlani,  Chao-Ping Hsu,  
 Yousung Jung,  Jing Kong,  D. S. Lambrecht,  WanZhen Liang,  C. Ochsenfeld,  
 V. A. Rassolov,  L. V. Slipchenko,  J. E. Subotnik,  T. Van Voorhis,  
 J. M. Herbert,  A. I. Krylov,  P. M. W. Gill,  M. Head-Gordon

 Contributors to earlier versions of Q-Chem not listed above: 
 R. D. Adamson,  B. Austin,  J. Baker,  G. J. O. Beran,  K. Brandhorst,  
 S. T. Brown,  E. F. C. Byrd,  A. K. Chakraborty,  C.-L. Cheng,  
 Siu Hung Chien,  D. M. Chipman,  D. L. Crittenden,  H. Dachsel,  
 R. A. DiStasio Jr.,  R. J. Doerksen,  A. D. Dutoi,  L. Fusti-Molnar,  
 W. A. Goddard III,  A. Golubeva-Zadorozhnaya,  S. R. Gwaltney,  G. Hawkins,  
 A. Heyden,  S. Hirata,  G. Kedziora,  F. J. Keil,  C. Kelley,  Jihan Kim,  
 R. A. King,  R. Z. Khaliullin,  P. P. Korambath,  W. Kurlancheek,  
 A. M. Lee,  M. S. Lee,  S. V. Levchenko,  Ching Yeh Lin,  D. Liotard,  
 R. C. Lochan,  I. Lotan,  P. E. Maslen,  N. Nair,  D. P. O'Neill,  
 D. Neuhauser,  E. Neuscamman,  C. M. Oana,  R. Olson,  B. Peters,  
 R. Peverati,  P. A. Pieniazek,  Y. M. Rhee,  J. Ritchie,  M. A. Rohrdanz,  
 E. Rosta,  N. J. Russ,  H. F. Schaefer III,  N. E. Schultz,  N. Shenvi,  
 A. C. Simmonett,  A. Sodt,  D. Stuck,  K. S. Thanthiriwatte,  V. Vanovschi,  
 Tao Wang,  A. Warshel,  C. F. Williams,  Q. Wu,  X. Xu,  W. Zhang

 Please cite Q-Chem as follows:
 Y. Shao et al., Mol. Phys. 113, 184-215 (2015)
 DOI: 10.1080/00268976.2014.952696

 Q-Chem 5.0.0 for Intel X86 EM64T Linux

 Parts of Q-Chem use Armadillo 5.200.1 (Boston Tea Smuggler).
 http://arma.sourceforge.net/

 Q-Chem begins on Wed Oct  4 18:02:42 2017  

Host: nid04364
0

     Scratch files written to /global/cscratch1/sd/junteng/scratch/16/opt_10n01-o.save//

Checking the input file for inconsistencies... 	...done.

--------------------------------------------------------------
User input:
--------------------------------------------------------------
$molecule
0  1
C    0.355  -2.424   0.293
C   -0.264  -2.685   1.524
C    0.749  -1.045  -0.086
C   -0.385  -1.681   2.598
O    1.805  -1.090  -0.938
O    0.175  -0.038   0.291
O    0.833  -1.128   2.820
O   -1.397  -1.517   3.259
C    0.836  -0.152   3.862
C    2.258   0.195  -1.365
C    0.489  -3.469  -0.639
C    0.011  -4.748  -0.345
C   -0.620  -4.996   0.872
C   -0.760  -3.969   1.804
H    0.142   0.662   3.629
H    1.480   0.699  -1.947
H   -1.003  -5.990   1.096
H    0.581  -0.616   4.820
H    1.845   0.263   3.935
H    3.132   0.050  -2.006
H    2.557   0.804  -0.506
H    0.116  -5.548  -1.075
H   -1.248  -4.169   2.757
H    0.945  -3.290  -1.611
$end


$opt
CONSTRAINT
tors    2    1    3    5    150.0
tors    1    2    4    7    -50.0
ENDCONSTRAINT
$end

$rem
JOBTYPE                   OPT
METHOD                    B3LYP
DFT_D                     D3_OP
BASIS                     STO-3G
GEOM_OPT_MAX_CYCLES       500
SYMMETRY                  False
THRESH                    12
SCF_CONVERGENCE           8
MAX_SUB_FILE_NUM          128
MEM_STATIC                400
MEM_TOTAL                 4000
$end

--------------------------------------------------------------
 Adding empirical dispersion correction 
 ----------------------------------------------------------------
 Doing -D3(op) with
 s6 =   1.00000
 s8 =   0.78311
 a1 =   0.30000
 a2 =   4.25000
 n  =  10.00000
 -D3 energy without 3body term =     -0.0235264244 hartrees
 ----------------------------------------------------------------
             Standard Nuclear Orientation (Angstroms)
    I     Atom           X                Y                Z
 ----------------------------------------------------------------
    1      C       0.0048685472    -0.8715632622    -0.0674007052
    2      C      -1.0919198482     0.0016590604    -0.1017662538
    3      C       1.3789608532    -0.3820370773    -0.3371273238
    4      C      -0.9567219841     1.4673235547    -0.2001640574
    5      O       2.2778658221    -1.1635542316     0.3142295632
    6      O       1.6428666882     0.5580963624    -1.0666181229
    7      O      -0.0793961891     1.8906553810     0.7430785488
    8      O      -1.6538448556     2.1636006328    -0.9193155941
    9      C       0.1112497942     3.3055484230     0.7520668044
   10      C       3.6362803702    -0.7724170820     0.1130215962
   11      C      -0.2239907215    -2.2487533468     0.1045757645
   12      C      -1.5242777058    -2.7411486134     0.2370961776
   13      C      -2.6105318253    -1.8705883996     0.1829583704
   14      C      -2.3975725218    -0.5036921638     0.0120899544
   15      H       0.4798571535     3.6504889134    -0.2193577541
   16      H       3.9131930930    -0.8856432273    -0.9398426800
   17      H      -3.6244084650    -2.2560700247     0.2743863539
   18      H      -0.8213882332     3.8144524380     1.0152929683
   19      H       0.8618027747     3.5417630810     1.5113479505
   20      H       4.2706392529    -1.4319291517     0.7116990033
   21      H       3.7952127220     0.2573747806     0.4483307479
   22      H      -1.6901414468    -3.8088449794     0.3653096299
   23      H      -3.2494252071     0.1741533752    -0.0229161569
   24      H       0.6066568830    -2.9521169215     0.1126528134
 ----------------------------------------------------------------
 Molecular Point Group                 C1    NOp =  1
 Largest Abelian Subgroup              C1    NOp =  1
 Nuclear Repulsion Energy =   889.7605996999 hartrees
 There are       51 alpha and       51 beta electrons
 Requested basis set is STO-3G
 There are 38 shells and 80 basis functions

 Total QAlloc Memory Limit   4000 MB
 Mega-Array Size       392 MB
 MEM_STATIC part       400 MB
 A cutoff of  1.0D-12 yielded    631 shell pairs
 There are      3151 function pairs
 
 -------------------------------------------------------
 OpenMP Integral Computing Module                       
 Release: version 1.0, May 2013, Q-Chem Inc. Pittsburgh 
 -------------------------------------------------------
 Integral Job Info:
 Integral job number is                      11
 Integral operator is                         1
 short-range coefficients                     0
 long-range coefficients              100000000
 Omega coefficients                           0
 if combine SR and LR in K                    0
 Integral screening is                        0
 Integral computing path is                   2
 max size of driver memory is            800000
 size of driver memory is                 45569
 size of scratch memory is               945100
 max col of scratch BK array                289
 max len of scratch array in speh3           22
 max len of scratch index in speh4            8
 max int batch size is                      520
 min int batch size is                       52
 fixed nKL is                                52
 max L of basis functions is                  1
 order of int derivative is                   0
 number of shells is                         38
 number of basis is                          80
 number of cartesian basis is                80
 number of contracted shell pairs           631
 number of primitive shell pairs           3502
 maxK2 (contraction) of shell pair            9
 max number of K2 of shell pair               1
 max number of CS2 of shell pair             91
 max number of PS2 of shell pair            468
 mem total for path MDJ                   25386
 -------------------------------------------------------
 Smallest overlap matrix eigenvalue = 1.73E-01

 Scale SEOQF with 1.000000e-01/1.000000e-01/1.000000e+00

 Standard Electronic Orientation quadrupole field applied
 Nucleus-field energy     =     0.0000000031 hartrees
 Guess from superposition of atomic densities
 Warning:  Energy on first SCF cycle will be non-variational
 A restricted hybrid HF-DFT SCF calculation will be
 performed using Pulay DIIS extrapolation
 Exchange:     0.2000 Hartree-Fock + 0.0800 Slater + 0.7200 B88
 Correlation:  0.1900 VWN1RPA + 0.8100 LYP
 Using SG-1 standard quadrature grid
 Dispersion:   Grimme D3
 SCF converges when DIIS error is below 1.0E-08
 -------------------------------------------------------
 OpenMP Integral computing Module                
 Release: version 1.0, May 2013, Q-Chem Inc. Pittsburgh 
 -------------------------------------------------------
 -------------------------------------------------------
 OpenMP BLAS3 based DFT computing Module                
 Release: version 1.0, May 2013, Q-Chem Inc. Pittsburgh 
 -------------------------------------------------------
 ---------------------------------------
  Cycle       Energy         DIIS Error
 ---------------------------------------
    1    -679.1330742783      1.26E-01
    2    -678.8427567625      1.47E-02
    3    -677.8244880427      3.88E-02
    4    -679.0444374619      5.12E-03
    5    -679.0653698754      1.92E-03
    6    -679.0685893525      4.89E-04
    7    -679.0688086880      1.64E-04
    8    -679.0688325245      6.17E-05
    9    -679.0688352391      2.86E-05
   10    -679.0688361181      3.14E-06
   11    -679.0688361278      1.13E-06
   12    -679.0688361290      2.41E-07
   13    -679.0688361291      1.07E-07
   14    -679.0688361291      3.14E-08
   15    -679.0688361291      6.94E-09 Convergence criterion met
 ---------------------------------------
 SCF time:  CPU 50.30 s  wall 2.15 s
 SCF   energy in the final basis set = -679.0688361291
 Total energy in the final basis set = -679.0688361291
 
 --------------------------------------------------------------
 
                    Orbital Energies (a.u.)
 --------------------------------------------------------------
 
 Alpha MOs
 -- Occupied --
-18.949 -18.946 -18.869 -18.865 -10.118 -10.113 -10.077 -10.071
-10.028 -10.026 -10.017 -10.017 -10.016 -10.015  -1.049  -1.042
 -0.958  -0.954  -0.822  -0.734  -0.725  -0.683  -0.674  -0.597
 -0.581  -0.532  -0.505  -0.479  -0.455  -0.439  -0.432  -0.426
 -0.417  -0.402  -0.389  -0.379  -0.356  -0.354  -0.340  -0.329
 -0.320  -0.310  -0.300  -0.254  -0.248  -0.203  -0.202  -0.186
 -0.179  -0.155  -0.149
 -- Virtual --
  0.048   0.070   0.134   0.148   0.250   0.283   0.307   0.353
  0.381   0.390   0.398   0.417   0.436   0.441   0.443   0.453
  0.454   0.455   0.457   0.470   0.480   0.565   0.570   0.592
  0.607   0.692   0.707   0.784   0.805
 --------------------------------------------------------------
 
          Ground-State Mulliken Net Atomic Charges

     Atom                 Charge (a.u.)
  ----------------------------------------
      1 C                    -0.016460
      2 C                    -0.013193
      3 C                     0.236815
      4 C                     0.239331
      5 O                    -0.184254
      6 O                    -0.228518
      7 O                    -0.182816
      8 O                    -0.225997
      9 C                    -0.125951
     10 C                    -0.125656
     11 C                    -0.071459
     12 C                    -0.077394
     13 C                    -0.076184
     14 C                    -0.071171
     15 H                     0.097497
     16 H                     0.093769
     17 H                     0.085582
     18 H                     0.092573
     19 H                     0.095187
     20 H                     0.096656
     21 H                     0.094826
     22 H                     0.084752
     23 H                     0.090621
     24 H                     0.091440
  ----------------------------------------
  Sum of atomic charges =     0.000000

 -----------------------------------------------------------------
                    Cartesian Multipole Moments
 -----------------------------------------------------------------
    Charge (ESU x 10^10)
                -0.0000
    Dipole Moment (Debye)
         X       1.2481      Y      -0.8457      Z       1.4685
       Tot       2.1046
    Quadrupole Moments (Debye-Ang)
        XX     -65.3011     XY       2.1209     YY     -67.3113
        XZ      -1.3115     YZ       4.6689     ZZ     -77.0076
    Octopole Moments (Debye-Ang^2)
       XXX      32.6486    XXY     -10.3188    XYY       7.7006
       YYY      22.5743    XXZ       7.0980    XYZ      -0.6038
       YYZ      10.9090    XZZ       8.2910    YZZ       6.2845
       ZZZ      -3.3968
    Hexadecapole Moments (Debye-Ang^3)
      XXXX   -1419.9863   XXXY     -32.5552   XXYY    -506.4431
      XYYY      11.8858   YYYY   -1399.1191   XXXZ       1.8789
      XXYZ      10.6306   XYYZ     -13.3076   YYYZ      18.6340
      XXZZ    -302.3897   XYZZ      -9.9894   YYZZ    -286.2151
      XZZZ       2.4642   YZZZ      -0.6197   ZZZZ    -173.6954
 -----------------------------------------------------------------
 Calculating analytic gradient of the SCF energy
 Gradient of SCF Energy
            1           2           3           4           5           6
    1   0.0189467   0.0093829   0.0257808   0.0081785  -0.0074890  -0.0217180
    2   0.0223592   0.0288567   0.0007986   0.0175880   0.0516881  -0.0565203
    3  -0.0065385  -0.0046518  -0.0033992   0.0079344  -0.0409363   0.0412028
            7           8           9          10          11          12
    1  -0.0442633   0.0324227  -0.0030645  -0.0197333   0.0015887  -0.0032796
    2   0.0162203  -0.0474403  -0.0223198  -0.0061442   0.0052309   0.0074133
    3  -0.0457045   0.0399112   0.0002509   0.0040683   0.0000763  -0.0004771
           13          14          15          16          17          18
    1   0.0091845   0.0031285  -0.0006871  -0.0066692   0.0075847   0.0097128
    2   0.0006146   0.0015510  -0.0080860  -0.0039866   0.0028168  -0.0100635
    3  -0.0000973   0.0000466   0.0104685   0.0118894  -0.0007431   0.0009652
           19          20          21          22          23          24
    1  -0.0071448  -0.0035130  -0.0048494   0.0009058   0.0042493  -0.0086547
    2   0.0005358   0.0078508  -0.0127042   0.0083381  -0.0067165   0.0021193
    3  -0.0078565  -0.0064892   0.0011465  -0.0011694   0.0005009  -0.0003980
 Max gradient component =       5.652E-02
 RMS gradient           =       1.839E-02
 Gradient time:  CPU 10.60 s  wall 0.46 s
 Geometry Optimization Parameters
   NAtoms,    NIC,     NZ,  NCons,   NDum,   NFix, NCnnct, MaxDiis
       24     152       0       2       0       0       0       0


** CONSTRAINED OPTIMIZATION IN DELOCALIZED INTERNAL COORDINATES **
   Searching for a Minimum

   Optimization Cycle:   1

                       Coordinates (Angstroms)
     ATOM                X               Y               Z
      1  C         0.0048685472   -0.8715632622   -0.0674007052
      2  C        -1.0919198482    0.0016590604   -0.1017662538
      3  C         1.3789608532   -0.3820370773   -0.3371273238
      4  C        -0.9567219841    1.4673235547   -0.2001640574
      5  O         2.2778658221   -1.1635542316    0.3142295632
      6  O         1.6428666882    0.5580963624   -1.0666181229
      7  O        -0.0793961891    1.8906553810    0.7430785488
      8  O        -1.6538448556    2.1636006328   -0.9193155941
      9  C         0.1112497942    3.3055484230    0.7520668044
     10  C         3.6362803702   -0.7724170820    0.1130215962
     11  C        -0.2239907215   -2.2487533468    0.1045757645
     12  C        -1.5242777058   -2.7411486134    0.2370961776
     13  C        -2.6105318253   -1.8705883996    0.1829583704
     14  C        -2.3975725218   -0.5036921638    0.0120899544
     15  H         0.4798571535    3.6504889134   -0.2193577541
     16  H         3.9131930930   -0.8856432273   -0.9398426800
     17  H        -3.6244084650   -2.2560700247    0.2743863539
     18  H        -0.8213882332    3.8144524380    1.0152929683
     19  H         0.8618027747    3.5417630810    1.5113479505
     20  H         4.2706392529   -1.4319291517    0.7116990033
     21  H         3.7952127220    0.2573747806    0.4483307479
     22  H        -1.6901414468   -3.8088449794    0.3653096299
     23  H        -3.2494252071    0.1741533752   -0.0229161569
     24  H         0.6066568830   -2.9521169215    0.1126528134
   Point Group: c1    Number of degrees of freedom:    66


   Energy is   -679.068836129

              Constraints and their Current Values
                                        Value     Constraint
   Dihedral:        2   1   3   5      152.312      150.000
   Dihedral:        1   2   4   7      -50.252      -50.000

 Attempting to Generate Delocalized Internal Coordinates

   Using Lagrange Multiplier Algorithm


 68 Hessian modes will be used to form the next step
  Hessian Eigenvalues:
    -0.977753   -0.977753    0.045000    0.045000    0.045000    0.045000
     0.045000    0.045000    0.045001    0.045001    0.045002    0.045005
     0.045013    0.045027    0.045031    0.045181    0.045530    0.113864
     0.113915    0.116869    0.116916    0.159954    0.159981    0.159993
     0.160000    0.160000    0.160000    0.160000    0.160000    0.160000
     0.160000    0.219995    0.224790    0.244310    0.248434    0.248766
     0.249810    0.249910    0.250000    0.250000    0.250000    0.250000
     0.341816    0.342672    0.342857    0.342897    0.342929    0.344092
     0.344169    0.349054    0.349829    0.349904    0.350351    0.351283
     0.412994    0.413052    0.413205    0.417941    0.448645    0.456536
     0.460014    0.465920    0.534366    0.537734    0.954630    0.958839
     1.022753    1.022753

 Minimum Search - Taking P-RFO Step
 Searching for Lamda that Maximizes Along the Constraint modes Only
 Value Taken    Lamda =   0.00088984
 Searching for Lamda that Minimizes Along All other modes
 Value Taken    Lamda =  -0.05348666
 Calculated Step too Large.  Step scaled by  0.892936
 Step Taken.  Stepsize is  0.300000

                             Maximum     Tolerance    Cnvgd?
         Gradient            0.087489       0.000300      NO
         Displacement        0.155199       0.001200      NO
         Energy change     *********       0.000001      NO


 New Cartesian Coordinates Obtained by Inverse Iteration

 Displacement from previous Coordinates is:  0.805178
 Adding empirical dispersion correction 
 ----------------------------------------------------------------
 Doing -D3(op) with
 s6 =   1.00000
 s8 =   0.78311
 a1 =   0.30000
 a2 =   4.25000
 n  =  10.00000
 -D3 energy without 3body term =     -0.0234194699 hartrees
 ----------------------------------------------------------------
             Standard Nuclear Orientation (Angstroms)
    I     Atom           X                Y                Z
 ----------------------------------------------------------------
    1      C      -0.0438227314    -0.9302090006    -0.0738447509
    2      C      -1.1506367015    -0.0387365079    -0.0822304154
    3      C       1.3714885235    -0.3989830834    -0.3393386810
    4      C      -0.9828549262     1.4872087179    -0.1804919371
    5      O       2.3159241212    -1.1904952439     0.3433641078
    6      O       1.6535765285     0.5876957325    -1.0581728204
    7      O      -0.0430815785     1.9179144630     0.7763284098
    8      O      -1.6557653842     2.2459243940    -0.9150769481
    9      C       0.1754418115     3.3689332813     0.7366504940
   10      C       3.6916194820    -0.7270034535     0.1315429031
   11      C      -0.2726934915    -2.3208437995     0.0793820853
   12      C      -1.5815030088    -2.8226391126     0.2131603850
   13      C      -2.6807549000    -1.9400113559     0.1807447387
   14      C      -2.4647251554    -0.5563329769     0.0316271988
   15      H       0.5333073817     3.7034494943    -0.2584872900
   16      H       3.9970215127    -0.8111825784    -0.9319804247
   17      H      -3.7033640035    -2.3292676881     0.2727341892
   18      H      -0.7459585284     3.9308358435     0.9951327124
   19      H       0.9529076590     3.5973663436     1.4888056684
   20      H       4.3451713686    -1.3786381047     0.7406352442
   21      H       3.8285506265     0.3230326441     0.4619730101
   22      H      -1.7451613446    -3.9023389923     0.3273241135
   23      H      -3.3170924291     0.1355214763     0.0103315809
   24      H       0.5782401187    -3.0144429713     0.0735140249
 ----------------------------------------------------------------
 Molecular Point Group                 C1    NOp =  1
 Largest Abelian Subgroup              C1    NOp =  1
 Nuclear Repulsion Energy =   870.9423695601 hartrees
 There are       51 alpha and       51 beta electrons
 Applying Cartesian multipole field
    Component          Value
    ---------          -----
     (2,0,0)        1.00000E-11
     (0,2,0)        2.00000E-11
     (0,0,2)       -3.00000E-10
 Nucleus-field energy     =     0.0000000048 hartrees
 Requested basis set is STO-3G
 There are 38 shells and 80 basis functions
 A cutoff of  1.0D-12 yielded    629 shell pairs
 There are      3146 function pairs
 Smallest overlap matrix eigenvalue = 1.81E-01
 Guess MOs from SCF MO coefficient file
 Reading MOs from coefficient file
 Reading MOs from coefficient file
 A restricted hybrid HF-DFT SCF calculation will be
 performed using Pulay DIIS extrapolation
 Exchange:     0.2000 Hartree-Fock + 0.0800 Slater + 0.7200 B88
 Correlation:  0.1900 VWN1RPA + 0.8100 LYP
 Using SG-1 standard quadrature grid
 Dispersion:   Grimme D3
 SCF converges when DIIS error is below 1.0E-08
 Geometry optimization detected.  Setting ReadMinima to 0
 Setting SaveMinima to 0
 -------------------------------------------------------
 OpenMP Integral computing Module                
 Release: version 1.0, May 2013, Q-Chem Inc. Pittsburgh 
 -------------------------------------------------------
 -------------------------------------------------------
 OpenMP BLAS3 based DFT computing Module                
 Release: version 1.0, May 2013, Q-Chem Inc. Pittsburgh 
 -------------------------------------------------------
 ---------------------------------------
  Cycle       Energy         DIIS Error
 ---------------------------------------
    1    -678.9273680052      7.63E-03
    2    -679.0864323609      3.00E-03
    3    -679.0715508197      5.03E-03
    4    -679.0942690551      7.60E-04
    5    -679.0948314325      1.86E-04
    6    -679.0948640860      5.51E-05
    7    -679.0948669142      2.30E-05
    8    -679.0948673333      1.28E-05
    9    -679.0948674835      2.45E-06
   10    -679.0948674904      4.55E-07
   11    -679.0948674907      1.65E-07
   12    -679.0948674907      4.19E-08
   13    -679.0948674907      2.22E-08
   14    -679.0948674907      5.99E-09 Convergence criterion met
 ---------------------------------------
 SCF time:  CPU 42.11 s  wall 1.78 s
 SCF   energy in the final basis set = -679.0948674907
 Total energy in the final basis set = -679.0948674907
 
 --------------------------------------------------------------
 
                    Orbital Energies (a.u.)
 --------------------------------------------------------------
 
 Alpha MOs
 -- Occupied --
-18.943 -18.938 -18.871 -18.869 -10.108 -10.105 -10.071 -10.066
-10.031 -10.030 -10.020 -10.020 -10.019 -10.018  -1.020  -1.013
 -0.939  -0.935  -0.815  -0.724  -0.716  -0.671  -0.663  -0.589
 -0.576  -0.524  -0.498  -0.466  -0.444  -0.422  -0.418  -0.415
 -0.408  -0.398  -0.379  -0.372  -0.355  -0.349  -0.333  -0.320
 -0.317  -0.305  -0.293  -0.256  -0.249  -0.202  -0.200  -0.182
 -0.174  -0.154  -0.149
 -- Virtual --
  0.043   0.066   0.120   0.134   0.235   0.252   0.276   0.326
  0.351   0.358   0.380   0.396   0.418   0.420   0.425   0.430
  0.433   0.437   0.441   0.445   0.451   0.540   0.546   0.568
  0.579   0.650   0.652   0.747   0.773
 --------------------------------------------------------------
 
          Ground-State Mulliken Net Atomic Charges

     Atom                 Charge (a.u.)
  ----------------------------------------
      1 C                    -0.013868
      2 C                    -0.011070
      3 C                     0.214960
      4 C                     0.217369
      5 O                    -0.171236
      6 O                    -0.212949
      7 O                    -0.170492
      8 O                    -0.211311
      9 C                    -0.123644
     10 C                    -0.123851
     11 C                    -0.071572
     12 C                    -0.074650
     13 C                    -0.073627
     14 C                    -0.071347
     15 H                     0.093559
     16 H                     0.089523
     17 H                     0.085276
     18 H                     0.088573
     19 H                     0.091369
     20 H                     0.092465
     21 H                     0.091161
     22 H                     0.084632
     23 H                     0.089585
     24 H                     0.091146
  ----------------------------------------
  Sum of atomic charges =     0.000000

 -----------------------------------------------------------------
                    Cartesian Multipole Moments
 -----------------------------------------------------------------
    Charge (ESU x 10^10)
                -0.0000
    Dipole Moment (Debye)
         X       1.0522      Y      -0.9178      Z       1.3041
       Tot       1.9105
    Quadrupole Moments (Debye-Ang)
        XX     -64.9117     XY       2.7362     YY     -67.0965
        XZ      -1.3417     YZ       4.4605     ZZ     -77.0737
    Octopole Moments (Debye-Ang^2)
       XXX      34.4821    XXY      -9.2206    XYY       7.6766
       YYY      24.1758    XXZ       6.4056    XYZ      -0.3838
       YYZ      10.5053    XZZ       9.3219    YZZ       7.1640
       ZZZ      -4.7540
    Hexadecapole Moments (Debye-Ang^3)
      XXXX   -1464.7065   XXXY     -48.4007   XXYY    -527.5896
      XYYY      -2.9474   YYYY   -1457.1046   XXXZ      -1.8717
      XXYZ       9.4486   XYYZ     -13.9135   YYYZ      18.8626
      XXZZ    -312.1181   XYZZ     -17.1915   YYZZ    -299.7273
      XZZZ      -0.5230   YZZZ      -2.6899   ZZZZ    -173.4112
 -----------------------------------------------------------------
 Calculating analytic gradient of the SCF energy
 Gradient of SCF Energy
            1           2           3           4           5           6
    1   0.0010052   0.0019857   0.0076383   0.0127988  -0.0019636  -0.0026962
    2   0.0054925   0.0034118  -0.0122285  -0.0006072   0.0167855  -0.0029691
    3  -0.0006776  -0.0024525   0.0057429   0.0100869  -0.0117342   0.0016760
            7           8           9          10          11          12
    1  -0.0146220  -0.0005066   0.0010434  -0.0072743   0.0009912  -0.0002245
    2   0.0066398  -0.0034306  -0.0083219  -0.0044816  -0.0000586  -0.0008829
    3  -0.0137013   0.0022003   0.0027218   0.0031232   0.0008026   0.0002570
           13          14          15          16          17          18
    1  -0.0006259  -0.0014401   0.0011912   0.0006787   0.0004266   0.0007661
    2  -0.0006358   0.0008268   0.0001401  -0.0012742   0.0000371   0.0000933
    3   0.0003775  -0.0001165   0.0008257   0.0005531  -0.0000200   0.0013401
           19          20          21          22          23          24
    1  -0.0001998   0.0016922   0.0007545   0.0000127   0.0002052  -0.0016368
    2   0.0023495   0.0013228  -0.0008049   0.0004287  -0.0009519  -0.0008809
    3  -0.0008030  -0.0007677   0.0012614  -0.0001687  -0.0001128  -0.0004140
 Max gradient component =       1.679E-02
 RMS gradient           =       4.798E-03
 Gradient time:  CPU 9.60 s  wall 0.40 s
 Geometry Optimization Parameters
   NAtoms,    NIC,     NZ,  NCons,   NDum,   NFix, NCnnct, MaxDiis
       24     152       0       2       0       0       0       0

 Cartesian Hessian Update
 Hessian Updated using BFGS Update


** CONSTRAINED OPTIMIZATION IN DELOCALIZED INTERNAL COORDINATES **
   Searching for a Minimum

   Optimization Cycle:   2

                       Coordinates (Angstroms)
     ATOM                X               Y               Z
      1  C        -0.0438227314   -0.9302090006   -0.0738447509
      2  C        -1.1506367015   -0.0387365079   -0.0822304154
      3  C         1.3714885235   -0.3989830834   -0.3393386810
      4  C        -0.9828549262    1.4872087179   -0.1804919371
      5  O         2.3159241212   -1.1904952439    0.3433641078
      6  O         1.6535765285    0.5876957325   -1.0581728204
      7  O        -0.0430815785    1.9179144630    0.7763284098
      8  O        -1.6557653842    2.2459243940   -0.9150769481
      9  C         0.1754418115    3.3689332813    0.7366504940
     10  C         3.6916194820   -0.7270034535    0.1315429031
     11  C        -0.2726934915   -2.3208437995    0.0793820853
     12  C        -1.5815030088   -2.8226391126    0.2131603850
     13  C        -2.6807549000   -1.9400113559    0.1807447387
     14  C        -2.4647251554   -0.5563329769    0.0316271988
     15  H         0.5333073817    3.7034494943   -0.2584872900
     16  H         3.9970215127   -0.8111825784   -0.9319804247
     17  H        -3.7033640035   -2.3292676881    0.2727341892
     18  H        -0.7459585284    3.9308358435    0.9951327124
     19  H         0.9529076590    3.5973663436    1.4888056684
     20  H         4.3451713686   -1.3786381047    0.7406352442
     21  H         3.8285506265    0.3230326441    0.4619730101
     22  H        -1.7451613446   -3.9023389923    0.3273241135
     23  H        -3.3170924291    0.1355214763    0.0103315809
     24  H         0.5782401187   -3.0144429713    0.0735140249
   Point Group: c1    Number of degrees of freedom:    66


   Energy is   -679.094867491

              Constraints and their Current Values
                                        Value     Constraint
   Dihedral:        2   1   3   5      150.298      150.000
   Dihedral:        1   2   4   7      -50.041      -50.000
 Hessian Updated using BFGS Update

   Using Lagrange Multiplier Algorithm


 60 Hessian modes will be used to form the next step
  Hessian Eigenvalues:
    -0.977779   -0.977639    0.044939    0.045000    0.045000    0.045000
     0.045001    0.045001    0.045002    0.045005    0.045012    0.045027
     0.045061    0.045165    0.045621    0.113783    0.113902    0.116869
     0.116916    0.158681    0.159961    0.159981    0.159993    0.160000
     0.161995    0.219994    0.224861    0.237013    0.244374    0.248667
     0.249307    0.249841    0.249973    0.251930    0.342446    0.342738
     0.342874    0.342916    0.343873    0.344135    0.346037    0.349083
     0.349850    0.349937    0.350377    0.373913    0.412861    0.413053
     0.414875    0.423131    0.449314    0.456779    0.465893    0.475497
     0.519560    0.536365    0.956603    0.990861    1.022746    1.023785

 Minimum Search - Taking P-RFO Step
 Searching for Lamda that Maximizes Along the Constraint modes Only
 Value Taken    Lamda =   0.00001642
 Searching for Lamda that Minimizes Along All other modes
 Value Taken    Lamda =  -0.00352691
 Step Taken.  Stepsize is  0.143496

                             Maximum     Tolerance    Cnvgd?
         Gradient            0.014425       0.000300      NO
         Displacement        0.053984       0.001200      NO
         Energy change     -0.026031       0.000001      NO


 New Cartesian Coordinates Obtained by Inverse Iteration

 Displacement from previous Coordinates is:  0.503663
 Adding empirical dispersion correction 
 ----------------------------------------------------------------
 Doing -D3(op) with
 s6 =   1.00000
 s8 =   0.78311
 a1 =   0.30000
 a2 =   4.25000
 n  =  10.00000
 -D3 energy without 3body term =     -0.0235220104 hartrees
 ----------------------------------------------------------------
             Standard Nuclear Orientation (Angstroms)
    I     Atom           X                Y                Z
 ----------------------------------------------------------------
    1      C      -0.0576426108    -0.9378870815    -0.0639284736
    2      C      -1.1649198650    -0.0465334373    -0.0485269683
    3      C       1.3591809670    -0.3846616785    -0.2994063337
    4      C      -0.9775160827     1.4829670615    -0.1471697730
    5      O       2.3049436318    -1.2084333315     0.3780705773
    6      O       1.6584975439     0.6242479661    -0.9851667526
    7      O      -0.0007447614     1.8879120576     0.8083668227
    8      O      -1.6179185354     2.2673937314    -0.8882533625
    9      C       0.2164538156     3.3437269743     0.6978393361
   10      C       3.6662698565    -0.6885951064     0.1411674576
   11      C      -0.2794141847    -2.3299243935     0.0583470704
   12      C      -1.5881171668    -2.8347619371     0.1829308961
   13      C      -2.6891411666    -1.9515462965     0.1735945036
   14      C      -2.4769953013    -0.5641440395     0.0565841158
   15      H       0.5537113657     3.6296152655    -0.3200727107
   16      H       3.9435618318    -0.7360562349    -0.9327892068
   17      H      -3.7119316261    -2.3439452513     0.2589180621
   18      H      -0.7042788385     3.9152692415     0.9393256049
   19      H       1.0065723052     3.5859850021     1.4328697527
   20      H       4.3430468882    -1.3384191491     0.7271155215
   21      H       3.7684572782     0.3619276144     0.4842832638
   22      H      -1.7507139503    -3.9174188226     0.2764292746
   23      H      -3.3283180157     0.1314050893     0.0492146677
   24      H       0.5827915716    -3.0113657226     0.0438842528
 ----------------------------------------------------------------
 Molecular Point Group                 C1    NOp =  1
 Largest Abelian Subgroup              C1    NOp =  1
 Nuclear Repulsion Energy =   872.2131664775 hartrees
 There are       51 alpha and       51 beta electrons
 Applying Cartesian multipole field
    Component          Value
    ---------          -----
     (2,0,0)        1.00000E-11
     (0,2,0)        2.00000E-11
     (0,0,2)       -3.00000E-10
 Nucleus-field energy     =     0.0000000067 hartrees
 Requested basis set is STO-3G
 There are 38 shells and 80 basis functions
 A cutoff of  1.0D-12 yielded    630 shell pairs
 There are      3150 function pairs
 Smallest overlap matrix eigenvalue = 1.81E-01
 Guess MOs from SCF MO coefficient file
 Reading MOs from coefficient file
 Reading MOs from coefficient file
 A restricted hybrid HF-DFT SCF calculation will be
 performed using Pulay DIIS extrapolation
 Exchange:     0.2000 Hartree-Fock + 0.0800 Slater + 0.7200 B88
 Correlation:  0.1900 VWN1RPA + 0.8100 LYP
 Using SG-1 standard quadrature grid
 Dispersion:   Grimme D3
 SCF converges when DIIS error is below 1.0E-08
 Geometry optimization detected.  Setting ReadMinima to 0
 Setting SaveMinima to 0
 -------------------------------------------------------
 OpenMP Integral computing Module                
 Release: version 1.0, May 2013, Q-Chem Inc. Pittsburgh 
 -------------------------------------------------------
 -------------------------------------------------------
 OpenMP BLAS3 based DFT computing Module                
 Release: version 1.0, May 2013, Q-Chem Inc. Pittsburgh 
 -------------------------------------------------------
 ---------------------------------------
  Cycle       Energy         DIIS Error
 ---------------------------------------
    1    -679.0628844288      3.37E-03
    2    -679.0958616503      8.65E-04
    3    -679.0936995736      1.79E-03
    4    -679.0965392776      2.18E-04
    5    -679.0965847281      6.11E-05
    6    -679.0965880437      2.21E-05
    7    -679.0965884964      9.45E-06
    8    -679.0965885777      4.17E-06
    9    -679.0965885928      1.36E-06
   10    -679.0965885948      2.01E-07
   11    -679.0965885949      5.67E-08
   12    -679.0965885949      2.17E-08
   13    -679.0965885949      1.09E-08
   14    -679.0965885949      1.68E-09 Convergence criterion met
 ---------------------------------------
 SCF time:  CPU 42.88 s  wall 1.81 s
 SCF   energy in the final basis set = -679.0965885949
 Total energy in the final basis set = -679.0965885949
 
 --------------------------------------------------------------
 
                    Orbital Energies (a.u.)
 --------------------------------------------------------------
 
 Alpha MOs
 -- Occupied --
-18.941 -18.937 -18.874 -18.873 -10.105 -10.103 -10.067 -10.062
-10.032 -10.031 -10.021 -10.021 -10.020 -10.019  -1.016  -1.009
 -0.938  -0.934  -0.816  -0.723  -0.716  -0.667  -0.659  -0.588
 -0.577  -0.523  -0.496  -0.464  -0.444  -0.421  -0.417  -0.413
 -0.407  -0.398  -0.375  -0.368  -0.357  -0.349  -0.332  -0.318
 -0.316  -0.304  -0.292  -0.260  -0.254  -0.203  -0.200  -0.183
 -0.173  -0.155  -0.151
 -- Virtual --
  0.042   0.065   0.118   0.131   0.236   0.251   0.274   0.317
  0.339   0.352   0.377   0.391   0.417   0.420   0.425   0.429
  0.433   0.435   0.439   0.443   0.450   0.536   0.544   0.567
  0.577   0.644   0.647   0.746   0.772
 --------------------------------------------------------------
 
          Ground-State Mulliken Net Atomic Charges

     Atom                 Charge (a.u.)
  ----------------------------------------
      1 C                    -0.014140
      2 C                    -0.011702
      3 C                     0.211084
      4 C                     0.213307
      5 O                    -0.166394
      6 O                    -0.209976
      7 O                    -0.165638
      8 O                    -0.207653
      9 C                    -0.126051
     10 C                    -0.126465
     11 C                    -0.071762
     12 C                    -0.074214
     13 C                    -0.073118
     14 C                    -0.071740
     15 H                     0.093657
     16 H                     0.089075
     17 H                     0.085383
     18 H                     0.088236
     19 H                     0.089769
     20 H                     0.090981
     21 H                     0.091197
     22 H                     0.084914
     23 H                     0.089340
     24 H                     0.091911
  ----------------------------------------
  Sum of atomic charges =    -0.000000

 -----------------------------------------------------------------
                    Cartesian Multipole Moments
 -----------------------------------------------------------------
    Charge (ESU x 10^10)
                -0.0000
    Dipole Moment (Debye)
         X       0.8916      Y      -0.9499      Z       1.1367
       Tot       1.7290
    Quadrupole Moments (Debye-Ang)
        XX     -65.2038     XY       2.8221     YY     -67.5890
        XZ      -1.3995     YZ       4.2360     ZZ     -76.9447
    Octopole Moments (Debye-Ang^2)
       XXX      31.3183    XXY      -8.0753    XYY       6.8277
       YYY      22.3875    XXZ       5.0354    XYZ      -0.3467
       YYZ       8.5958    XZZ       9.3470    YZZ       7.3902
       ZZZ      -8.0064
    Hexadecapole Moments (Debye-Ang^3)
      XXXX   -1465.8220   XXXY     -57.5007   XXYY    -525.6097
      XYYY     -14.3737   YYYY   -1461.3051   XXXZ      -4.7171
      XXYZ       8.9740   XYYZ     -13.8004   YYYZ      17.5972
      XXZZ    -308.9220   XYZZ     -20.9871   YYZZ    -299.1170
      XZZZ      -3.9533   YZZZ      -3.8245   ZZZZ    -165.5303
 -----------------------------------------------------------------
 Calculating analytic gradient of the SCF energy
 Gradient of SCF Energy
            1           2           3           4           5           6
    1  -0.0014128   0.0016038   0.0052283   0.0063805  -0.0009616  -0.0003159
    2  -0.0008554  -0.0008466  -0.0050235   0.0023563   0.0021693   0.0034910
    3  -0.0001268   0.0008172   0.0026405   0.0047685  -0.0003514  -0.0018634
            7           8           9          10          11          12
    1  -0.0013456  -0.0026403  -0.0021638  -0.0045196  -0.0002262   0.0005795
    2  -0.0004184   0.0020316  -0.0039632   0.0001660   0.0004748  -0.0002365
    3  -0.0013364  -0.0024228  -0.0014754  -0.0005186   0.0000428   0.0000015
           13          14          15          16          17          18
    1  -0.0003524  -0.0000882   0.0001231   0.0002646  -0.0001848  -0.0004406
    2   0.0005904  -0.0000528   0.0003560   0.0000083   0.0000870   0.0003642
    3  -0.0000281   0.0001862  -0.0005312  -0.0005189  -0.0000141   0.0002084
           19          20          21          22          23          24
    1   0.0003265  -0.0002038   0.0001575   0.0001049  -0.0001392   0.0002261
    2  -0.0006411  -0.0005019   0.0005436  -0.0001877   0.0003582  -0.0002698
    3   0.0003216   0.0003921   0.0001798   0.0000537  -0.0002370  -0.0001883
 Max gradient component =       6.380E-03
 RMS gradient           =       1.768E-03
 Gradient time:  CPU 9.69 s  wall 0.41 s
 Geometry Optimization Parameters
   NAtoms,    NIC,     NZ,  NCons,   NDum,   NFix, NCnnct, MaxDiis
       24     152       0       2       0       0       0       0

 Cartesian Hessian Update
 Hessian Updated using BFGS Update


** CONSTRAINED OPTIMIZATION IN DELOCALIZED INTERNAL COORDINATES **
   Searching for a Minimum

   Optimization Cycle:   3

                       Coordinates (Angstroms)
     ATOM                X               Y               Z
      1  C        -0.0576426108   -0.9378870815   -0.0639284736
      2  C        -1.1649198650   -0.0465334373   -0.0485269683
      3  C         1.3591809670   -0.3846616785   -0.2994063337
      4  C        -0.9775160827    1.4829670615   -0.1471697730
      5  O         2.3049436318   -1.2084333315    0.3780705773
      6  O         1.6584975439    0.6242479661   -0.9851667526
      7  O        -0.0007447614    1.8879120576    0.8083668227
      8  O        -1.6179185354    2.2673937314   -0.8882533625
      9  C         0.2164538156    3.3437269743    0.6978393361
     10  C         3.6662698565   -0.6885951064    0.1411674576
     11  C        -0.2794141847   -2.3299243935    0.0583470704
     12  C        -1.5881171668   -2.8347619371    0.1829308961
     13  C        -2.6891411666   -1.9515462965    0.1735945036
     14  C        -2.4769953013   -0.5641440395    0.0565841158
     15  H         0.5537113657    3.6296152655   -0.3200727107
     16  H         3.9435618318   -0.7360562349   -0.9327892068
     17  H        -3.7119316261   -2.3439452513    0.2589180621
     18  H        -0.7042788385    3.9152692415    0.9393256049
     19  H         1.0065723052    3.5859850021    1.4328697527
     20  H         4.3430468882   -1.3384191491    0.7271155215
     21  H         3.7684572782    0.3619276144    0.4842832638
     22  H        -1.7507139503   -3.9174188226    0.2764292746
     23  H        -3.3283180157    0.1314050893    0.0492146677
     24  H         0.5827915716   -3.0113657226    0.0438842528
   Point Group: c1    Number of degrees of freedom:    66


   Energy is   -679.096588595

              Constraints and their Current Values
                                        Value     Constraint
   Dihedral:        2   1   3   5      150.001      150.000
   Dihedral:        1   2   4   7      -50.000      -50.000
 Hessian Updated using BFGS Update

   Using Lagrange Multiplier Algorithm


 63 Hessian modes will be used to form the next step
  Hessian Eigenvalues:
    -0.977744   -0.975991    0.043290    0.045000    0.045000    0.045000
     0.045001    0.045001    0.045002    0.045005    0.045012    0.045016
     0.045026    0.045124    0.045388    0.045858    0.112627    0.113898
     0.116867    0.116916    0.158262    0.159973    0.159992    0.159996
     0.160000    0.160946    0.162999    0.219971    0.225139    0.228227
     0.244362    0.249113    0.249598    0.249847    0.249995    0.250783
     0.300057    0.342724    0.342874    0.342915    0.343298    0.343873
     0.344139    0.346098    0.349200    0.349844    0.350108    0.350456
     0.375328    0.401466    0.413064    0.413293    0.430955    0.448476
     0.456774    0.466341    0.470733    0.486338    0.536197    0.956595
     1.004944    1.022784    1.034724

 Minimum Search - Taking P-RFO Step
 Searching for Lamda that Maximizes Along the Constraint modes Only
 Value Taken    Lamda =   0.00000627
 Searching for Lamda that Minimizes Along All other modes
 Value Taken    Lamda =  -0.00049493
 Step Taken.  Stepsize is  0.046867

                             Maximum     Tolerance    Cnvgd?
         Gradient            0.007462       0.000300      NO
         Displacement        0.019382       0.001200      NO
         Energy change     -0.001721       0.000001      NO


 New Cartesian Coordinates Obtained by Inverse Iteration

 Displacement from previous Coordinates is:  0.193446
 Adding empirical dispersion correction 
 ----------------------------------------------------------------
 Doing -D3(op) with
 s6 =   1.00000
 s8 =   0.78311
 a1 =   0.30000
 a2 =   4.25000
 n  =  10.00000
 -D3 energy without 3body term =     -0.0234719171 hartrees
 ----------------------------------------------------------------
             Standard Nuclear Orientation (Angstroms)
    I     Atom           X                Y                Z
 ----------------------------------------------------------------
    1      C      -0.0600536429    -0.9279157996    -0.0668985088
    2      C      -1.1740470578    -0.0419227287    -0.0466288080
    3      C       1.3590232424    -0.3783561635    -0.2979212211
    4      C      -0.9972852476     1.4888991180    -0.1443820632
    5      O       2.3047631819    -1.2133712592     0.3808195431
    6      O       1.6721297725     0.6221574583    -0.9864967298
    7      O      -0.0153874542     1.9064254750     0.8113563091
    8      O      -1.6349497405     2.2700818036    -0.8877753342
    9      C       0.2078217445     3.3671626371     0.6999058711
   10      C       3.6800052084    -0.7153720158     0.1416439621
   11      C      -0.2751576869    -2.3210618949     0.0543029849
   12      C      -1.5804869825    -2.8339627116     0.1786966399
   13      C      -2.6856973435    -1.9579418550     0.1725643512
   14      C      -2.4820056804    -0.5690948724     0.0591399006
   15      H       0.5472697944     3.6467715278    -0.3179536384
   16      H       3.9521446360    -0.7689615947    -0.9323747056
   17      H      -3.7055087460    -2.3572420152     0.2590439183
   18      H      -0.7132818869     3.9392161876     0.9341606740
   19      H       0.9950540695     3.6127921595     1.4361208707
   20      H       4.3486808327    -1.3727381053     0.7272848841
   21      H       3.7963573728     0.3341875668     0.4800950916
   22      H      -1.7373458755    -3.9173256973     0.2709845939
   23      H      -3.3380470919     0.1200726908     0.0570014460
   24      H       0.5918395324    -2.9957423899     0.0409375671
 ----------------------------------------------------------------
 Molecular Point Group                 C1    NOp =  1
 Largest Abelian Subgroup              C1    NOp =  1
 Nuclear Repulsion Energy =   870.2894754761 hartrees
 There are       51 alpha and       51 beta electrons
 Applying Cartesian multipole field
    Component          Value
    ---------          -----
     (2,0,0)        1.00000E-11
     (0,2,0)        2.00000E-11
     (0,0,2)       -3.00000E-10
 Nucleus-field energy     =     0.0000000069 hartrees
 Requested basis set is STO-3G
 There are 38 shells and 80 basis functions
 A cutoff of  1.0D-12 yielded    629 shell pairs
 There are      3146 function pairs
 Smallest overlap matrix eigenvalue = 1.81E-01
 Guess MOs from SCF MO coefficient file
 Reading MOs from coefficient file
 Reading MOs from coefficient file
 A restricted hybrid HF-DFT SCF calculation will be
 performed using Pulay DIIS extrapolation
 Exchange:     0.2000 Hartree-Fock + 0.0800 Slater + 0.7200 B88
 Correlation:  0.1900 VWN1RPA + 0.8100 LYP
 Using SG-1 standard quadrature grid
 Dispersion:   Grimme D3
 SCF converges when DIIS error is below 1.0E-08
 Geometry optimization detected.  Setting ReadMinima to 0
 Setting SaveMinima to 0
 -------------------------------------------------------
 OpenMP Integral computing Module                
 Release: version 1.0, May 2013, Q-Chem Inc. Pittsburgh 
 -------------------------------------------------------
 -------------------------------------------------------
 OpenMP BLAS3 based DFT computing Module                
 Release: version 1.0, May 2013, Q-Chem Inc. Pittsburgh 
 -------------------------------------------------------
 ---------------------------------------
  Cycle       Energy         DIIS Error
 ---------------------------------------
    1    -679.0917566975      1.13E-03
    2    -679.0967023711      3.49E-04
    3    -679.0962897435      7.48E-04
    4    -679.0968175760      6.73E-05
    5    -679.0968216817      1.62E-05
    6    -679.0968219100      5.98E-06
    7    -679.0968219493      2.00E-06
    8    -679.0968219534      5.69E-07
    9    -679.0968219535      4.48E-07
   10    -679.0968219537      5.48E-08
   11    -679.0968219537      1.51E-08
   12    -679.0968219537      6.25E-09 Convergence criterion met
 ---------------------------------------
 SCF time:  CPU 37.42 s  wall 1.58 s
 SCF   energy in the final basis set = -679.0968219537
 Total energy in the final basis set = -679.0968219537
 
 --------------------------------------------------------------
 
                    Orbital Energies (a.u.)
 --------------------------------------------------------------
 
 Alpha MOs
 -- Occupied --
-18.938 -18.934 -18.876 -18.875 -10.105 -10.103 -10.066 -10.062
-10.033 -10.032 -10.021 -10.021 -10.021 -10.020  -1.013  -1.007
 -0.937  -0.933  -0.816  -0.724  -0.717  -0.666  -0.658  -0.589
 -0.577  -0.523  -0.496  -0.462  -0.443  -0.420  -0.417  -0.412
 -0.406  -0.399  -0.375  -0.368  -0.356  -0.349  -0.333  -0.319
 -0.317  -0.304  -0.292  -0.259  -0.254  -0.204  -0.200  -0.181
 -0.172  -0.156  -0.152
 -- Virtual --
  0.042   0.064   0.118   0.131   0.235   0.247   0.270   0.316
  0.337   0.351   0.376   0.390   0.416   0.421   0.426   0.430
  0.434   0.436   0.440   0.444   0.450   0.536   0.545   0.566
  0.577   0.644   0.647   0.745   0.772
 --------------------------------------------------------------
 
          Ground-State Mulliken Net Atomic Charges

     Atom                 Charge (a.u.)
  ----------------------------------------
      1 C                    -0.013574
      2 C                    -0.011437
      3 C                     0.210481
      4 C                     0.212512
      5 O                    -0.166603
      6 O                    -0.209188
      7 O                    -0.165491
      8 O                    -0.206929
      9 C                    -0.127542
     10 C                    -0.127986
     11 C                    -0.071490
     12 C                    -0.074208
     13 C                    -0.073003
     14 C                    -0.071637
     15 H                     0.093481
     16 H                     0.088935
     17 H                     0.085600
     18 H                     0.088255
     19 H                     0.090268
     20 H                     0.091259
     21 H                     0.091120
     22 H                     0.085150
     23 H                     0.089525
     24 H                     0.092503
  ----------------------------------------
  Sum of atomic charges =    -0.000000

 -----------------------------------------------------------------
                    Cartesian Multipole Moments
 -----------------------------------------------------------------
    Charge (ESU x 10^10)
                -0.0000
    Dipole Moment (Debye)
         X       0.8496      Y      -0.9678      Z       1.1179
       Tot       1.7054
    Quadrupole Moments (Debye-Ang)
        XX     -65.1833     XY       2.7986     YY     -67.4636
        XZ      -1.3887     YZ       4.2199     ZZ     -76.9573
    Octopole Moments (Debye-Ang^2)
       XXX      31.9473    XXY      -8.6404    XYY       7.0478
       YYY      22.4570    XXZ       5.1959    XYZ      -0.3383
       YYZ       8.6446    XZZ       9.4580    YZZ       7.2344
       ZZZ      -8.0603
    Hexadecapole Moments (Debye-Ang^3)
      XXXX   -1471.5604   XXXY     -53.9160   XXYY    -527.9924
      XYYY      -9.5622   YYYY   -1468.1342   XXXZ      -4.5740
      XXYZ       8.7803   XYYZ     -13.6588   YYYZ      17.2321
      XXZZ    -310.4571   XYZZ     -19.4043   YYZZ    -300.6809
      XZZZ      -3.8296   YZZZ      -4.8040   ZZZZ    -165.7136
 -----------------------------------------------------------------
 Calculating analytic gradient of the SCF energy
 Gradient of SCF Energy
            1           2           3           4           5           6
    1  -0.0007284  -0.0002445   0.0002636   0.0005075  -0.0007076   0.0001872
    2  -0.0011346  -0.0005775  -0.0016839  -0.0003598   0.0007239   0.0010278
    3  -0.0011121   0.0006184   0.0006359   0.0007897   0.0003846  -0.0009312
            7           8           9          10          11          12
    1  -0.0004123  -0.0004631   0.0005780   0.0010677  -0.0002908   0.0001878
    2  -0.0000882   0.0006494   0.0007560  -0.0001684   0.0002345   0.0002463
    3  -0.0000329  -0.0006397   0.0003246   0.0002156   0.0000997  -0.0000471
           13          14          15          16          17          18
    1   0.0001334  -0.0000062  -0.0003128  -0.0000670   0.0000071   0.0000710
    2   0.0003406  -0.0002802  -0.0000120   0.0001972  -0.0000181  -0.0000513
    3  -0.0000518   0.0001254   0.0000372   0.0000955   0.0000038  -0.0001236
           19          20          21          22          23          24
    1   0.0001151   0.0001039  -0.0001040  -0.0000059   0.0000338   0.0000864
    2   0.0000878  -0.0000283  -0.0000194   0.0000181   0.0000853   0.0000546
    3   0.0000013   0.0000042  -0.0002211   0.0000438  -0.0001514  -0.0000687
 Max gradient component =       1.684E-03
 RMS gradient           =       4.644E-04
 Gradient time:  CPU 9.72 s  wall 0.41 s
 Geometry Optimization Parameters
   NAtoms,    NIC,     NZ,  NCons,   NDum,   NFix, NCnnct, MaxDiis
       24     152       0       2       0       0       0       0

 Cartesian Hessian Update
 Hessian Updated using BFGS Update


** CONSTRAINED OPTIMIZATION IN DELOCALIZED INTERNAL COORDINATES **
   Searching for a Minimum

   Optimization Cycle:   4

                       Coordinates (Angstroms)
     ATOM                X               Y               Z
      1  C        -0.0600536429   -0.9279157996   -0.0668985088
      2  C        -1.1740470578   -0.0419227287   -0.0466288080
      3  C         1.3590232424   -0.3783561635   -0.2979212211
      4  C        -0.9972852476    1.4888991180   -0.1443820632
      5  O         2.3047631819   -1.2133712592    0.3808195431
      6  O         1.6721297725    0.6221574583   -0.9864967298
      7  O        -0.0153874542    1.9064254750    0.8113563091
      8  O        -1.6349497405    2.2700818036   -0.8877753342
      9  C         0.2078217445    3.3671626371    0.6999058711
     10  C         3.6800052084   -0.7153720158    0.1416439621
     11  C        -0.2751576869   -2.3210618949    0.0543029849
     12  C        -1.5804869825   -2.8339627116    0.1786966399
     13  C        -2.6856973435   -1.9579418550    0.1725643512
     14  C        -2.4820056804   -0.5690948724    0.0591399006
     15  H         0.5472697944    3.6467715278   -0.3179536384
     16  H         3.9521446360   -0.7689615947   -0.9323747056
     17  H        -3.7055087460   -2.3572420152    0.2590439183
     18  H        -0.7132818869    3.9392161876    0.9341606740
     19  H         0.9950540695    3.6127921595    1.4361208707
     20  H         4.3486808327   -1.3727381053    0.7272848841
     21  H         3.7963573728    0.3341875668    0.4800950916
     22  H        -1.7373458755   -3.9173256973    0.2709845939
     23  H        -3.3380470919    0.1200726908    0.0570014460
     24  H         0.5918395324   -2.9957423899    0.0409375671
   Point Group: c1    Number of degrees of freedom:    66


   Energy is   -679.096821954

              Constraints and their Current Values
                                        Value     Constraint
   Dihedral:        2   1   3   5      150.000      150.000
   Dihedral:        1   2   4   7      -50.000      -50.000
 Hessian Updated using BFGS Update

 60 Hessian modes will be used to form the next step
  Hessian Eigenvalues:
     0.041971    0.045000    0.045000    0.045001    0.045001    0.045004
     0.045008    0.045013    0.045023    0.045068    0.045181    0.045591
     0.046201    0.113888    0.114618    0.116863    0.116914    0.158556
     0.159972    0.159995    0.159998    0.160000    0.160019    0.160912
     0.163141    0.217674    0.220234    0.225530    0.244358    0.248967
     0.249596    0.249893    0.249994    0.249998    0.250409    0.299514
     0.342723    0.342873    0.342915    0.343742    0.343863    0.344144
     0.347176    0.349232    0.349846    0.350151    0.350616    0.368337
     0.412768    0.413103    0.415418    0.448388    0.456443    0.461947
     0.465623    0.469633    0.511812    0.539637    0.956988    0.981552

 Minimum Search - Taking Simple RFO Step
 Searching for Lamda that Minimizes Along All modes
 Value Taken    Lamda =  -0.00002492
 Step Taken.  Stepsize is  0.012977

                             Maximum     Tolerance    Cnvgd?
         Gradient           0.001473      0.000300      NO
         Displacement       0.004400      0.001200      NO
         Energy change     -0.000233      0.000001      NO


 New Cartesian Coordinates Obtained by Inverse Iteration

 Displacement from previous Coordinates is:  0.038096
 Adding empirical dispersion correction 
 ----------------------------------------------------------------
 Doing -D3(op) with
 s6 =   1.00000
 s8 =   0.78311
 a1 =   0.30000
 a2 =   4.25000
 n  =  10.00000
 -D3 energy without 3body term =     -0.0234820404 hartrees
 ----------------------------------------------------------------
             Standard Nuclear Orientation (Angstroms)
    I     Atom           X                Y                Z
 ----------------------------------------------------------------
    1      C      -0.0600839240    -0.9245010421    -0.0675953352
    2      C      -1.1751004648    -0.0402180800    -0.0453133243
    3      C       1.3583783280    -0.3751045679    -0.2972615872
    4      C      -0.9990084041     1.4894411716    -0.1440799370
    5      O       2.3021639564    -1.2133695434     0.3809110062
    6      O       1.6739264949     0.6265976667    -0.9816034379
    7      O      -0.0149778357     1.9056682871     0.8100777033
    8      O      -1.6373171979     2.2705843566    -0.8859767290
    9      C       0.2089727318     3.3655167749     0.6964390691
   10      C       3.6770890132    -0.7161796857     0.1428566892
   11      C      -0.2737524733    -2.3187096290     0.0515316699
   12      C      -1.5784894323    -2.8338960630     0.1764471495
   13      C      -2.6846803302    -1.9590577838     0.1737207647
   14      C      -2.4824578162    -0.5693867870     0.0620734328
   15      H       0.5518905943     3.6436857222    -0.3208597753
   16      H       3.9500842638    -0.7692426434    -0.9311530688
   17      H      -3.7039866200    -2.3594757574     0.2612310215
   18      H      -0.7117787406     3.9390552354     0.9291987657
   19      H       0.9949671968     3.6109531527     1.4338503496
   20      H       4.3441633523    -1.3757553402     0.7276429833
   21      H       3.7956739953     0.3322835665     0.4843641601
   22      H      -1.7338417950    -3.9176642962     0.2669135189
   23      H      -3.3396656385     0.1182630931     0.0631724207
   24      H       0.5936656964    -2.9927302863     0.0370400886
 ----------------------------------------------------------------
 Molecular Point Group                 C1    NOp =  1
 Largest Abelian Subgroup              C1    NOp =  1
 Nuclear Repulsion Energy =   870.5515592612 hartrees
 There are       51 alpha and       51 beta electrons
 Applying Cartesian multipole field
    Component          Value
    ---------          -----
     (2,0,0)        1.00000E-11
     (0,2,0)        2.00000E-11
     (0,0,2)       -3.00000E-10
 Nucleus-field energy     =     0.0000000071 hartrees
 Requested basis set is STO-3G
 There are 38 shells and 80 basis functions
 A cutoff of  1.0D-12 yielded    629 shell pairs
 There are      3146 function pairs
 Smallest overlap matrix eigenvalue = 1.81E-01
 Guess MOs from SCF MO coefficient file
 Reading MOs from coefficient file
 Reading MOs from coefficient file
 A restricted hybrid HF-DFT SCF calculation will be
 performed using Pulay DIIS extrapolation
 Exchange:     0.2000 Hartree-Fock + 0.0800 Slater + 0.7200 B88
 Correlation:  0.1900 VWN1RPA + 0.8100 LYP
 Using SG-1 standard quadrature grid
 Dispersion:   Grimme D3
 SCF converges when DIIS error is below 1.0E-08
 Geometry optimization detected.  Setting ReadMinima to 0
 Setting SaveMinima to 0
 -------------------------------------------------------
 OpenMP Integral computing Module                
 Release: version 1.0, May 2013, Q-Chem Inc. Pittsburgh 
 -------------------------------------------------------
 -------------------------------------------------------
 OpenMP BLAS3 based DFT computing Module                
 Release: version 1.0, May 2013, Q-Chem Inc. Pittsburgh 
 -------------------------------------------------------
 ---------------------------------------
  Cycle       Energy         DIIS Error
 ---------------------------------------
    1    -679.0976526022      2.68E-04
    2    -679.0968325749      3.82E-05
    3    -679.0968292023      7.14E-05
    4    -679.0968342759      1.48E-05
    5    -679.0968344528      5.80E-06
    6    -679.0968344834      1.58E-06
    7    -679.0968344860      4.51E-07
    8    -679.0968344862      2.37E-07
    9    -679.0968344862      1.14E-07
   10    -679.0968344862      1.29E-08
   11    -679.0968344862      5.19E-09 Convergence criterion met
 ---------------------------------------
 SCF time:  CPU 35.30 s  wall 1.49 s
 SCF   energy in the final basis set = -679.0968344862
 Total energy in the final basis set = -679.0968344862
 
 --------------------------------------------------------------
 
                    Orbital Energies (a.u.)
 --------------------------------------------------------------
 
 Alpha MOs
 -- Occupied --
-18.938 -18.934 -18.876 -18.875 -10.105 -10.103 -10.066 -10.062
-10.033 -10.032 -10.021 -10.021 -10.021 -10.020  -1.013  -1.007
 -0.937  -0.933  -0.816  -0.724  -0.717  -0.666  -0.658  -0.589
 -0.577  -0.523  -0.496  -0.462  -0.443  -0.420  -0.417  -0.412
 -0.406  -0.399  -0.375  -0.368  -0.357  -0.349  -0.333  -0.319
 -0.317  -0.304  -0.292  -0.259  -0.254  -0.204  -0.200  -0.181
 -0.172  -0.156  -0.152
 -- Virtual --
  0.042   0.064   0.118   0.131   0.235   0.248   0.271   0.316
  0.337   0.351   0.376   0.390   0.416   0.421   0.426   0.430
  0.433   0.436   0.440   0.444   0.449   0.536   0.545   0.566
  0.577   0.645   0.648   0.745   0.772
 --------------------------------------------------------------
 
          Ground-State Mulliken Net Atomic Charges

     Atom                 Charge (a.u.)
  ----------------------------------------
      1 C                    -0.013633
      2 C                    -0.011579
      3 C                     0.210774
      4 C                     0.212753
      5 O                    -0.166696
      6 O                    -0.209208
      7 O                    -0.165499
      8 O                    -0.206902
      9 C                    -0.127483
     10 C                    -0.127932
     11 C                    -0.071347
     12 C                    -0.074240
     13 C                    -0.072967
     14 C                    -0.071564
     15 H                     0.093401
     16 H                     0.088819
     17 H                     0.085596
     18 H                     0.088228
     19 H                     0.090165
     20 H                     0.091118
     21 H                     0.091046
     22 H                     0.085156
     23 H                     0.089478
     24 H                     0.092515
  ----------------------------------------
  Sum of atomic charges =     0.000000

 -----------------------------------------------------------------
                    Cartesian Multipole Moments
 -----------------------------------------------------------------
    Charge (ESU x 10^10)
                -0.0000
    Dipole Moment (Debye)
         X       0.8426      Y      -0.9730      Z       1.1110
       Tot       1.7003
    Quadrupole Moments (Debye-Ang)
        XX     -65.2281     XY       2.7993     YY     -67.4890
        XZ      -1.3981     YZ       4.2122     ZZ     -76.9377
    Octopole Moments (Debye-Ang^2)
       XXX      31.8066    XXY      -8.7163    XYY       7.0488
       YYY      22.1885    XXZ       5.2181    XYZ      -0.3442
       YYZ       8.5759    XZZ       9.4861    YZZ       7.1967
       ZZZ      -8.1309
    Hexadecapole Moments (Debye-Ang^3)
      XXXX   -1471.5845   XXXY     -53.7659   XXYY    -527.7816
      XYYY      -9.5503   YYYY   -1467.7905   XXXZ      -4.7545
      XXYZ       8.8467   XYYZ     -13.6746   YYYZ      17.3134
      XXZZ    -310.1474   XYZZ     -19.4064   YYZZ    -300.5100
      XZZZ      -3.8817   YZZZ      -4.7223   ZZZZ    -165.0749
 -----------------------------------------------------------------
 Calculating analytic gradient of the SCF energy
 Gradient of SCF Energy
            1           2           3           4           5           6
    1  -0.0002200   0.0001775   0.0002775   0.0001153  -0.0003944  -0.0000329
    2  -0.0001483   0.0000644  -0.0008265  -0.0000082   0.0004748   0.0002280
    3  -0.0010893   0.0007366  -0.0001753   0.0000787   0.0006056  -0.0002044
            7           8           9          10          11          12
    1  -0.0001307  -0.0000433   0.0002282   0.0004213   0.0000269  -0.0000969
    2  -0.0001623   0.0000592   0.0003124   0.0000279  -0.0000011  -0.0000370
    3   0.0001780  -0.0001078   0.0000405   0.0000623   0.0000192  -0.0000232
           13          14          15          16          17          18
    1  -0.0000165  -0.0000882  -0.0001058  -0.0000207  -0.0000005  -0.0000058
    2  -0.0000850   0.0000894   0.0000215   0.0000136  -0.0000392   0.0000174
    3  -0.0000092   0.0000833  -0.0000529  -0.0000326   0.0000014   0.0000630
           19          20          21          22          23          24
    1   0.0000139  -0.0000681  -0.0000183  -0.0000298   0.0000164  -0.0000051
    2  -0.0000394   0.0000111   0.0000278  -0.0000104   0.0000021   0.0000079
    3  -0.0000730  -0.0000189  -0.0000235   0.0000408  -0.0000817  -0.0000177
 Max gradient component =       1.089E-03
 RMS gradient           =       2.358E-04
 Gradient time:  CPU 9.66 s  wall 0.41 s
 Geometry Optimization Parameters
   NAtoms,    NIC,     NZ,  NCons,   NDum,   NFix, NCnnct, MaxDiis
       24     152       0       2       0       0       0       0

 Cartesian Hessian Update
 Hessian Updated using BFGS Update


** CONSTRAINED OPTIMIZATION IN DELOCALIZED INTERNAL COORDINATES **
   Searching for a Minimum

   Optimization Cycle:   5

                       Coordinates (Angstroms)
     ATOM                X               Y               Z
      1  C        -0.0600839240   -0.9245010421   -0.0675953352
      2  C        -1.1751004648   -0.0402180800   -0.0453133243
      3  C         1.3583783280   -0.3751045679   -0.2972615872
      4  C        -0.9990084041    1.4894411716   -0.1440799370
      5  O         2.3021639564   -1.2133695434    0.3809110062
      6  O         1.6739264949    0.6265976667   -0.9816034379
      7  O        -0.0149778357    1.9056682871    0.8100777033
      8  O        -1.6373171979    2.2705843566   -0.8859767290
      9  C         0.2089727318    3.3655167749    0.6964390691
     10  C         3.6770890132   -0.7161796857    0.1428566892
     11  C        -0.2737524733   -2.3187096290    0.0515316699
     12  C        -1.5784894323   -2.8338960630    0.1764471495
     13  C        -2.6846803302   -1.9590577838    0.1737207647
     14  C        -2.4824578162   -0.5693867870    0.0620734328
     15  H         0.5518905943    3.6436857222   -0.3208597753
     16  H         3.9500842638   -0.7692426434   -0.9311530688
     17  H        -3.7039866200   -2.3594757574    0.2612310215
     18  H        -0.7117787406    3.9390552354    0.9291987657
     19  H         0.9949671968    3.6109531527    1.4338503496
     20  H         4.3441633523   -1.3757553402    0.7276429833
     21  H         3.7956739953    0.3322835665    0.4843641601
     22  H        -1.7338417950   -3.9176642962    0.2669135189
     23  H        -3.3396656385    0.1182630931    0.0631724207
     24  H         0.5936656964   -2.9927302863    0.0370400886
   Point Group: c1    Number of degrees of freedom:    66


   Energy is   -679.096834486

              Constraints and their Current Values
                                        Value     Constraint
   Dihedral:        2   1   3   5      150.000      150.000
   Dihedral:        1   2   4   7      -50.000      -50.000
 Hessian Updated using BFGS Update

 60 Hessian modes will be used to form the next step
  Hessian Eigenvalues:
     0.033138    0.043818    0.045000    0.045000    0.045001    0.045001
     0.045004    0.045006    0.045013    0.045018    0.045077    0.045147
     0.045459    0.046890    0.113896    0.114757    0.116889    0.117038
     0.158091    0.159414    0.159981    0.159998    0.160526    0.161664
     0.163558    0.203567    0.220048    0.225863    0.244316    0.245863
     0.249301    0.249637    0.249981    0.250007    0.251837    0.298429
     0.342726    0.342874    0.342911    0.343389    0.344130    0.345136
     0.348325    0.349237    0.349925    0.350141    0.352552    0.370770
     0.409694    0.412888    0.413293    0.443302    0.455802    0.459386
     0.464188    0.485359    0.514300    0.535160    0.954280    0.976910

 Minimum Search - Taking Simple RFO Step
 Searching for Lamda that Minimizes Along All modes
 Value Taken    Lamda =  -0.00000652
 Step Taken.  Stepsize is  0.012020

                             Maximum     Tolerance    Cnvgd?
         Gradient           0.000404      0.000300      NO
         Displacement       0.004459      0.001200      NO
         Energy change     -0.000013      0.000001      NO


 New Cartesian Coordinates Obtained by Inverse Iteration

 Displacement from previous Coordinates is:  0.033650
 Adding empirical dispersion correction 
 ----------------------------------------------------------------
 Doing -D3(op) with
 s6 =   1.00000
 s8 =   0.78311
 a1 =   0.30000
 a2 =   4.25000
 n  =  10.00000
 -D3 energy without 3body term =     -0.0234819506 hartrees
 ----------------------------------------------------------------
             Standard Nuclear Orientation (Angstroms)
    I     Atom           X                Y                Z
 ----------------------------------------------------------------
    1      C      -0.0599555056    -0.9220601748    -0.0681719502
    2      C      -1.1758403313    -0.0389729548    -0.0443294127
    3      C       1.3585764108    -0.3733322728    -0.2969787557
    4      C      -1.0011177774     1.4903163335    -0.1434316879
    5      O       2.3007575249    -1.2143311773     0.3807978501
    6      O       1.6766623928     0.6287147024    -0.9790090883
    7      O      -0.0159488672     1.9065240437     0.8095425396
    8      O      -1.6406394643     2.2713588131    -0.8840568043
    9      C       0.2081011835     3.3657183594     0.6944148526
   10      C       3.6759617839    -0.7192266750     0.1434299799
   11      C      -0.2723763228    -2.3166227446     0.0495200504
   12      C      -1.5764004845    -2.8331776416     0.1748598711
   13      C      -2.6833650715    -1.9592935212     0.1747055477
   14      C      -2.4824543908    -0.5694525093     0.0643020703
   15      H       0.5559465230     3.6421836070    -0.3216621227
   16      H       3.9493170093    -0.7716905046    -0.9304928682
   17      H      -3.7023430582    -2.3603051728     0.2631010771
   18      H      -0.7135479642     3.9396771540     0.9223675379
   19      H       0.9909476287     3.6126349010     1.4348162761
   20      H       4.3422172021    -1.3804952411     0.7274572506
   21      H       3.7966107145     0.3284647293     0.4865165722
   22      H      -1.7304494115    -3.9172353605     0.2637556160
   23      H      -3.3404096638     0.1172920653     0.0681765920
   24      H       0.5955848901    -2.9899312370     0.0339966047
 ----------------------------------------------------------------
 Molecular Point Group                 C1    NOp =  1
 Largest Abelian Subgroup              C1    NOp =  1
 Nuclear Repulsion Energy =   870.6313080300 hartrees
 There are       51 alpha and       51 beta electrons
 Applying Cartesian multipole field
    Component          Value
    ---------          -----
     (2,0,0)        1.00000E-11
     (0,2,0)        2.00000E-11
     (0,0,2)       -3.00000E-10
 Nucleus-field energy     =     0.0000000072 hartrees
 Requested basis set is STO-3G
 There are 38 shells and 80 basis functions
 A cutoff of  1.0D-12 yielded    629 shell pairs
 There are      3146 function pairs
 Smallest overlap matrix eigenvalue = 1.81E-01
 Guess MOs from SCF MO coefficient file
 Reading MOs from coefficient file
 Reading MOs from coefficient file
 A restricted hybrid HF-DFT SCF calculation will be
 performed using Pulay DIIS extrapolation
 Exchange:     0.2000 Hartree-Fock + 0.0800 Slater + 0.7200 B88
 Correlation:  0.1900 VWN1RPA + 0.8100 LYP
 Using SG-1 standard quadrature grid
 Dispersion:   Grimme D3
 SCF converges when DIIS error is below 1.0E-08
 Geometry optimization detected.  Setting ReadMinima to 0
 Setting SaveMinima to 0
 -------------------------------------------------------
 OpenMP Integral computing Module                
 Release: version 1.0, May 2013, Q-Chem Inc. Pittsburgh 
 -------------------------------------------------------
 -------------------------------------------------------
 OpenMP BLAS3 based DFT computing Module                
 Release: version 1.0, May 2013, Q-Chem Inc. Pittsburgh 
 -------------------------------------------------------
 ---------------------------------------
  Cycle       Energy         DIIS Error
 ---------------------------------------
    1    -679.0974743873      1.93E-04
    2    -679.0968358612      2.11E-05
    3    -679.0968345107      4.47E-05
    4    -679.0968364175      5.87E-06
    5    -679.0968364348      4.01E-06
    6    -679.0968364510      5.31E-07
    7    -679.0968364512      3.20E-07
    8    -679.0968364513      1.34E-07
    9    -679.0968364513      3.90E-08
   10    -679.0968364513      8.10E-09 Convergence criterion met
 ---------------------------------------
 SCF time:  CPU 33.26 s  wall 1.41 s
 SCF   energy in the final basis set = -679.0968364513
 Total energy in the final basis set = -679.0968364513
 
 --------------------------------------------------------------
 
                    Orbital Energies (a.u.)
 --------------------------------------------------------------
 
 Alpha MOs
 -- Occupied --
-18.937 -18.934 -18.876 -18.875 -10.105 -10.103 -10.066 -10.062
-10.033 -10.032 -10.021 -10.021 -10.021 -10.020  -1.013  -1.007
 -0.938  -0.933  -0.816  -0.724  -0.717  -0.666  -0.658  -0.589
 -0.577  -0.523  -0.496  -0.462  -0.443  -0.420  -0.417  -0.412
 -0.406  -0.399  -0.375  -0.368  -0.357  -0.349  -0.333  -0.319
 -0.317  -0.304  -0.293  -0.260  -0.254  -0.204  -0.200  -0.181
 -0.172  -0.156  -0.152
 -- Virtual --
  0.041   0.064   0.118   0.131   0.235   0.248   0.271   0.317
  0.337   0.351   0.376   0.390   0.416   0.421   0.426   0.430
  0.433   0.436   0.440   0.444   0.449   0.536   0.545   0.566
  0.577   0.645   0.648   0.745   0.772
 --------------------------------------------------------------
 
          Ground-State Mulliken Net Atomic Charges

     Atom                 Charge (a.u.)
  ----------------------------------------
      1 C                    -0.013632
      2 C                    -0.011632
      3 C                     0.210892
      4 C                     0.212839
      5 O                    -0.166803
      6 O                    -0.209170
      7 O                    -0.165532
      8 O                    -0.206879
      9 C                    -0.127441
     10 C                    -0.127905
     11 C                    -0.071290
     12 C                    -0.074251
     13 C                    -0.072948
     14 C                    -0.071542
     15 H                     0.093326
     16 H                     0.088750
     17 H                     0.085610
     18 H                     0.088281
     19 H                     0.090108
     20 H                     0.091022
     21 H                     0.090992
     22 H                     0.085168
     23 H                     0.089469
     24 H                     0.092569
  ----------------------------------------
  Sum of atomic charges =    -0.000000

 -----------------------------------------------------------------
                    Cartesian Multipole Moments
 -----------------------------------------------------------------
    Charge (ESU x 10^10)
                -0.0000
    Dipole Moment (Debye)
         X       0.8377      Y      -0.9765      Z       1.1066
       Tot       1.6970
    Quadrupole Moments (Debye-Ang)
        XX     -65.2611     XY       2.7914     YY     -67.5007
        XZ      -1.4039     YZ       4.2080     ZZ     -76.9252
    Octopole Moments (Debye-Ang^2)
[...]
 C         -0.093  0.001  0.006    0.022 -0.002  0.002   -0.005 -0.032 -0.043
 C         -0.010 -0.020  0.003    0.018 -0.084  0.008   -0.002 -0.001  0.000
 C         -0.010  0.007 -0.000   -0.136 -0.004  0.006    0.001  0.001 -0.000
 C          0.005  0.017 -0.002    0.015  0.135 -0.014    0.001  0.001 -0.000
 C          0.003 -0.016  0.002    0.064 -0.043  0.003   -0.001 -0.002  0.000
 H          0.016  0.065  0.025    0.067  0.235  0.095    0.072  0.082  0.069
 H          0.504 -0.076  0.115   -0.101  0.043 -0.022   -0.339  0.315 -0.094
 H          0.024 -0.035  0.002    0.205 -0.455  0.041    0.000  0.003 -0.000
 H          0.040  0.049 -0.003    0.170  0.210  0.039   -0.040 -0.046 -0.103
 H          0.017  0.065 -0.029    0.033  0.292 -0.102    0.147 -0.047 -0.090
 H          0.552  0.268 -0.236   -0.131 -0.075  0.044    0.025  0.390  0.579
 H          0.475 -0.144 -0.019   -0.107  0.048 -0.032    0.387 -0.208  0.169
 H          0.080 -0.013 -0.002    0.533 -0.162 -0.007    0.002  0.001  0.000
 H          0.042  0.022 -0.002    0.028 -0.105  0.009    0.006  0.006 -0.001
 H          0.064  0.057 -0.012    0.201  0.091 -0.020    0.006  0.007 -0.000
 TransDip   0.137  0.042 -0.016    0.037  0.081  0.013    0.025  0.049  0.062

 Mode:                49                     50                     51
 Frequency:      1484.96                1496.78                1497.36
 Force Cnst:      1.3591                 1.3812                 1.3837
 Red. Mass:       1.0461                 1.0464                 1.0474
 IR Active:          YES                    YES                    YES
 IR Intens:       12.185                 16.597                  3.564
 Raman Active:       YES                    YES                    YES
               X      Y      Z        X      Y      Z        X      Y      Z
 C          0.001 -0.005  0.000   -0.003  0.003 -0.000    0.002  0.004 -0.001
 C          0.004  0.003 -0.001    0.001 -0.005  0.000   -0.002 -0.003  0.000
 C         -0.002  0.001  0.000   -0.002  0.000 -0.001   -0.005  0.004 -0.003
 C          0.000  0.002  0.002   -0.002  0.003 -0.001    0.003  0.001  0.002
 O          0.001  0.001  0.003    0.002  0.009 -0.006    0.003  0.011 -0.008
 O          0.000  0.000 -0.000    0.001 -0.003  0.002    0.001 -0.005  0.004
 O         -0.010 -0.002  0.008   -0.008  0.003 -0.011    0.006 -0.004  0.009
 O         -0.000 -0.000 -0.001    0.004 -0.002  0.004   -0.003  0.002 -0.004
 C         -0.043  0.003  0.033   -0.023  0.016 -0.030    0.017 -0.014  0.025
 C          0.003  0.008  0.012    0.009  0.027 -0.019    0.012  0.032 -0.025
 C         -0.003  0.002 -0.000    0.004  0.003 -0.000    0.003 -0.001  0.000
 C          0.006  0.001 -0.000   -0.001 -0.003  0.000   -0.005 -0.001  0.000
 C         -0.000 -0.004  0.000   -0.002  0.002 -0.000    0.000  0.004 -0.000
 C         -0.004  0.000  0.000    0.003  0.003 -0.000    0.002 -0.001  0.000
 H          0.237  0.340  0.245    0.407 -0.266  0.220   -0.326  0.232 -0.172
 H          0.081 -0.069  0.023   -0.154 -0.399 -0.031   -0.203 -0.477 -0.042
 H         -0.007  0.019 -0.002    0.002 -0.012  0.001    0.006 -0.014  0.001
 H         -0.140 -0.165 -0.438   -0.165 -0.181  0.409    0.136  0.149 -0.346
 H          0.555 -0.208 -0.332    0.125  0.216 -0.151   -0.088 -0.175  0.113
 H         -0.023 -0.110 -0.144    0.143  0.084 -0.049    0.170  0.111 -0.040
 H         -0.108  0.061 -0.055   -0.117 -0.122  0.396   -0.137 -0.154  0.489
 H         -0.018  0.007  0.000   -0.002 -0.003  0.000    0.013 -0.006  0.000
 H          0.004  0.009 -0.001   -0.012 -0.013  0.002   -0.001 -0.005 -0.000
 H         -0.003  0.003 -0.000   -0.012 -0.015  0.001   -0.003 -0.007 -0.000
 TransDip   0.051 -0.043 -0.090    0.097 -0.030  0.082    0.016 -0.058 -0.009

 Mode:                52                     53                     54
 Frequency:      1516.84                1613.09                1636.82
 Force Cnst:      3.5874                 9.7019                 9.0326
 Red. Mass:       2.6464                 6.3283                 5.7222
 IR Active:          YES                    YES                    YES
 IR Intens:       12.786                 12.401                  6.469
 Raman Active:       YES                    YES                    YES
               X      Y      Z        X      Y      Z        X      Y      Z
 C          0.177 -0.056 -0.005    0.174 -0.244  0.019    0.103  0.184 -0.028
 C         -0.045  0.175 -0.011   -0.257  0.141 -0.008   -0.175 -0.143  0.014
 C         -0.057  0.019 -0.000   -0.047 -0.003  0.021    0.001  0.009 -0.013
 C         -0.015 -0.038 -0.029    0.006  0.003 -0.033    0.025  0.029  0.004
 O          0.003 -0.002  0.001   -0.005 -0.002 -0.000    0.001  0.003 -0.001
 O          0.004 -0.006  0.001    0.017  0.019 -0.017   -0.011 -0.021  0.015
 O          0.004  0.008  0.004    0.001  0.006  0.003   -0.001  0.001 -0.000
 O          0.009 -0.011  0.016    0.008 -0.021  0.023   -0.005 -0.002 -0.001
 C          0.005  0.014  0.001    0.000  0.002  0.002   -0.002 -0.003 -0.001
 C          0.014  0.003 -0.001    0.004  0.000 -0.001    0.002 -0.000  0.001
 C         -0.125 -0.116  0.017   -0.105  0.117 -0.008   -0.241 -0.228  0.034
 C         -0.013  0.091 -0.009    0.312 -0.170  0.006    0.203  0.090 -0.016
 C          0.087 -0.047  0.002   -0.194  0.295 -0.025   -0.076 -0.208  0.025
 C         -0.117 -0.113  0.013    0.129 -0.090  0.007    0.222  0.262 -0.032
 H         -0.002 -0.087 -0.019   -0.011 -0.021 -0.009   -0.002  0.005  0.001
 H         -0.059 -0.035 -0.015    0.003 -0.008 -0.001   -0.014 -0.002 -0.002
 H         -0.008  0.322 -0.033    0.021 -0.467  0.049   -0.217  0.188 -0.021
 H         -0.050 -0.057  0.022   -0.006 -0.003 -0.000    0.008  0.010  0.003
 H         -0.010 -0.050  0.025   -0.006 -0.009  0.008   -0.005  0.006 -0.001
 H         -0.043 -0.031  0.008    0.003 -0.003 -0.002    0.001 -0.000  0.002
 H         -0.068  0.010  0.033   -0.007  0.000  0.006   -0.005  0.001  0.003
 H          0.207  0.061 -0.014   -0.467 -0.009  0.021   -0.206  0.200 -0.017
 H          0.393  0.433 -0.043    0.064 -0.186  0.014   -0.334 -0.322  0.033
 H          0.375  0.425 -0.064   -0.184  0.058  0.008    0.274  0.333 -0.054
 TransDip  -0.107  0.003 -0.042   -0.109 -0.029 -0.006   -0.054  0.061 -0.002

 Mode:                55                     56                     57
 Frequency:      1772.66                1783.75                3050.33
 Force Cnst:     21.8527                22.2917                 5.6430
 Red. Mass:      11.8034                11.8912                 1.0294
 IR Active:          YES                    YES                    YES
 IR Intens:      251.356                301.441                 24.901
 Raman Active:       YES                    YES                    YES
               X      Y      Z        X      Y      Z        X      Y      Z
 C         -0.052 -0.088  0.026   -0.021 -0.002  0.004   -0.000  0.000 -0.000
 C         -0.007  0.033 -0.006    0.028 -0.086  0.022    0.000  0.000  0.000
 C          0.267  0.626 -0.397    0.020  0.022 -0.017    0.001 -0.001  0.001
 C          0.028 -0.008  0.024   -0.322  0.512 -0.508   -0.001 -0.000 -0.002
 O         -0.004 -0.045  0.028   -0.002 -0.002  0.001   -0.002  0.000 -0.000
 O         -0.150 -0.399  0.261   -0.007 -0.016  0.013    0.000  0.000 -0.000
 O         -0.009 -0.002 -0.004    0.030 -0.018  0.040    0.001  0.002  0.001
 O         -0.010  0.007 -0.012    0.213 -0.311  0.339    0.000 -0.000  0.000
 C         -0.001 -0.001 -0.002    0.003  0.031 -0.006    0.007  0.033 -0.012
 C          0.029  0.012 -0.010    0.002  0.001 -0.001   -0.023 -0.010  0.009
 C         -0.014  0.019  0.001    0.009  0.010 -0.003   -0.000  0.000 -0.000
 C          0.025 -0.010 -0.001   -0.012  0.002  0.000    0.000 -0.000  0.000
 C         -0.009  0.015 -0.001    0.014 -0.006 -0.002    0.000  0.000 -0.000
 C          0.006 -0.015  0.001   -0.017  0.007 -0.004   -0.000  0.000 -0.000
 H          0.012 -0.026  0.003   -0.055 -0.100 -0.088   -0.286 -0.060  0.428
 H         -0.127  0.052 -0.060   -0.006  0.003 -0.004    0.068 -0.011 -0.383
 H          0.002 -0.019  0.004   -0.000  0.037 -0.005   -0.000  0.000  0.000
 H          0.002 -0.004  0.021   -0.108 -0.083 -0.078    0.398 -0.294  0.006
 H         -0.003  0.012 -0.003   -0.024 -0.226  0.055   -0.196 -0.055 -0.293
 H         -0.213 -0.091  0.071   -0.009 -0.004  0.004    0.129 -0.194  0.126
 H         -0.125  0.080 -0.017   -0.004  0.003 -0.000    0.088  0.328  0.142
 H         -0.028  0.001 -0.000    0.011 -0.002  0.004    0.000  0.000 -0.000
 H          0.035  0.017 -0.005    0.004  0.048  0.013   -0.000  0.000  0.000
 H         -0.047 -0.001  0.004   -0.005 -0.006 -0.003    0.001 -0.001  0.000
 TransDip   0.138  0.422 -0.246   -0.244  0.302 -0.398   -0.067  0.142  0.029

 Mode:                58                     59                     60
 Frequency:      3050.57                3123.55                3125.74
 Force Cnst:      5.6447                 6.3641                 6.3734
 Red. Mass:       1.0295                 1.1071                 1.1072
 IR Active:          YES                    YES                    YES
 IR Intens:       44.555                 17.380                 14.343
 Raman Active:       YES                    YES                    YES
               X      Y      Z        X      Y      Z        X      Y      Z
 C          0.000 -0.000  0.000    0.000 -0.000 -0.000   -0.000 -0.000  0.000
 C          0.000  0.000  0.000    0.000  0.000  0.000    0.000 -0.000 -0.000
 C         -0.001  0.002 -0.001    0.000  0.000  0.000    0.000  0.000 -0.000
 C         -0.001 -0.000 -0.001   -0.000 -0.000 -0.000   -0.000 -0.000  0.000
 O          0.002 -0.000  0.000   -0.000  0.000  0.000    0.000 -0.000  0.000
 O         -0.000 -0.001  0.000    0.000  0.000  0.000   -0.000 -0.000  0.000
 O          0.001  0.001  0.000    0.000  0.000  0.000   -0.000  0.000  0.000
 O          0.000 -0.000  0.000    0.000  0.000  0.000   -0.000  0.000  0.000
 C          0.005  0.024 -0.009    0.001 -0.000 -0.001    0.077 -0.028 -0.048
 C          0.030  0.013 -0.013   -0.005 -0.052 -0.079    0.000  0.001  0.001
 C          0.000 -0.000  0.000   -0.000  0.000  0.000    0.000  0.000  0.000
 C          0.000  0.000 -0.000    0.000 -0.000  0.000   -0.000 -0.000  0.000
 C          0.000  0.000 -0.000   -0.000  0.000  0.000    0.000 -0.000  0.000
 C          0.000 -0.000 -0.000   -0.000 -0.000  0.000   -0.000  0.000  0.000
 H         -0.214 -0.045  0.320   -0.005 -0.001  0.008   -0.370 -0.088  0.582
 H         -0.091  0.015  0.513   -0.120  0.002  0.682    0.002 -0.000 -0.011
 H         -0.001 -0.000  0.000    0.000  0.000 -0.000   -0.000 -0.000 -0.000
 H          0.297 -0.220  0.005   -0.009  0.007 -0.000   -0.571  0.424 -0.026
 H         -0.146 -0.041 -0.218   -0.000 -0.000 -0.001    0.030 -0.001  0.013
 H         -0.173  0.260 -0.168    0.014 -0.032 -0.001   -0.001  0.002 -0.001
 H         -0.118 -0.440 -0.190    0.169  0.644  0.257   -0.002 -0.009 -0.004
 H         -0.000 -0.001  0.000    0.000  0.000 -0.000    0.000  0.000 -0.000
 H         -0.000  0.000  0.000   -0.000  0.000 -0.000    0.000 -0.000 -0.000
 H         -0.001  0.001 -0.000    0.000 -0.000 -0.000   -0.000  0.000  0.000
 TransDip   0.187  0.104  0.002   -0.009 -0.070 -0.113    0.089 -0.050 -0.066

 Mode:                61                     62                     63
 Frequency:      3157.76                3157.99                3173.13
 Force Cnst:      6.4994                 6.5002                 6.4467
 Red. Mass:       1.1063                 1.1063                 1.0867
 IR Active:          YES                    YES                    YES
 IR Intens:       13.517                 13.253                  1.636
 Raman Active:       YES                    YES                    YES
               X      Y      Z        X      Y      Z        X      Y      Z
 C          0.000  0.000 -0.000    0.000 -0.000 -0.000   -0.000 -0.000  0.000
 C         -0.000 -0.000 -0.000    0.000 -0.000  0.000    0.000  0.000 -0.000
 C         -0.001 -0.001  0.000   -0.000  0.000 -0.000    0.000  0.000 -0.000
 C         -0.000  0.000 -0.000   -0.000  0.001 -0.000   -0.000  0.000 -0.000
 O         -0.000  0.000 -0.000    0.000 -0.000  0.000   -0.000 -0.000  0.000
 O          0.000  0.000 -0.000    0.000 -0.000  0.000   -0.000 -0.000  0.000
 O          0.000 -0.000 -0.000    0.000 -0.000  0.000    0.000  0.000  0.000
 O          0.000 -0.000  0.000    0.000 -0.000  0.000    0.000 -0.000  0.000
 C         -0.000  0.000 -0.000   -0.049  0.007 -0.081   -0.000  0.000 -0.000
 C          0.026 -0.077  0.048   -0.000  0.000 -0.000    0.000 -0.000  0.000
 C          0.000 -0.000  0.000    0.000 -0.000  0.000   -0.008  0.009 -0.000
 C          0.000  0.000 -0.000    0.000  0.000 -0.000   -0.014 -0.055  0.006
 C         -0.000 -0.000  0.000   -0.000 -0.000  0.000    0.055  0.017 -0.003
 C          0.000 -0.000  0.000    0.000 -0.000  0.000   -0.016  0.013 -0.001
 H          0.000  0.000 -0.001   -0.174 -0.031  0.233   -0.000  0.000  0.000
 H          0.054 -0.023 -0.285   -0.000  0.000  0.002    0.000 -0.000 -0.001
 H          0.001  0.000 -0.000    0.002  0.001 -0.000   -0.646 -0.195  0.039
 H          0.002 -0.001  0.000    0.256 -0.191 -0.011    0.001 -0.001 -0.000
 H          0.001  0.000  0.002    0.492  0.137  0.736    0.001  0.000  0.002
 H         -0.437  0.658 -0.425    0.001 -0.002  0.001   -0.002  0.003 -0.002
 H          0.080  0.278  0.135    0.000  0.001  0.000    0.000  0.001  0.000
 H         -0.001 -0.004  0.000   -0.000 -0.000  0.000    0.148  0.652 -0.071
 H         -0.001  0.001 -0.000   -0.001  0.001 -0.000    0.180 -0.166  0.012
 H         -0.003  0.003 -0.000   -0.000  0.000 -0.000    0.110 -0.104  0.005
 TransDip   0.058 -0.087  0.054   -0.066 -0.017 -0.095    0.027 -0.030  0.006

 Mode:                64                     65                     66
 Frequency:      3186.81                3198.66                3210.35
 Force Cnst:      6.5305                 6.6007                 6.6410
 Red. Mass:       1.0914                 1.0950                 1.0936
 IR Active:          YES                    YES                    YES
 IR Intens:        8.673                  7.289                  3.652
 Raman Active:       YES                    YES                    YES
               X      Y      Z        X      Y      Z        X      Y      Z
 C         -0.000  0.000  0.000    0.000 -0.001  0.000   -0.001 -0.003  0.000
 C         -0.001 -0.001  0.000    0.003  0.001 -0.000    0.000 -0.001  0.000
 C         -0.000  0.000 -0.000    0.000  0.000 -0.000   -0.001  0.001 -0.000
 C          0.000 -0.000  0.000   -0.000  0.001 -0.000    0.000 -0.000  0.000
 O         -0.000 -0.000  0.000   -0.000 -0.000  0.000   -0.000 -0.000  0.000
 O          0.000 -0.000  0.000   -0.000 -0.000  0.000    0.000 -0.000 -0.000
 O         -0.000  0.000 -0.000   -0.000 -0.000 -0.000    0.000  0.000  0.000
 O         -0.000  0.000 -0.000    0.000 -0.000  0.000   -0.000  0.000 -0.000
 C          0.000  0.000  0.000   -0.000  0.000 -0.000   -0.000 -0.000 -0.000
 C          0.000 -0.000  0.000    0.000 -0.000  0.000    0.000 -0.000  0.000
 C         -0.011  0.013 -0.001   -0.011  0.011 -0.001   -0.062  0.056 -0.002
 C         -0.011 -0.057  0.006   -0.001 -0.015  0.002    0.008  0.026 -0.003
 C         -0.045 -0.010  0.002   -0.043 -0.015  0.003    0.010  0.002 -0.001
 C          0.032 -0.028  0.002   -0.052  0.051 -0.004    0.006 -0.006  0.000
 H          0.000  0.000 -0.000   -0.000 -0.000  0.000    0.000  0.000  0.000
 H         -0.000 -0.000 -0.000   -0.000 -0.000  0.000    0.000 -0.000 -0.000
 H          0.499  0.145 -0.029    0.479  0.146 -0.029   -0.104 -0.030  0.006
 H         -0.000  0.000  0.000    0.001 -0.001 -0.000   -0.000  0.000 -0.000
 H         -0.001 -0.000 -0.001    0.000 -0.000  0.000    0.000  0.000  0.001
 H         -0.001  0.002 -0.001   -0.001  0.001 -0.001   -0.002  0.002 -0.002
 H         -0.000 -0.000 -0.000   -0.000 -0.000 -0.000   -0.000 -0.000 -0.000
 H          0.140  0.636 -0.069    0.032  0.158 -0.017   -0.065 -0.277  0.030
 H         -0.364  0.337 -0.025    0.599 -0.564  0.042   -0.065  0.062 -0.005
 H          0.156 -0.147  0.007    0.137 -0.127  0.006    0.696 -0.637  0.028
 TransDip  -0.049 -0.080  0.009   -0.085 -0.015  0.007    0.013  0.060 -0.004

 STANDARD THERMODYNAMIC QUANTITIES AT   298.15 K  AND     1.00 ATM

   This Molecule has  0 Imaginary Frequencies
   Zero point vibrational energy:      116.198 kcal/mol

   Atom    1 Element C  Has Mass   12.00000
   Atom    2 Element C  Has Mass   12.00000
   Atom    3 Element C  Has Mass   12.00000
   Atom    4 Element C  Has Mass   12.00000
   Atom    5 Element O  Has Mass   15.99491
   Atom    6 Element O  Has Mass   15.99491
   Atom    7 Element O  Has Mass   15.99491
   Atom    8 Element O  Has Mass   15.99491
   Atom    9 Element C  Has Mass   12.00000
   Atom   10 Element C  Has Mass   12.00000
   Atom   11 Element C  Has Mass   12.00000
   Atom   12 Element C  Has Mass   12.00000
   Atom   13 Element C  Has Mass   12.00000
   Atom   14 Element C  Has Mass   12.00000
   Atom   15 Element H  Has Mass    1.00783
   Atom   16 Element H  Has Mass    1.00783
   Atom   17 Element H  Has Mass    1.00783
   Atom   18 Element H  Has Mass    1.00783
   Atom   19 Element H  Has Mass    1.00783
   Atom   20 Element H  Has Mass    1.00783
   Atom   21 Element H  Has Mass    1.00783
   Atom   22 Element H  Has Mass    1.00783
   Atom   23 Element H  Has Mass    1.00783
   Atom   24 Element H  Has Mass    1.00783
   Molecular Mass:   194.057940 amu
   Principal axes and moments of inertia in amu*Bohr^2:
                             1           2           3
    Eigenvalues --     2396.80000  2463.45144  4476.63163
          X               0.96441     0.26442    -0.00012
          Y              -0.26440     0.96436     0.00988
          Z               0.00273    -0.00950     0.99995
   Rotational Symmetry Number is   1
   The Molecule is an Asymmetric Top
   Translational Enthalpy:        0.889 kcal/mol
   Rotational Enthalpy:           0.889 kcal/mol
   Vibrational Enthalpy:        122.840 kcal/mol
   gas constant (RT):             0.592 kcal/mol
   Translational Entropy:        41.694  cal/mol.K
   Rotational Entropy:           31.647  cal/mol.K
   Vibrational Entropy:          43.414  cal/mol.K

   Total Enthalpy:              125.210 kcal/mol
   Total Entropy:               116.755  cal/mol.K
Archival summary:
1\1\nid04364\FREQ\ProcedureUnspecified\BasisUnspecified\41010\junteng\WedOct419:25:482017WedOct419:25:482017\0\\#,FREQ,ProcedureUnspecified,BasisUnspecified,\\0,1\O\C,1,1.34408\O,2,1.20631,1,124.53\C,1,1.43932,2,115.862,3,-9.74588,0\H,4,1.0876,1,105.426,2,177.032,0\H,4,1.09062,1,110.657,2,57.1643,0\H,4,1.09128,1,109.548,2,-63.8789,0\C,2,1.49919,1,111.243,3,-176.188,0\C,8,1.3952,2,117.305,1,124.465,0\H,9,1.08327,8,118.922,2,1.91497,0\C,9,1.39286,8,120.587,2,-177.713,0\H,11,1.084,9,119.85,8,179.641,0\C,11,1.39286,9,119.905,8,-0.339864,0\H,13,1.08396,11,120.275,9,-179.847,0\C,13,1.39197,11,119.895,9,-0.553479,0\H,15,1.08206,13,120.275,11,-178.546,0\C,15,1.39944,13,120.642,11,0.371126,0\C,17,1.49335,15,119.956,13,-173.544,0\O,18,1.20841,17,124.767,15,149.467,0\O,18,1.34974,17,111.873,15,-28.4251,0\C,20,1.43908,18,115.896,17,176.598,0\H,21,1.08771,20,105.369,18,179.88,0\H,21,1.09078,20,110.407,18,60.3637,0\H,21,1.0911,20,110.413,18,-60.5344,0\\\@

 Total job time:  4089.83s(wall), 20228.27s(cpu) 
 Wed Oct  4 19:25:48 2017

        *************************************************************
        *                                                           *
        *  Thank you very much for using Q-Chem.  Have a nice day.  *
        *                                                           *
        *************************************************************


