nid04366 10.128.17
Q-Chem Developer Version! Running on 10.128.17.*
                  Welcome to Q-Chem
     A Quantum Leap Into The Future Of Chemistry


 Q-Chem 5.0, Q-Chem, Inc., Pleasanton, CA (2017)

 Yihan Shao,  Zhengting Gan,  E. Epifanovsky,  A. T. B. Gilbert,  M. Wormit,  
 J. Kussmann,  A. W. Lange,  A. Behn,  Jia Deng,  Xintian Feng,  D. Ghosh,  
 M. Goldey,  P. R. Horn,  L. D. Jacobson,  I. Kaliman,  T. Kus,  A. Landau,  
 Jie Liu,  E. I. Proynov,  R. M. Richard,  R. P. Steele,  E. J. Sundstrom,  
 H. L. Woodcock III,  P. M. Zimmerman,  D. Zuev,  B. Albrecht,  E. Alguire,  
 S. A. Baeppler,  Z. Benda,  Y. A. Bernard,  E. J. Berquist,  K. B. Bravaya,  
 D. Casanova,  Chun-Min Chang,  Yunqing Chen,  A. Chien,  K. D. Closser,  
 M. P. Coons,  S. Dasgupta,  M. Diedenhofen,  Hainam Do,  R. G. Edgar,  
 Po-Tung Fang,  S. Fatehi,  Qingguo Feng,  Qinghui Ge,  A. Ghysels,  
 J. Gomes,  J. Gonthier,  A. Gunina,  M. W. D. Hanson-Heine,  
 P. H. P. Harbach,  A. W. Hauser,  J. E. Herr,  E. G. Hohenstein,  
 Z. C. Holden,  Kerwin Hui,  T.-C. Jagau,  Hyunjun Ji,  B. Kaduk,  
 K. Khistyaev,  Jaehoon Kim,  P. Klunzinger,  K. Koh,  D. Kosenkov,  
 T. Kowalczyk,  C. M. Krauter,  A. Kunitsa,  Ka Un Lao,  A. Laurent,  
 K. V. Lawler,  Joonho Lee,  D. Lefrancois,  S. Lehtola,  D. S. Levine,  
 Yi-Pei Li,  You-Sheng Lin,  Fenglai Liu,  E. Livshits,  A. Luenser,  
 P. Manohar,  E. Mansoor,  S. F. Manzer,  Shan-Ping Mao,  Yuezhi Mao,  
 N. Mardirossian,  A. V. Marenich,  L. A. Martinez-Martinez,  S. A. Maurer,  
 N. J. Mayhall,  S. C. McKenzie,  J.-M. Mewes,  A. F. Morrison,  K. Nanda,  
 T. S. Nguyen-Beck,  R. Olivares-Amaya,  J. A. Parkhill,  T. M. Perrine,  
 F. Plasser,  S. Prager,  A. Prociuk,  D. R. Rehn,  F. Rob,  M. Schneider,  
 N. Sergueev,  S. M. Sharada,  S. Sharma,  D. W. Small,  T. Stauch,  
 T. Stein,  Yu-Chuan Su,  A. J. W. Thom,  T. Tsuchimochi,  L. Vogt,  
 O. Vydrov,  M. A. Watson,  J. Wenzel,  M. de Wergifosse,  T. A. Wesolowski,  
 A. White,  J. Witte,  A. Yamada,  Jun Yang,  K. Yao,  S. Yeganeh,  
 S. R. Yost,  Zhi-Qiang You,  A. Zech,  Igor Ying Zhang,  Xing Zhang,  
 Yan Zhao,  Ying Zhu,  B. R. Brooks,  G. K. L. Chan,  C. J. Cramer,  
 M. S. Gordon,  W. J. Hehre,  A. Klamt,  M. W. Schmidt,  C. D. Sherrill,  
 D. G. Truhlar,  A. Aspuru-Guzik,  R. Baer,  A. T. Bell,  N. A. Besley,  
 Jeng-Da Chai,  A. Dreuw,  B. D. Dunietz,  T. R. Furlani,  Chao-Ping Hsu,  
 Yousung Jung,  Jing Kong,  D. S. Lambrecht,  WanZhen Liang,  C. Ochsenfeld,  
 V. A. Rassolov,  L. V. Slipchenko,  J. E. Subotnik,  T. Van Voorhis,  
 J. M. Herbert,  A. I. Krylov,  P. M. W. Gill,  M. Head-Gordon

 Contributors to earlier versions of Q-Chem not listed above: 
 R. D. Adamson,  B. Austin,  J. Baker,  G. J. O. Beran,  K. Brandhorst,  
 S. T. Brown,  E. F. C. Byrd,  A. K. Chakraborty,  C.-L. Cheng,  
 Siu Hung Chien,  D. M. Chipman,  D. L. Crittenden,  H. Dachsel,  
 R. A. DiStasio Jr.,  R. J. Doerksen,  A. D. Dutoi,  L. Fusti-Molnar,  
 W. A. Goddard III,  A. Golubeva-Zadorozhnaya,  S. R. Gwaltney,  G. Hawkins,  
 A. Heyden,  S. Hirata,  G. Kedziora,  F. J. Keil,  C. Kelley,  Jihan Kim,  
 R. A. King,  R. Z. Khaliullin,  P. P. Korambath,  W. Kurlancheek,  
 A. M. Lee,  M. S. Lee,  S. V. Levchenko,  Ching Yeh Lin,  D. Liotard,  
 R. C. Lochan,  I. Lotan,  P. E. Maslen,  N. Nair,  D. P. O'Neill,  
 D. Neuhauser,  E. Neuscamman,  C. M. Oana,  R. Olson,  B. Peters,  
 R. Peverati,  P. A. Pieniazek,  Y. M. Rhee,  J. Ritchie,  M. A. Rohrdanz,  
 E. Rosta,  N. J. Russ,  H. F. Schaefer III,  N. E. Schultz,  N. Shenvi,  
 A. C. Simmonett,  A. Sodt,  D. Stuck,  K. S. Thanthiriwatte,  V. Vanovschi,  
 Tao Wang,  A. Warshel,  C. F. Williams,  Q. Wu,  X. Xu,  W. Zhang

 Please cite Q-Chem as follows:
 Y. Shao et al., Mol. Phys. 113, 184-215 (2015)
 DOI: 10.1080/00268976.2014.952696

 Q-Chem 5.0.0 for Intel X86 EM64T Linux

 Parts of Q-Chem use Armadillo 5.200.1 (Boston Tea Smuggler).
 http://arma.sourceforge.net/

 Q-Chem begins on Wed Oct  4 18:02:42 2017  

Host: nid04366
0

     Scratch files written to /global/cscratch1/sd/junteng/scratch/16/opt_10n01o-.save//

Checking the input file for inconsistencies... 	...done.

--------------------------------------------------------------
User input:
--------------------------------------------------------------
$molecule
0  1
C    0.355  -2.424   0.293
C   -0.264  -2.685   1.524
C    0.749  -1.045  -0.086
C   -0.385  -1.681   2.598
O    1.805  -1.090  -0.938
O    0.175  -0.038   0.291
O    0.833  -1.128   2.820
O   -1.397  -1.517   3.259
C    0.836  -0.152   3.862
C    2.258   0.195  -1.365
C    0.489  -3.469  -0.639
C    0.011  -4.748  -0.345
C   -0.620  -4.996   0.872
C   -0.760  -3.969   1.804
H    0.142   0.662   3.629
H    1.480   0.699  -1.947
H   -1.003  -5.990   1.096
H    0.581  -0.616   4.820
H    1.845   0.263   3.935
H    3.132   0.050  -2.006
H    2.557   0.804  -0.506
H    0.116  -5.548  -1.075
H   -1.248  -4.169   2.757
H    0.945  -3.290  -1.611
$end


$opt
CONSTRAINT
tors    2    1    3    5    155.0
tors    1    2    4    7    -55.0
ENDCONSTRAINT
$end

$rem
JOBTYPE                   OPT
METHOD                    B3LYP
DFT_D                     D3_OP
BASIS                     STO-3G
GEOM_OPT_MAX_CYCLES       500
SYMMETRY                  False
THRESH                    12
SCF_CONVERGENCE           8
MAX_SUB_FILE_NUM          128
MEM_STATIC                400
MEM_TOTAL                 4000
$end

--------------------------------------------------------------
 Adding empirical dispersion correction 
 ----------------------------------------------------------------
 Doing -D3(op) with
 s6 =   1.00000
 s8 =   0.78311
 a1 =   0.30000
 a2 =   4.25000
 n  =  10.00000
 -D3 energy without 3body term =     -0.0235264244 hartrees
 ----------------------------------------------------------------
             Standard Nuclear Orientation (Angstroms)
    I     Atom           X                Y                Z
 ----------------------------------------------------------------
    1      C       0.0048685472    -0.8715632622    -0.0674007052
    2      C      -1.0919198482     0.0016590604    -0.1017662538
    3      C       1.3789608532    -0.3820370773    -0.3371273238
    4      C      -0.9567219841     1.4673235547    -0.2001640574
    5      O       2.2778658221    -1.1635542316     0.3142295632
    6      O       1.6428666882     0.5580963624    -1.0666181229
    7      O      -0.0793961891     1.8906553810     0.7430785488
    8      O      -1.6538448556     2.1636006328    -0.9193155941
    9      C       0.1112497942     3.3055484230     0.7520668044
   10      C       3.6362803702    -0.7724170820     0.1130215962
   11      C      -0.2239907215    -2.2487533468     0.1045757645
   12      C      -1.5242777058    -2.7411486134     0.2370961776
   13      C      -2.6105318253    -1.8705883996     0.1829583704
   14      C      -2.3975725218    -0.5036921638     0.0120899544
   15      H       0.4798571535     3.6504889134    -0.2193577541
   16      H       3.9131930930    -0.8856432273    -0.9398426800
   17      H      -3.6244084650    -2.2560700247     0.2743863539
   18      H      -0.8213882332     3.8144524380     1.0152929683
   19      H       0.8618027747     3.5417630810     1.5113479505
   20      H       4.2706392529    -1.4319291517     0.7116990033
   21      H       3.7952127220     0.2573747806     0.4483307479
   22      H      -1.6901414468    -3.8088449794     0.3653096299
   23      H      -3.2494252071     0.1741533752    -0.0229161569
   24      H       0.6066568830    -2.9521169215     0.1126528134
 ----------------------------------------------------------------
 Molecular Point Group                 C1    NOp =  1
 Largest Abelian Subgroup              C1    NOp =  1
 Nuclear Repulsion Energy =   889.7605996999 hartrees
 There are       51 alpha and       51 beta electrons
 Requested basis set is STO-3G
 There are 38 shells and 80 basis functions

 Total QAlloc Memory Limit   4000 MB
 Mega-Array Size       392 MB
 MEM_STATIC part       400 MB
 A cutoff of  1.0D-12 yielded    631 shell pairs
 There are      3151 function pairs
 
 -------------------------------------------------------
 OpenMP Integral Computing Module                       
 Release: version 1.0, May 2013, Q-Chem Inc. Pittsburgh 
 -------------------------------------------------------
 Integral Job Info:
 Integral job number is                      11
 Integral operator is                         1
 short-range coefficients                     0
 long-range coefficients              100000000
 Omega coefficients                           0
 if combine SR and LR in K                    0
 Integral screening is                        0
 Integral computing path is                   2
 max size of driver memory is            800000
 size of driver memory is                 45569
 size of scratch memory is               945100
 max col of scratch BK array                289
 max len of scratch array in speh3           22
 max len of scratch index in speh4            8
 max int batch size is                      520
 min int batch size is                       52
 fixed nKL is                                52
 max L of basis functions is                  1
 order of int derivative is                   0
 number of shells is                         38
 number of basis is                          80
 number of cartesian basis is                80
 number of contracted shell pairs           631
 number of primitive shell pairs           3502
 maxK2 (contraction) of shell pair            9
 max number of K2 of shell pair               1
 max number of CS2 of shell pair             91
 max number of PS2 of shell pair            468
 mem total for path MDJ                   25386
 -------------------------------------------------------
 Smallest overlap matrix eigenvalue = 1.73E-01

 Scale SEOQF with 1.000000e-01/1.000000e-01/1.000000e+00

 Standard Electronic Orientation quadrupole field applied
 Nucleus-field energy     =     0.0000000031 hartrees
 Guess from superposition of atomic densities
 Warning:  Energy on first SCF cycle will be non-variational
 A restricted hybrid HF-DFT SCF calculation will be
 performed using Pulay DIIS extrapolation
 Exchange:     0.2000 Hartree-Fock + 0.0800 Slater + 0.7200 B88
 Correlation:  0.1900 VWN1RPA + 0.8100 LYP
 Using SG-1 standard quadrature grid
 Dispersion:   Grimme D3
 SCF converges when DIIS error is below 1.0E-08
 -------------------------------------------------------
 OpenMP Integral computing Module                
 Release: version 1.0, May 2013, Q-Chem Inc. Pittsburgh 
 -------------------------------------------------------
 -------------------------------------------------------
 OpenMP BLAS3 based DFT computing Module                
 Release: version 1.0, May 2013, Q-Chem Inc. Pittsburgh 
 -------------------------------------------------------
 ---------------------------------------
  Cycle       Energy         DIIS Error
 ---------------------------------------
    1    -679.1330742783      1.26E-01
    2    -678.8427567625      1.47E-02
    3    -677.8244880427      3.88E-02
    4    -679.0444374619      5.12E-03
    5    -679.0653698754      1.92E-03
    6    -679.0685893525      4.89E-04
    7    -679.0688086880      1.64E-04
    8    -679.0688325245      6.17E-05
    9    -679.0688352391      2.86E-05
   10    -679.0688361181      3.14E-06
   11    -679.0688361278      1.13E-06
   12    -679.0688361290      2.41E-07
   13    -679.0688361291      1.07E-07
   14    -679.0688361291      3.14E-08
   15    -679.0688361291      6.94E-09 Convergence criterion met
 ---------------------------------------
 SCF time:  CPU 49.60 s  wall 2.11 s
 SCF   energy in the final basis set = -679.0688361291
 Total energy in the final basis set = -679.0688361291
 
 --------------------------------------------------------------
 
                    Orbital Energies (a.u.)
 --------------------------------------------------------------
 
 Alpha MOs
 -- Occupied --
-18.949 -18.946 -18.869 -18.865 -10.118 -10.113 -10.077 -10.071
-10.028 -10.026 -10.017 -10.017 -10.016 -10.015  -1.049  -1.042
 -0.958  -0.954  -0.822  -0.734  -0.725  -0.683  -0.674  -0.597
 -0.581  -0.532  -0.505  -0.479  -0.455  -0.439  -0.432  -0.426
 -0.417  -0.402  -0.389  -0.379  -0.356  -0.354  -0.340  -0.329
 -0.320  -0.310  -0.300  -0.254  -0.248  -0.203  -0.202  -0.186
 -0.179  -0.155  -0.149
 -- Virtual --
  0.048   0.070   0.134   0.148   0.250   0.283   0.307   0.353
  0.381   0.390   0.398   0.417   0.436   0.441   0.443   0.453
  0.454   0.455   0.457   0.470   0.480   0.565   0.570   0.592
  0.607   0.692   0.707   0.784   0.805
 --------------------------------------------------------------
 
          Ground-State Mulliken Net Atomic Charges

     Atom                 Charge (a.u.)
  ----------------------------------------
      1 C                    -0.016460
      2 C                    -0.013193
      3 C                     0.236815
      4 C                     0.239331
      5 O                    -0.184254
      6 O                    -0.228518
      7 O                    -0.182816
      8 O                    -0.225997
      9 C                    -0.125951
     10 C                    -0.125656
     11 C                    -0.071459
     12 C                    -0.077394
     13 C                    -0.076184
     14 C                    -0.071171
     15 H                     0.097497
     16 H                     0.093769
     17 H                     0.085582
     18 H                     0.092573
     19 H                     0.095187
     20 H                     0.096656
     21 H                     0.094826
     22 H                     0.084752
     23 H                     0.090621
     24 H                     0.091440
  ----------------------------------------
  Sum of atomic charges =     0.000000

 -----------------------------------------------------------------
                    Cartesian Multipole Moments
 -----------------------------------------------------------------
    Charge (ESU x 10^10)
                -0.0000
    Dipole Moment (Debye)
         X       1.2481      Y      -0.8457      Z       1.4685
       Tot       2.1046
    Quadrupole Moments (Debye-Ang)
        XX     -65.3011     XY       2.1209     YY     -67.3113
        XZ      -1.3115     YZ       4.6689     ZZ     -77.0076
    Octopole Moments (Debye-Ang^2)
       XXX      32.6486    XXY     -10.3188    XYY       7.7006
       YYY      22.5743    XXZ       7.0980    XYZ      -0.6038
       YYZ      10.9090    XZZ       8.2910    YZZ       6.2845
       ZZZ      -3.3968
    Hexadecapole Moments (Debye-Ang^3)
      XXXX   -1419.9863   XXXY     -32.5552   XXYY    -506.4431
      XYYY      11.8858   YYYY   -1399.1191   XXXZ       1.8789
      XXYZ      10.6306   XYYZ     -13.3076   YYYZ      18.6340
      XXZZ    -302.3897   XYZZ      -9.9894   YYZZ    -286.2151
      XZZZ       2.4642   YZZZ      -0.6197   ZZZZ    -173.6954
 -----------------------------------------------------------------
 Calculating analytic gradient of the SCF energy
 Gradient of SCF Energy
            1           2           3           4           5           6
    1   0.0189467   0.0093829   0.0257808   0.0081785  -0.0074890  -0.0217180
    2   0.0223592   0.0288567   0.0007986   0.0175880   0.0516881  -0.0565203
    3  -0.0065385  -0.0046518  -0.0033992   0.0079344  -0.0409363   0.0412028
            7           8           9          10          11          12
    1  -0.0442633   0.0324227  -0.0030645  -0.0197333   0.0015887  -0.0032796
    2   0.0162203  -0.0474403  -0.0223198  -0.0061442   0.0052309   0.0074133
    3  -0.0457045   0.0399112   0.0002509   0.0040683   0.0000763  -0.0004771
           13          14          15          16          17          18
    1   0.0091845   0.0031285  -0.0006871  -0.0066692   0.0075847   0.0097128
    2   0.0006146   0.0015510  -0.0080860  -0.0039866   0.0028168  -0.0100635
    3  -0.0000973   0.0000466   0.0104685   0.0118894  -0.0007431   0.0009652
           19          20          21          22          23          24
    1  -0.0071448  -0.0035130  -0.0048494   0.0009058   0.0042493  -0.0086547
    2   0.0005358   0.0078508  -0.0127042   0.0083381  -0.0067165   0.0021193
    3  -0.0078565  -0.0064892   0.0011465  -0.0011694   0.0005009  -0.0003980
 Max gradient component =       5.652E-02
 RMS gradient           =       1.839E-02
 Gradient time:  CPU 10.25 s  wall 0.44 s
 Geometry Optimization Parameters
   NAtoms,    NIC,     NZ,  NCons,   NDum,   NFix, NCnnct, MaxDiis
       24     152       0       2       0       0       0       0


** CONSTRAINED OPTIMIZATION IN DELOCALIZED INTERNAL COORDINATES **
   Searching for a Minimum

   Optimization Cycle:   1

                       Coordinates (Angstroms)
     ATOM                X               Y               Z
      1  C         0.0048685472   -0.8715632622   -0.0674007052
      2  C        -1.0919198482    0.0016590604   -0.1017662538
      3  C         1.3789608532   -0.3820370773   -0.3371273238
      4  C        -0.9567219841    1.4673235547   -0.2001640574
      5  O         2.2778658221   -1.1635542316    0.3142295632
      6  O         1.6428666882    0.5580963624   -1.0666181229
      7  O        -0.0793961891    1.8906553810    0.7430785488
      8  O        -1.6538448556    2.1636006328   -0.9193155941
      9  C         0.1112497942    3.3055484230    0.7520668044
     10  C         3.6362803702   -0.7724170820    0.1130215962
     11  C        -0.2239907215   -2.2487533468    0.1045757645
     12  C        -1.5242777058   -2.7411486134    0.2370961776
     13  C        -2.6105318253   -1.8705883996    0.1829583704
     14  C        -2.3975725218   -0.5036921638    0.0120899544
     15  H         0.4798571535    3.6504889134   -0.2193577541
     16  H         3.9131930930   -0.8856432273   -0.9398426800
     17  H        -3.6244084650   -2.2560700247    0.2743863539
     18  H        -0.8213882332    3.8144524380    1.0152929683
     19  H         0.8618027747    3.5417630810    1.5113479505
     20  H         4.2706392529   -1.4319291517    0.7116990033
     21  H         3.7952127220    0.2573747806    0.4483307479
     22  H        -1.6901414468   -3.8088449794    0.3653096299
     23  H        -3.2494252071    0.1741533752   -0.0229161569
     24  H         0.6066568830   -2.9521169215    0.1126528134
   Point Group: c1    Number of degrees of freedom:    66


   Energy is   -679.068836129

              Constraints and their Current Values
                                        Value     Constraint
   Dihedral:        2   1   3   5      152.312      155.000
   Dihedral:        1   2   4   7      -50.252      -55.000

 Attempting to Generate Delocalized Internal Coordinates

   Using Lagrange Multiplier Algorithm


 68 Hessian modes will be used to form the next step
  Hessian Eigenvalues:
    -0.977753   -0.977753    0.045000    0.045000    0.045000    0.045000
     0.045000    0.045000    0.045001    0.045001    0.045002    0.045005
     0.045013    0.045027    0.045031    0.045181    0.045530    0.113864
     0.113915    0.116869    0.116916    0.159954    0.159981    0.159993
     0.160000    0.160000    0.160000    0.160000    0.160000    0.160000
     0.160000    0.219995    0.224790    0.244310    0.248434    0.248766
     0.249810    0.249910    0.250000    0.250000    0.250000    0.250000
     0.341816    0.342672    0.342857    0.342897    0.342929    0.344092
     0.344169    0.349054    0.349829    0.349904    0.350351    0.351283
     0.412994    0.413052    0.413205    0.417941    0.448645    0.456536
     0.460014    0.465920    0.534366    0.537734    0.954630    0.958839
     1.022753    1.022753

 Minimum Search - Taking P-RFO Step
 Searching for Lamda that Maximizes Along the Constraint modes Only
 Value Taken    Lamda =   0.00524612
 Searching for Lamda that Minimizes Along All other modes
 Value Taken    Lamda =  -0.05610074
 Calculated Step too Large.  Step scaled by  0.872138
 Step Taken.  Stepsize is  0.300000

                             Maximum     Tolerance    Cnvgd?
         Gradient            0.087489       0.000300      NO
         Displacement        0.150489       0.001200      NO
         Energy change     *********       0.000001      NO


 New Cartesian Coordinates Obtained by Inverse Iteration

 Displacement from previous Coordinates is:  0.833862
 Adding empirical dispersion correction 
 ----------------------------------------------------------------
 Doing -D3(op) with
 s6 =   1.00000
 s8 =   0.78311
 a1 =   0.30000
 a2 =   4.25000
 n  =  10.00000
 -D3 energy without 3body term =     -0.0233194763 hartrees
 ----------------------------------------------------------------
             Standard Nuclear Orientation (Angstroms)
    I     Atom           X                Y                Z
 ----------------------------------------------------------------
    1      C      -0.0215020565    -0.9183840672    -0.0359278282
    2      C      -1.1274913081    -0.0272317167    -0.0727798619
    3      C       1.3950124440    -0.3963695311    -0.3044278249
    4      C      -0.9575623984     1.4940184750    -0.2050716698
    5      O       2.3385013394    -1.2308609698     0.3232735449
    6      O       1.6808663058     0.5866615558    -1.0252379116
    7      O      -0.0998413507     1.9564226592     0.8101094732
    8      O      -1.6087505739     2.2319185957    -0.9780113609
    9      C       0.0914711351     3.4100029479     0.7665682348
   10      C       3.7179382090    -0.7988465516     0.0794605493
   11      C      -0.2574937059    -2.3073664226     0.1211587564
   12      C      -1.5691766714    -2.8052252093     0.2385690138
   13      C      -2.6657495596    -1.9217576271     0.1777817256
   14      C      -2.4444530725    -0.5409485591     0.0167799142
   15      H       0.5139565969     3.7389911259    -0.2043036458
   16      H       3.9855002296    -0.8609079359    -0.9952480873
   17      H      -3.6903670738    -2.3085658959     0.2528285856
   18      H      -0.8574778614     3.9543786502     0.9500825901
   19      H       0.8070952673     3.6646397455     1.5694485906
   20      H       4.3728836708    -1.4844875952     0.6476942386
   21      H       3.8937661075     0.2367090727     0.4347807943
   22      H      -1.7369486234    -3.8834443410     0.3578267781
   23      H      -3.2949379410     0.1513725004    -0.0326156234
   24      H       0.5905958422    -3.0039613846     0.1308886228
 ----------------------------------------------------------------
 Molecular Point Group                 C1    NOp =  1
 Largest Abelian Subgroup              C1    NOp =  1
 Nuclear Repulsion Energy =   869.8934476112 hartrees
 There are       51 alpha and       51 beta electrons
 Applying Cartesian multipole field
    Component          Value
    ---------          -----
     (2,0,0)        1.00000E-11
     (0,2,0)        2.00000E-11
     (0,0,2)       -3.00000E-10
 Nucleus-field energy     =     0.0000000039 hartrees
 Requested basis set is STO-3G
 There are 38 shells and 80 basis functions
 A cutoff of  1.0D-12 yielded    628 shell pairs
 There are      3145 function pairs
 Smallest overlap matrix eigenvalue = 1.81E-01
 Guess MOs from SCF MO coefficient file
 Reading MOs from coefficient file
 Reading MOs from coefficient file
 A restricted hybrid HF-DFT SCF calculation will be
 performed using Pulay DIIS extrapolation
 Exchange:     0.2000 Hartree-Fock + 0.0800 Slater + 0.7200 B88
 Correlation:  0.1900 VWN1RPA + 0.8100 LYP
 Using SG-1 standard quadrature grid
 Dispersion:   Grimme D3
 SCF converges when DIIS error is below 1.0E-08
 Geometry optimization detected.  Setting ReadMinima to 0
 Setting SaveMinima to 0
 -------------------------------------------------------
 OpenMP Integral computing Module                
 Release: version 1.0, May 2013, Q-Chem Inc. Pittsburgh 
 -------------------------------------------------------
 -------------------------------------------------------
 OpenMP BLAS3 based DFT computing Module                
 Release: version 1.0, May 2013, Q-Chem Inc. Pittsburgh 
 -------------------------------------------------------
 ---------------------------------------
  Cycle       Energy         DIIS Error
 ---------------------------------------
    1    -678.9261930108      7.79E-03
    2    -679.0860223640      2.96E-03
    3    -679.0710009984      5.02E-03
    4    -679.0936878150      7.54E-04
    5    -679.0942396249      1.92E-04
    6    -679.0942743549      5.50E-05
    7    -679.0942771415      2.33E-05
    8    -679.0942775842      1.28E-05
    9    -679.0942777337      2.59E-06
   10    -679.0942777411      4.69E-07
   11    -679.0942777413      1.63E-07
   12    -679.0942777413      3.58E-08
   13    -679.0942777413      2.01E-08
   14    -679.0942777413      5.40E-09 Convergence criterion met
 ---------------------------------------
 SCF time:  CPU 41.89 s  wall 1.76 s
 SCF   energy in the final basis set = -679.0942777413
 Total energy in the final basis set = -679.0942777413
 
 --------------------------------------------------------------
 
                    Orbital Energies (a.u.)
 --------------------------------------------------------------
 
 Alpha MOs
 -- Occupied --
-18.943 -18.938 -18.872 -18.868 -10.108 -10.105 -10.071 -10.066
-10.031 -10.030 -10.020 -10.019 -10.019 -10.018  -1.021  -1.014
 -0.940  -0.935  -0.815  -0.724  -0.716  -0.672  -0.663  -0.589
 -0.576  -0.524  -0.498  -0.467  -0.444  -0.423  -0.418  -0.416
 -0.408  -0.398  -0.379  -0.372  -0.355  -0.349  -0.334  -0.320
 -0.317  -0.305  -0.293  -0.256  -0.249  -0.202  -0.200  -0.181
 -0.174  -0.154  -0.149
 -- Virtual --
  0.043   0.066   0.119   0.134   0.235   0.253   0.277   0.327
  0.352   0.359   0.380   0.397   0.419   0.421   0.426   0.430
  0.435   0.438   0.441   0.446   0.452   0.540   0.547   0.568
  0.580   0.651   0.652   0.748   0.774
 --------------------------------------------------------------
 
          Ground-State Mulliken Net Atomic Charges

     Atom                 Charge (a.u.)
  ----------------------------------------
      1 C                    -0.014396
      2 C                    -0.010692
      3 C                     0.215200
      4 C                     0.218166
      5 O                    -0.171837
      6 O                    -0.213100
      7 O                    -0.170857
      8 O                    -0.211779
      9 C                    -0.123870
     10 C                    -0.123909
     11 C                    -0.071515
     12 C                    -0.074917
     13 C                    -0.073533
     14 C                    -0.071497
     15 H                     0.093395
     16 H                     0.089911
     17 H                     0.085357
     18 H                     0.088729
     19 H                     0.091470
     20 H                     0.092656
     21 H                     0.091254
     22 H                     0.084616
     23 H                     0.089489
     24 H                     0.091660
  ----------------------------------------
  Sum of atomic charges =    -0.000000

 -----------------------------------------------------------------
                    Cartesian Multipole Moments
 -----------------------------------------------------------------
    Charge (ESU x 10^10)
                -0.0000
    Dipole Moment (Debye)
         X       1.0137      Y      -0.9246      Z       1.3007
       Tot       1.8906
    Quadrupole Moments (Debye-Ang)
        XX     -64.6844     XY       2.2956     YY     -66.9630
        XZ      -1.4032     YZ       4.5188     ZZ     -77.2158
    Octopole Moments (Debye-Ang^2)
       XXX      32.8604    XXY      -9.6164    XYY       6.3519
       YYY      24.8631    XXZ       5.2834    XYZ      -0.5222
       YYZ      10.8417    XZZ       9.1305    YZZ       6.5813
       ZZZ      -5.5293
    Hexadecapole Moments (Debye-Ang^3)
      XXXX   -1460.7320   XXXY     -36.3868   XXYY    -527.4152
      XYYY      10.4566   YYYY   -1466.4780   XXXZ       2.2522
      XXYZ       9.6758   XYYZ     -12.6008   YYYZ      20.3760
      XXZZ    -313.6688   XYZZ     -10.1465   YYZZ    -303.0115
      XZZZ       3.1183   YZZZ      -1.0108   ZZZZ    -177.1364
 -----------------------------------------------------------------
 Calculating analytic gradient of the SCF energy
 Gradient of SCF Energy
            1           2           3           4           5           6
    1   0.0024188   0.0009750   0.0080753   0.0156377  -0.0021594  -0.0025010
    2   0.0054237   0.0041813  -0.0088255  -0.0010547   0.0170991  -0.0061833
    3  -0.0007288  -0.0003009   0.0078179   0.0073896  -0.0129802   0.0009587
            7           8           9          10          11          12
    1  -0.0164208  -0.0010582   0.0007619  -0.0074717   0.0008199  -0.0005255
    2   0.0070487  -0.0040262  -0.0086052  -0.0044834   0.0003785  -0.0007266
    3  -0.0148706   0.0047543   0.0029611   0.0031445   0.0000830   0.0003816
           13          14          15          16          17          18
    1  -0.0003432  -0.0014760   0.0010882   0.0004951   0.0006587   0.0009395
    2  -0.0003959   0.0004589  -0.0001342  -0.0014192   0.0001182  -0.0001541
    3   0.0003150  -0.0007175   0.0011267   0.0008388  -0.0000455   0.0014557
           19          20          21          22          23          24
    1  -0.0003887   0.0015804   0.0005057  -0.0000077   0.0003044  -0.0019084
    2   0.0022765   0.0014714  -0.0011689   0.0006489  -0.0010647  -0.0008633
    3  -0.0010767  -0.0009435   0.0012141  -0.0001904  -0.0000968  -0.0004901
 Max gradient component =       1.710E-02
 RMS gradient           =       5.075E-03
 Gradient time:  CPU 9.64 s  wall 0.41 s
 Geometry Optimization Parameters
   NAtoms,    NIC,     NZ,  NCons,   NDum,   NFix, NCnnct, MaxDiis
       24     152       0       2       0       0       0       0

 Cartesian Hessian Update
 Hessian Updated using BFGS Update


** CONSTRAINED OPTIMIZATION IN DELOCALIZED INTERNAL COORDINATES **
   Searching for a Minimum

   Optimization Cycle:   2

                       Coordinates (Angstroms)
     ATOM                X               Y               Z
      1  C        -0.0215020565   -0.9183840672   -0.0359278282
      2  C        -1.1274913081   -0.0272317167   -0.0727798619
      3  C         1.3950124440   -0.3963695311   -0.3044278249
      4  C        -0.9575623984    1.4940184750   -0.2050716698
      5  O         2.3385013394   -1.2308609698    0.3232735449
      6  O         1.6808663058    0.5866615558   -1.0252379116
      7  O        -0.0998413507    1.9564226592    0.8101094732
      8  O        -1.6087505739    2.2319185957   -0.9780113609
      9  C         0.0914711351    3.4100029479    0.7665682348
     10  C         3.7179382090   -0.7988465516    0.0794605493
     11  C        -0.2574937059   -2.3073664226    0.1211587564
     12  C        -1.5691766714   -2.8052252093    0.2385690138
     13  C        -2.6657495596   -1.9217576271    0.1777817256
     14  C        -2.4444530725   -0.5409485591    0.0167799142
     15  H         0.5139565969    3.7389911259   -0.2043036458
     16  H         3.9855002296   -0.8609079359   -0.9952480873
     17  H        -3.6903670738   -2.3085658959    0.2528285856
     18  H        -0.8574778614    3.9543786502    0.9500825901
     19  H         0.8070952673    3.6646397455    1.5694485906
     20  H         4.3728836708   -1.4844875952    0.6476942386
     21  H         3.8937661075    0.2367090727    0.4347807943
     22  H        -1.7369486234   -3.8834443410    0.3578267781
     23  H        -3.2949379410    0.1513725004   -0.0326156234
     24  H         0.5905958422   -3.0039613846    0.1308886228
   Point Group: c1    Number of degrees of freedom:    66


   Energy is   -679.094277741

              Constraints and their Current Values
                                        Value     Constraint
   Dihedral:        2   1   3   5      154.589      155.000
   Dihedral:        1   2   4   7      -54.284      -55.000
 Hessian Updated using BFGS Update

   Using Lagrange Multiplier Algorithm


 60 Hessian modes will be used to form the next step
  Hessian Eigenvalues:
    -0.977894   -0.977752    0.044711    0.045000    0.045000    0.045000
     0.045001    0.045001    0.045002    0.045005    0.045012    0.045020
     0.045065    0.045173    0.045399    0.113789    0.113901    0.116869
     0.116916    0.158698    0.159962    0.159981    0.159993    0.160000
     0.161948    0.219994    0.224774    0.236659    0.244394    0.248739
     0.249284    0.249841    0.249974    0.251898    0.342494    0.342744
     0.342875    0.342916    0.343893    0.344136    0.346120    0.349089
     0.349851    0.349938    0.350378    0.374671    0.412795    0.413056
     0.414028    0.425177    0.449242    0.456811    0.465897    0.476532
     0.521899    0.536201    0.956638    0.992927    1.022750    1.022886

 Minimum Search - Taking P-RFO Step
 Searching for Lamda that Maximizes Along the Constraint modes Only
 Value Taken    Lamda =   0.00005446
 Searching for Lamda that Minimizes Along All other modes
 Value Taken    Lamda =  -0.00501913
 Step Taken.  Stepsize is  0.199174

                             Maximum     Tolerance    Cnvgd?
         Gradient            0.016401       0.000300      NO
         Displacement        0.084397       0.001200      NO
         Energy change     -0.025442       0.000001      NO


 New Cartesian Coordinates Obtained by Inverse Iteration

 Displacement from previous Coordinates is:  0.807021
 Adding empirical dispersion correction 
 ----------------------------------------------------------------
 Doing -D3(op) with
 s6 =   1.00000
 s8 =   0.78311
 a1 =   0.30000
 a2 =   4.25000
 n  =  10.00000
 -D3 energy without 3body term =     -0.0235192879 hartrees
 ----------------------------------------------------------------
             Standard Nuclear Orientation (Angstroms)
    I     Atom           X                Y                Z
 ----------------------------------------------------------------
    1      C      -0.0488721676    -0.9396106316    -0.0205502706
    2      C      -1.1528974267    -0.0459534051    -0.0279859592
    3      C       1.3643835751    -0.3816788466    -0.2593808929
    4      C      -0.9498688735     1.4790329936    -0.1683963425
    5      O       2.3259786579    -1.2490065851     0.3376282370
    6      O       1.6480374930     0.6611585289    -0.9007788645
    7      O      -0.0555955790     1.9161326507     0.8530306704
    8      O      -1.5353097533     2.2406637425    -0.9763764718
    9      C       0.1705097034     3.3688646990     0.7157620349
   10      C       3.6829804514    -0.7218661385     0.0903714535
   11      C      -0.2755230713    -2.3315347139     0.0966179477
   12      C      -1.5877651127    -2.8312227389     0.2042459116
   13      C      -2.6861882106    -1.9443210269     0.1742929958
   14      C      -2.4687321718    -0.5576832060     0.0516248672
   15      H       0.5920101223     3.6251208788    -0.2784767014
   16      H       3.9265400736    -0.7053875954    -0.9928393682
   17      H      -3.7115782371    -2.3338374886     0.2417789454
   18      H      -0.7675291745     3.9451217672     0.8612130698
   19      H       0.8960946475     3.6358831396     1.5068725355
   20      H       4.3729967161    -1.4096593274     0.6144463744
   21      H       3.8040857232     0.3053512516     0.4931843157
   22      H      -1.7551929516    -3.9133305391     0.2966465879
   23      H      -3.3178178429     0.1398595487     0.0182632806
   24      H       0.5850883598    -3.0153394360     0.0924332422
 ----------------------------------------------------------------
 Molecular Point Group                 C1    NOp =  1
 Largest Abelian Subgroup              C1    NOp =  1
 Nuclear Repulsion Energy =   872.0147498884 hartrees
 There are       51 alpha and       51 beta electrons
 Applying Cartesian multipole field
    Component          Value
    ---------          -----
     (2,0,0)        1.00000E-11
     (0,2,0)        2.00000E-11
     (0,0,2)       -3.00000E-10
 Nucleus-field energy     =     0.0000000064 hartrees
 Requested basis set is STO-3G
 There are 38 shells and 80 basis functions
 A cutoff of  1.0D-12 yielded    629 shell pairs
 There are      3146 function pairs
 Smallest overlap matrix eigenvalue = 1.81E-01
 Guess MOs from SCF MO coefficient file
 Reading MOs from coefficient file
 Reading MOs from coefficient file
 A restricted hybrid HF-DFT SCF calculation will be
 performed using Pulay DIIS extrapolation
 Exchange:     0.2000 Hartree-Fock + 0.0800 Slater + 0.7200 B88
 Correlation:  0.1900 VWN1RPA + 0.8100 LYP
 Using SG-1 standard quadrature grid
 Dispersion:   Grimme D3
 SCF converges when DIIS error is below 1.0E-08
 Geometry optimization detected.  Setting ReadMinima to 0
 Setting SaveMinima to 0
 -------------------------------------------------------
 OpenMP Integral computing Module                
 Release: version 1.0, May 2013, Q-Chem Inc. Pittsburgh 
 -------------------------------------------------------
 -------------------------------------------------------
 OpenMP BLAS3 based DFT computing Module                
 Release: version 1.0, May 2013, Q-Chem Inc. Pittsburgh 
 -------------------------------------------------------
 ---------------------------------------
  Cycle       Energy         DIIS Error
 ---------------------------------------
    1    -679.0434409766      5.47E-03
    2    -679.0955569044      1.04E-03
    3    -679.0925736082      2.13E-03
    4    -679.0965945959      3.05E-04
    5    -679.0966809121      1.02E-04
    6    -679.0966904780      3.32E-05
    7    -679.0966915335      1.29E-05
    8    -679.0966916841      6.41E-06
    9    -679.0966917195      1.94E-06
   10    -679.0966917235      3.23E-07
   11    -679.0966917236      7.54E-08
   12    -679.0966917236      2.99E-08
   13    -679.0966917237      1.07E-08
   14    -679.0966917236      1.93E-09 Convergence criterion met
 ---------------------------------------
 SCF time:  CPU 42.58 s  wall 1.80 s
 SCF   energy in the final basis set = -679.0966917236
 Total energy in the final basis set = -679.0966917236
 
 --------------------------------------------------------------
 
                    Orbital Energies (a.u.)
 --------------------------------------------------------------
 
 Alpha MOs
 -- Occupied --
-18.942 -18.935 -18.875 -18.872 -10.106 -10.102 -10.068 -10.061
-10.031 -10.030 -10.021 -10.021 -10.020 -10.019  -1.016  -1.008
 -0.938  -0.933  -0.816  -0.723  -0.716  -0.667  -0.658  -0.588
 -0.577  -0.523  -0.496  -0.464  -0.443  -0.420  -0.417  -0.413
 -0.406  -0.399  -0.375  -0.367  -0.357  -0.349  -0.333  -0.318
 -0.316  -0.304  -0.291  -0.261  -0.254  -0.203  -0.199  -0.183
 -0.173  -0.156  -0.151
 -- Virtual --
  0.042   0.065   0.117   0.132   0.237   0.250   0.274   0.317
  0.339   0.352   0.376   0.392   0.418   0.419   0.426   0.428
  0.433   0.435   0.439   0.444   0.450   0.535   0.545   0.567
  0.578   0.643   0.646   0.746   0.772
 --------------------------------------------------------------
 
          Ground-State Mulliken Net Atomic Charges

     Atom                 Charge (a.u.)
  ----------------------------------------
      1 C                    -0.014770
      2 C                    -0.011249
      3 C                     0.210436
      4 C                     0.213895
      5 O                    -0.166345
      6 O                    -0.209729
      7 O                    -0.165655
      8 O                    -0.207425
      9 C                    -0.126205
     10 C                    -0.126371
     11 C                    -0.071772
     12 C                    -0.074423
     13 C                    -0.072724
     14 C                    -0.071967
     15 H                     0.093572
     16 H                     0.089327
     17 H                     0.085394
     18 H                     0.087830
     19 H                     0.089403
     20 H                     0.091103
     21 H                     0.091222
     22 H                     0.084855
     23 H                     0.089050
     24 H                     0.092549
  ----------------------------------------
  Sum of atomic charges =    -0.000000

 -----------------------------------------------------------------
                    Cartesian Multipole Moments
 -----------------------------------------------------------------
    Charge (ESU x 10^10)
                 0.0000
    Dipole Moment (Debye)
         X       0.8663      Y      -0.9726      Z       1.1020
       Tot       1.7061
    Quadrupole Moments (Debye-Ang)
        XX     -64.7868     XY       2.5130     YY     -67.6433
        XZ      -1.5014     YZ       4.2354     ZZ     -77.0468
    Octopole Moments (Debye-Ang^2)
       XXX      30.0068    XXY      -7.4297    XYY       5.2807
       YYY      23.1385    XXZ       3.4838    XYZ      -0.5085
       YYZ       8.6946    XZZ       9.8859    YZZ       6.8663
       ZZZ      -9.3751
    Hexadecapole Moments (Debye-Ang^3)
      XXXX   -1456.3152   XXXY     -55.7522   XXYY    -524.1855
      XYYY     -12.2310   YYYY   -1469.0245   XXXZ      -2.1558
      XXYZ       8.8624   XYYZ     -12.1605   YYYZ      20.0296
      XXZZ    -308.7417   XYZZ     -17.2453   YYZZ    -302.6925
      XZZZ      -1.9740   YZZZ      -1.0366   ZZZZ    -167.0323
 -----------------------------------------------------------------
 Calculating analytic gradient of the SCF energy
 Gradient of SCF Energy
            1           2           3           4           5           6
    1  -0.0017470   0.0017759   0.0046688   0.0076765  -0.0007870  -0.0003089
    2  -0.0005015  -0.0011756  -0.0038092   0.0008069   0.0012747   0.0034557
    3   0.0010730   0.0030330   0.0024647   0.0031821  -0.0003452  -0.0023087
            7           8           9          10          11          12
    1  -0.0015698  -0.0035213  -0.0018127  -0.0044692  -0.0002311   0.0006286
    2  -0.0005145   0.0028976  -0.0038779   0.0003370   0.0003490  -0.0003996
    3  -0.0007754  -0.0027055  -0.0015496  -0.0001860  -0.0008683  -0.0000003
           13          14          15          16          17          18
    1  -0.0005332  -0.0002716   0.0001386   0.0002961  -0.0002650  -0.0005884
    2   0.0005007   0.0001922   0.0005367   0.0000444   0.0000775   0.0004423
    3   0.0000598  -0.0005287  -0.0005930  -0.0006692  -0.0000336   0.0001316
           19          20          21          22          23          24
    1   0.0003881  -0.0001431   0.0003154   0.0001666  -0.0001046   0.0002984
    2  -0.0005922  -0.0005671   0.0006286  -0.0002785   0.0005069  -0.0003340
    3   0.0004419   0.0004520   0.0001845   0.0000775  -0.0003591  -0.0001774
 Max gradient component =       7.676E-03
 RMS gradient           =       1.784E-03
 Gradient time:  CPU 9.77 s  wall 0.41 s
 Geometry Optimization Parameters
   NAtoms,    NIC,     NZ,  NCons,   NDum,   NFix, NCnnct, MaxDiis
       24     152       0       2       0       0       0       0

 Cartesian Hessian Update
 Hessian Updated using BFGS Update


** CONSTRAINED OPTIMIZATION IN DELOCALIZED INTERNAL COORDINATES **
   Searching for a Minimum

   Optimization Cycle:   3

                       Coordinates (Angstroms)
     ATOM                X               Y               Z
      1  C        -0.0488721676   -0.9396106316   -0.0205502706
      2  C        -1.1528974267   -0.0459534051   -0.0279859592
      3  C         1.3643835751   -0.3816788466   -0.2593808929
      4  C        -0.9498688735    1.4790329936   -0.1683963425
      5  O         2.3259786579   -1.2490065851    0.3376282370
      6  O         1.6480374930    0.6611585289   -0.9007788645
      7  O        -0.0555955790    1.9161326507    0.8530306704
      8  O        -1.5353097533    2.2406637425   -0.9763764718
      9  C         0.1705097034    3.3688646990    0.7157620349
     10  C         3.6829804514   -0.7218661385    0.0903714535
     11  C        -0.2755230713   -2.3315347139    0.0966179477
     12  C        -1.5877651127   -2.8312227389    0.2042459116
     13  C        -2.6861882106   -1.9443210269    0.1742929958
     14  C        -2.4687321718   -0.5576832060    0.0516248672
     15  H         0.5920101223    3.6251208788   -0.2784767014
     16  H         3.9265400736   -0.7053875954   -0.9928393682
     17  H        -3.7115782371   -2.3338374886    0.2417789454
     18  H        -0.7675291745    3.9451217672    0.8612130698
     19  H         0.8960946475    3.6358831396    1.5068725355
     20  H         4.3729967161   -1.4096593274    0.6144463744
     21  H         3.8040857232    0.3053512516    0.4931843157
     22  H        -1.7551929516   -3.9133305391    0.2966465879
     23  H        -3.3178178429    0.1398595487    0.0182632806
     24  H         0.5850883598   -3.0153394360    0.0924332422
   Point Group: c1    Number of degrees of freedom:    66


   Energy is   -679.096691724

              Constraints and their Current Values
                                        Value     Constraint
   Dihedral:        2   1   3   5      154.999      155.000
   Dihedral:        1   2   4   7      -54.998      -55.000
 Hessian Updated using BFGS Update

   Using Lagrange Multiplier Algorithm


 63 Hessian modes will be used to form the next step
  Hessian Eigenvalues:
    -0.977760   -0.973788    0.041214    0.045000    0.045000    0.045000
     0.045001    0.045001    0.045002    0.045005    0.045011    0.045012
     0.045028    0.045137    0.045272    0.046958    0.113130    0.113894
     0.116868    0.116916    0.158826    0.159971    0.159992    0.159994
     0.160000    0.161032    0.163233    0.219982    0.225343    0.238536
     0.244478    0.249075    0.249616    0.249844    0.249999    0.250455
     0.296398    0.342717    0.342871    0.342915    0.343309    0.343896
     0.344135    0.345902    0.349224    0.349845    0.350161    0.350538
     0.375369    0.400542    0.413057    0.413198    0.432203    0.448411
     0.456850    0.466184    0.475282    0.486977    0.536056    0.956612
     1.005640    1.022751    1.045343

 Minimum Search - Taking P-RFO Step
 Searching for Lamda that Maximizes Along the Constraint modes Only
 Value Taken    Lamda =   0.00002652
 Searching for Lamda that Minimizes Along All other modes
 Value Taken    Lamda =  -0.00059342
 Step Taken.  Stepsize is  0.066713

                             Maximum     Tolerance    Cnvgd?
         Gradient            0.007252       0.000300      NO
         Displacement        0.020079       0.001200      NO
         Energy change     -0.002414       0.000001      NO


 New Cartesian Coordinates Obtained by Inverse Iteration

 Displacement from previous Coordinates is:  0.173025
 Adding empirical dispersion correction 
 ----------------------------------------------------------------
 Doing -D3(op) with
 s6 =   1.00000
 s8 =   0.78311
 a1 =   0.30000
 a2 =   4.25000
 n  =  10.00000
 -D3 energy without 3body term =     -0.0234849946 hartrees
 ----------------------------------------------------------------
             Standard Nuclear Orientation (Angstroms)
    I     Atom           X                Y                Z
 ----------------------------------------------------------------
    1      C      -0.0529958250    -0.9309215099    -0.0298471734
    2      C      -1.1642407938    -0.0416666583    -0.0312744173
    3      C       1.3626443116    -0.3768333887    -0.2621441379
    4      C      -0.9724091640     1.4858166238    -0.1652709178
    5      O       2.3248730664    -1.2547429462     0.3332548346
    6      O       1.6583566439     0.6663660224    -0.8938078376
    7      O      -0.0755707549     1.9328826716     0.8590059938
    8      O      -1.5421151814     2.2430923592    -0.9845166252
    9      C       0.1663947278     3.3881578326     0.7186783380
   10      C       3.6944076375    -0.7432906081     0.0905487921
   11      C      -0.2723521100    -2.3235708550     0.0914129141
   12      C      -1.5808042580    -2.8314178699     0.2012129554
   13      C      -2.6833926654    -1.9520840817     0.1747607868
   14      C      -2.4753260811    -0.5641399253     0.0540798818
   15      H       0.5973812467     3.6313786018    -0.2735823360
   16      H       3.9369732295    -0.7245025861    -0.9917177846
   17      H      -3.7054197851    -2.3487629313     0.2469960107
   18      H      -0.7680333558     3.9714253436     0.8501841631
   19      H       0.8865027334     3.6566415961     1.5133736448
   20      H       4.3771930653    -1.4392572889     0.6117579988
   21      H       3.8235273035     0.2807499367     0.4961188188
   22      H      -1.7425445982    -3.9139247033     0.2951579143
   23      H      -3.3303362354     0.1257144205     0.0296921499
   24      H       0.5931217931    -3.0003525342     0.0895536313
 ----------------------------------------------------------------
 Molecular Point Group                 C1    NOp =  1
 Largest Abelian Subgroup              C1    NOp =  1
 Nuclear Repulsion Energy =   870.2750142485 hartrees
 There are       51 alpha and       51 beta electrons
 Applying Cartesian multipole field
    Component          Value
    ---------          -----
     (2,0,0)        1.00000E-11
     (0,2,0)        2.00000E-11
     (0,0,2)       -3.00000E-10
 Nucleus-field energy     =     0.0000000065 hartrees
 Requested basis set is STO-3G
 There are 38 shells and 80 basis functions
 A cutoff of  1.0D-12 yielded    629 shell pairs
 There are      3146 function pairs
 Smallest overlap matrix eigenvalue = 1.81E-01
 Guess MOs from SCF MO coefficient file
 Reading MOs from coefficient file
 Reading MOs from coefficient file
 A restricted hybrid HF-DFT SCF calculation will be
 performed using Pulay DIIS extrapolation
 Exchange:     0.2000 Hartree-Fock + 0.0800 Slater + 0.7200 B88
 Correlation:  0.1900 VWN1RPA + 0.8100 LYP
 Using SG-1 standard quadrature grid
 Dispersion:   Grimme D3
 SCF converges when DIIS error is below 1.0E-08
 Geometry optimization detected.  Setting ReadMinima to 0
 Setting SaveMinima to 0
 -------------------------------------------------------
 OpenMP Integral computing Module                
 Release: version 1.0, May 2013, Q-Chem Inc. Pittsburgh 
 -------------------------------------------------------
 -------------------------------------------------------
 OpenMP BLAS3 based DFT computing Module                
 Release: version 1.0, May 2013, Q-Chem Inc. Pittsburgh 
 -------------------------------------------------------
 ---------------------------------------
  Cycle       Energy         DIIS Error
 ---------------------------------------
    1    -679.0930351119      1.27E-03
    2    -679.0968808252      3.19E-04
    3    -679.0964964495      7.14E-04
    4    -679.0969784718      6.65E-05
    5    -679.0969824012      1.66E-05
    6    -679.0969826316      6.37E-06
    7    -679.0969826748      2.36E-06
    8    -679.0969826798      9.59E-07
    9    -679.0969826804      4.81E-07
   10    -679.0969826807      4.69E-08
   11    -679.0969826807      1.88E-08
   12    -679.0969826807      6.87E-09 Convergence criterion met
 ---------------------------------------
 SCF time:  CPU 37.12 s  wall 1.56 s
 SCF   energy in the final basis set = -679.0969826807
 Total energy in the final basis set = -679.0969826807
 
 --------------------------------------------------------------
 
                    Orbital Energies (a.u.)
 --------------------------------------------------------------
 
 Alpha MOs
 -- Occupied --
-18.938 -18.932 -18.876 -18.874 -10.106 -10.103 -10.067 -10.061
-10.032 -10.031 -10.021 -10.021 -10.021 -10.020  -1.013  -1.006
 -0.937  -0.932  -0.816  -0.723  -0.717  -0.666  -0.658  -0.588
 -0.577  -0.523  -0.496  -0.463  -0.443  -0.420  -0.417  -0.412
 -0.405  -0.399  -0.375  -0.367  -0.357  -0.349  -0.334  -0.318
 -0.316  -0.304  -0.292  -0.260  -0.253  -0.204  -0.200  -0.181
 -0.172  -0.156  -0.151
 -- Virtual --
  0.041   0.065   0.117   0.132   0.235   0.246   0.270   0.316
  0.337   0.351   0.376   0.390   0.417   0.420   0.427   0.429
  0.434   0.436   0.440   0.444   0.449   0.534   0.546   0.566
  0.577   0.644   0.647   0.745   0.772
 --------------------------------------------------------------
 
          Ground-State Mulliken Net Atomic Charges

     Atom                 Charge (a.u.)
  ----------------------------------------
      1 C                    -0.014174
      2 C                    -0.010880
      3 C                     0.209735
      4 C                     0.213425
      5 O                    -0.166790
      6 O                    -0.209336
      7 O                    -0.165551
      8 O                    -0.206591
      9 C                    -0.127660
     10 C                    -0.127784
     11 C                    -0.071580
     12 C                    -0.074477
     13 C                    -0.072641
     14 C                    -0.071952
     15 H                     0.093562
     16 H                     0.089262
     17 H                     0.085576
     18 H                     0.087877
     19 H                     0.089960
     20 H                     0.091440
     21 H                     0.091205
     22 H                     0.085067
     23 H                     0.089087
     24 H                     0.093220
  ----------------------------------------
  Sum of atomic charges =     0.000000

 -----------------------------------------------------------------
                    Cartesian Multipole Moments
 -----------------------------------------------------------------
    Charge (ESU x 10^10)
                -0.0000
    Dipole Moment (Debye)
         X       0.8236      Y      -0.9877      Z       1.0913
       Tot       1.6866
    Quadrupole Moments (Debye-Ang)
        XX     -64.7221     XY       2.4767     YY     -67.5511
        XZ      -1.5040     YZ       4.2232     ZZ     -77.0573
    Octopole Moments (Debye-Ang^2)
       XXX      30.6513    XXY      -7.8436    XYY       5.4343
       YYY      23.2083    XXZ       3.6944    XYZ      -0.4771
       YYZ       8.9357    XZZ      10.1533    YZZ       6.6544
       ZZZ      -9.1968
    Hexadecapole Moments (Debye-Ang^3)
      XXXX   -1460.5084   XXXY     -53.7029   XXYY    -526.1668
      XYYY      -8.9369   YYYY   -1475.4188   XXXZ      -2.1824
      XXYZ       8.4626   XYYZ     -11.9816   YYYZ      19.7661
      XXZZ    -309.9738   XYZZ     -15.9210   YYZZ    -304.3488
      XZZZ      -1.8737   YZZZ      -1.8967   ZZZZ    -167.4213
 -----------------------------------------------------------------
 Calculating analytic gradient of the SCF energy
 Gradient of SCF Energy
            1           2           3           4           5           6
    1  -0.0008305  -0.0001354   0.0001104   0.0008342  -0.0005945   0.0000930
    2  -0.0008860  -0.0004538  -0.0016417  -0.0009204   0.0007142   0.0010572
    3  -0.0000435   0.0018625   0.0002851   0.0000108   0.0001974  -0.0009441
            7           8           9          10          11          12
    1  -0.0004273  -0.0007697   0.0007067   0.0010589  -0.0002477   0.0002767
    2   0.0001153   0.0008450   0.0006726  -0.0002369  -0.0000101   0.0002448
    3  -0.0000194  -0.0006912   0.0004555   0.0003257  -0.0004530  -0.0001187
           13          14          15          16          17          18
    1   0.0000928  -0.0002608  -0.0003197  -0.0000342  -0.0000081   0.0000430
    2   0.0003473  -0.0002576   0.0000395   0.0001539  -0.0000410  -0.0000271
    3  -0.0000012  -0.0004675   0.0000025   0.0000857   0.0000154  -0.0001051
           19          20          21          22          23          24
    1   0.0001405   0.0001806  -0.0000540   0.0000148   0.0000708   0.0000595
    2   0.0001623   0.0000196  -0.0000055   0.0000002   0.0000938   0.0000143
    3  -0.0000120   0.0000193  -0.0002001   0.0000418  -0.0002150  -0.0000309
 Max gradient component =       1.862E-03
 RMS gradient           =       5.012E-04
 Gradient time:  CPU 10.08 s  wall 0.43 s
 Geometry Optimization Parameters
   NAtoms,    NIC,     NZ,  NCons,   NDum,   NFix, NCnnct, MaxDiis
       24     152       0       2       0       0       0       0

 Cartesian Hessian Update
 Hessian Updated using BFGS Update


** CONSTRAINED OPTIMIZATION IN DELOCALIZED INTERNAL COORDINATES **
   Searching for a Minimum

   Optimization Cycle:   4

                       Coordinates (Angstroms)
     ATOM                X               Y               Z
      1  C        -0.0529958250   -0.9309215099   -0.0298471734
      2  C        -1.1642407938   -0.0416666583   -0.0312744173
      3  C         1.3626443116   -0.3768333887   -0.2621441379
      4  C        -0.9724091640    1.4858166238   -0.1652709178
      5  O         2.3248730664   -1.2547429462    0.3332548346
      6  O         1.6583566439    0.6663660224   -0.8938078376
      7  O        -0.0755707549    1.9328826716    0.8590059938
      8  O        -1.5421151814    2.2430923592   -0.9845166252
      9  C         0.1663947278    3.3881578326    0.7186783380
     10  C         3.6944076375   -0.7432906081    0.0905487921
     11  C        -0.2723521100   -2.3235708550    0.0914129141
     12  C        -1.5808042580   -2.8314178699    0.2012129554
     13  C        -2.6833926654   -1.9520840817    0.1747607868
     14  C        -2.4753260811   -0.5641399253    0.0540798818
     15  H         0.5973812467    3.6313786018   -0.2735823360
     16  H         3.9369732295   -0.7245025861   -0.9917177846
     17  H        -3.7054197851   -2.3487629313    0.2469960107
     18  H        -0.7680333558    3.9714253436    0.8501841631
     19  H         0.8865027334    3.6566415961    1.5133736448
     20  H         4.3771930653   -1.4392572889    0.6117579988
     21  H         3.8235273035    0.2807499367    0.4961188188
     22  H        -1.7425445982   -3.9139247033    0.2951579143
     23  H        -3.3303362354    0.1257144205    0.0296921499
     24  H         0.5931217931   -3.0003525342    0.0895536313
   Point Group: c1    Number of degrees of freedom:    66


   Energy is   -679.096982681

              Constraints and their Current Values
                                        Value     Constraint
   Dihedral:        2   1   3   5      155.000      155.000
   Dihedral:        1   2   4   7      -55.000      -55.000
 Hessian Updated using BFGS Update

   Using Lagrange Multiplier Algorithm


 64 Hessian modes will be used to form the next step
  Hessian Eigenvalues:
    -0.973550    0.035020    0.045000    0.045000    0.045000    0.045001
     0.045001    0.045002    0.045004    0.045007    0.045012    0.045020
     0.045045    0.045150    0.045985    0.046631    0.113877    0.114663
     0.116857    0.116916    0.158651    0.159971    0.159992    0.159999
     0.160000    0.160012    0.161023    0.163603    0.219909    0.224268
     0.231959    0.244337    0.248963    0.249421    0.249838    0.249950
     0.250000    0.250140    0.299808    0.342720    0.342870    0.342915
     0.343705    0.343890    0.344139    0.347487    0.349320    0.349855
     0.350199    0.351560    0.371729    0.412983    0.413127    0.415159
     0.447450    0.456637    0.464459    0.465159    0.474571    0.527422
     0.548019    0.956603    0.980308    1.034423

 Minimum Search - Taking P-RFO Step
 Searching for Lamda that Maximizes Along the Constraint modes Only
 Value Taken    Lamda =   0.00000031
 Searching for Lamda that Minimizes Along All other modes
 Value Taken    Lamda =  -0.00005799
 Step Taken.  Stepsize is  0.030105

                             Maximum     Tolerance    Cnvgd?
         Gradient            0.002059       0.000300      NO
         Displacement        0.009242       0.001200      NO
         Energy change     -0.000291       0.000001      NO


 New Cartesian Coordinates Obtained by Inverse Iteration

 Displacement from previous Coordinates is:  0.058582
 Adding empirical dispersion correction 
 ----------------------------------------------------------------
 Doing -D3(op) with
 s6 =   1.00000
 s8 =   0.78311
 a1 =   0.30000
 a2 =   4.25000
 n  =  10.00000
 -D3 energy without 3body term =     -0.0234863966 hartrees
 ----------------------------------------------------------------
             Standard Nuclear Orientation (Angstroms)
    I     Atom           X                Y                Z
 ----------------------------------------------------------------
    1      C      -0.0523043516    -0.9259401837    -0.0370226016
    2      C      -1.1653665518    -0.0387358751    -0.0373853660
    3      C       1.3637418276    -0.3730530026    -0.2638270865
    4      C      -0.9753555803     1.4883261537    -0.1674304055
    5      O       2.3214052169    -1.2566126433     0.3322734290
    6      O       1.6659963751     0.6704914521    -0.8901608768
    7      O      -0.0797789389     1.9321010752     0.8597788320
    8      O      -1.5405312211     2.2469543163    -0.9872199385
    9      C       0.1634272967     3.3867117675     0.7183707071
   10      C       3.6914862867    -0.7477608054     0.0903720233
   11      C      -0.2696194152    -2.3190253543     0.0886817635
   12      C      -1.5770319246    -2.8299131845     0.2014574266
   13      C      -2.6809388789    -1.9525088079     0.1768806115
   14      C      -2.4750681147    -0.5639840320     0.0547702824
   15      H       0.6024952913     3.6278089400    -0.2710375938
   16      H       3.9346192773    -0.7284109036    -0.9918576175
   17      H      -3.7021556610    -2.3504108844     0.2535475933
   18      H      -0.7710622237     3.9713369000     0.8438006961
   19      H       0.8783960707     3.6546639792     1.5176066678
   20      H       4.3713387873    -1.4471096751     0.6105329051
   21      H       3.8236713267     0.2748187701     0.4989204615
   22      H      -1.7366480360    -3.9125369955     0.2978654266
   23      H      -3.3319498215     0.1236815605     0.0360928464
   24      H       0.5970679136    -2.9941350456     0.0886174123
 ----------------------------------------------------------------
 Molecular Point Group                 C1    NOp =  1
 Largest Abelian Subgroup              C1    NOp =  1
 Nuclear Repulsion Energy =   870.4192539123 hartrees
 There are       51 alpha and       51 beta electrons
 Applying Cartesian multipole field
    Component          Value
    ---------          -----
     (2,0,0)        1.00000E-11
     (0,2,0)        2.00000E-11
     (0,0,2)       -3.00000E-10
 Nucleus-field energy     =     0.0000000064 hartrees
 Requested basis set is STO-3G
 There are 38 shells and 80 basis functions
 A cutoff of  1.0D-12 yielded    629 shell pairs
 There are      3146 function pairs
 Smallest overlap matrix eigenvalue = 1.81E-01
 Guess MOs from SCF MO coefficient file
 Reading MOs from coefficient file
 Reading MOs from coefficient file
 A restricted hybrid HF-DFT SCF calculation will be
 performed using Pulay DIIS extrapolation
 Exchange:     0.2000 Hartree-Fock + 0.0800 Slater + 0.7200 B88
 Correlation:  0.1900 VWN1RPA + 0.8100 LYP
 Using SG-1 standard quadrature grid
 Dispersion:   Grimme D3
 SCF converges when DIIS error is below 1.0E-08
 Geometry optimization detected.  Setting ReadMinima to 0
 Setting SaveMinima to 0
 -------------------------------------------------------
 OpenMP Integral computing Module                
 Release: version 1.0, May 2013, Q-Chem Inc. Pittsburgh 
 -------------------------------------------------------
 -------------------------------------------------------
 OpenMP BLAS3 based DFT computing Module                
 Release: version 1.0, May 2013, Q-Chem Inc. Pittsburgh 
 -------------------------------------------------------
 ---------------------------------------
  Cycle       Energy         DIIS Error
 ---------------------------------------
    1    -679.0975209335      4.42E-04
    2    -679.0970135884      4.68E-05
    3    -679.0970069996      9.74E-05
    4    -679.0970162778      1.57E-05
    5    -679.0970164532      7.50E-06
    6    -679.0970165056      2.02E-06
    7    -679.0970165099      4.70E-07
    8    -679.0970165102      1.86E-07
    9    -679.0970165102      1.02E-07
   10    -679.0970165102      2.52E-08
   11    -679.0970165102      6.76E-09 Convergence criterion met
 ---------------------------------------
 SCF time:  CPU 34.86 s  wall 1.47 s
 SCF   energy in the final basis set = -679.0970165102
 Total energy in the final basis set = -679.0970165102
 
 --------------------------------------------------------------
 
                    Orbital Energies (a.u.)
 --------------------------------------------------------------
 
 Alpha MOs
 -- Occupied --
-18.938 -18.933 -18.876 -18.875 -10.106 -10.103 -10.067 -10.061
-10.032 -10.032 -10.021 -10.021 -10.021 -10.020  -1.013  -1.006
 -0.938  -0.933  -0.816  -0.724  -0.717  -0.666  -0.658  -0.589
 -0.577  -0.523  -0.496  -0.463  -0.443  -0.420  -0.417  -0.412
 -0.405  -0.399  -0.375  -0.367  -0.357  -0.349  -0.334  -0.319
 -0.316  -0.304  -0.292  -0.260  -0.253  -0.204  -0.200  -0.181
 -0.172  -0.156  -0.152
 -- Virtual --
  0.041   0.065   0.116   0.132   0.235   0.247   0.271   0.316
  0.337   0.351   0.376   0.390   0.417   0.421   0.427   0.429
  0.434   0.436   0.440   0.444   0.449   0.535   0.546   0.566
  0.577   0.644   0.648   0.745   0.772
 --------------------------------------------------------------
 
          Ground-State Mulliken Net Atomic Charges

     Atom                 Charge (a.u.)
  ----------------------------------------
      1 C                    -0.014245
      2 C                    -0.010974
      3 C                     0.209888
      4 C                     0.213645
      5 O                    -0.166848
      6 O                    -0.209383
      7 O                    -0.165437
      8 O                    -0.206481
      9 C                    -0.127716
     10 C                    -0.127828
     11 C                    -0.071411
     12 C                    -0.074535
     13 C                    -0.072598
     14 C                    -0.071921
     15 H                     0.093521
     16 H                     0.089165
     17 H                     0.085584
     18 H                     0.087930
     19 H                     0.089873
     20 H                     0.091262
     21 H                     0.091147
     22 H                     0.085096
     23 H                     0.088948
     24 H                     0.093319
  ----------------------------------------
  Sum of atomic charges =    -0.000000

 -----------------------------------------------------------------
                    Cartesian Multipole Moments
 -----------------------------------------------------------------
    Charge (ESU x 10^10)
                -0.0000
    Dipole Moment (Debye)
         X       0.8056      Y      -0.9933      Z       1.0921
       Tot       1.6818
    Quadrupole Moments (Debye-Ang)
        XX     -64.7744     XY       2.4475     YY     -67.5871
        XZ      -1.5186     YZ       4.2155     ZZ     -77.0485
    Octopole Moments (Debye-Ang^2)
       XXX      30.2972    XXY      -7.9575    XYY       5.3842
       YYY      22.8339    XXZ       3.8284    XYZ      -0.4601
       YYZ       9.0689    XZZ      10.1662    YZZ       6.5443
       ZZZ      -8.9813
    Hexadecapole Moments (Debye-Ang^3)
      XXXX   -1460.5305   XXXY     -52.8356   XXYY    -525.8214
      XYYY      -8.0996   YYYY   -1475.4949   XXXZ      -2.2580
      XXYZ       8.4330   XYYZ     -12.0465   YYYZ      19.8226
      XXZZ    -309.7373   XYZZ     -15.5046   YYZZ    -304.3216
      XZZZ      -1.6980   YZZZ      -1.6857   ZZZZ    -167.4871
 -----------------------------------------------------------------
 Calculating analytic gradient of the SCF energy
 Gradient of SCF Energy
            1           2           3           4           5           6
    1  -0.0000832   0.0000412   0.0001871  -0.0000487  -0.0003404   0.0000455
    2  -0.0002115   0.0002504  -0.0004372  -0.0000741   0.0001303   0.0000517
    3  -0.0004933   0.0013760  -0.0003159  -0.0005788   0.0006244  -0.0003405
            7           8           9          10          11          12
    1   0.0000063  -0.0000867   0.0002522   0.0005570   0.0000205  -0.0001011
    2  -0.0000141  -0.0000086   0.0004135   0.0000845  -0.0000798  -0.0000113
    3   0.0004674   0.0000622   0.0000339   0.0000123  -0.0002725  -0.0000712
           13          14          15          16          17          18
    1   0.0000087  -0.0001614  -0.0001229  -0.0000115   0.0000047  -0.0000117
    2  -0.0000427  -0.0000486   0.0000029   0.0000086  -0.0000627   0.0000305
    3  -0.0000258  -0.0003266  -0.0000800  -0.0000159   0.0000205   0.0000588
           19          20          21          22          23          24
    1   0.0000137  -0.0000864  -0.0000509  -0.0000514   0.0000234  -0.0000040
    2  -0.0000513   0.0000236   0.0000431  -0.0000118  -0.0000051   0.0000198
    3  -0.0000953  -0.0000029  -0.0000275   0.0000374  -0.0000763   0.0000295
 Max gradient component =       1.376E-03
 RMS gradient           =       2.541E-04
 Gradient time:  CPU 9.42 s  wall 0.40 s
 Geometry Optimization Parameters
   NAtoms,    NIC,     NZ,  NCons,   NDum,   NFix, NCnnct, MaxDiis
       24     152       0       2       0       0       0       0

 Cartesian Hessian Update
 Hessian Updated using BFGS Update


** CONSTRAINED OPTIMIZATION IN DELOCALIZED INTERNAL COORDINATES **
   Searching for a Minimum

   Optimization Cycle:   5

                       Coordinates (Angstroms)
     ATOM                X               Y               Z
      1  C        -0.0523043516   -0.9259401837   -0.0370226016
      2  C        -1.1653665518   -0.0387358751   -0.0373853660
      3  C         1.3637418276   -0.3730530026   -0.2638270865
      4  C        -0.9753555803    1.4883261537   -0.1674304055
      5  O         2.3214052169   -1.2566126433    0.3322734290
      6  O         1.6659963751    0.6704914521   -0.8901608768
      7  O        -0.0797789389    1.9321010752    0.8597788320
      8  O        -1.5405312211    2.2469543163   -0.9872199385
      9  C         0.1634272967    3.3867117675    0.7183707071
     10  C         3.6914862867   -0.7477608054    0.0903720233
     11  C        -0.2696194152   -2.3190253543    0.0886817635
     12  C        -1.5770319246   -2.8299131845    0.2014574266
     13  C        -2.6809388789   -1.9525088079    0.1768806115
     14  C        -2.4750681147   -0.5639840320    0.0547702824
     15  H         0.6024952913    3.6278089400   -0.2710375938
     16  H         3.9346192773   -0.7284109036   -0.9918576175
     17  H        -3.7021556610   -2.3504108844    0.2535475933
     18  H        -0.7710622237    3.9713369000    0.8438006961
     19  H         0.8783960707    3.6546639792    1.5176066678
     20  H         4.3713387873   -1.4471096751    0.6105329051
     21  H         3.8236713267    0.2748187701    0.4989204615
     22  H        -1.7366480360   -3.9125369955    0.2978654266
     23  H        -3.3319498215    0.1236815605    0.0360928464
     24  H         0.5970679136   -2.9941350456    0.0886174123
   Point Group: c1    Number of degrees of freedom:    66


   Energy is   -679.097016510

              Constraints and their Current Values
                                        Value     Constraint
   Dihedral:        2   1   3   5      155.000      155.000
   Dihedral:        1   2   4   7      -55.000      -55.000
 Hessian Updated using BFGS Update

 61 Hessian modes will be used to form the next step
  Hessian Eigenvalues:
     0.020015    0.044135    0.045000    0.045000    0.045001    0.045002
     0.045003    0.045005    0.045012    0.045018    0.045069    0.045111
     0.045410    0.047600    0.113874    0.114773    0.116855    0.116916
     0.159050    0.159618    0.159985    0.159996    0.160000    0.160554
     0.161870    0.164003    0.219980    0.226933    0.234074    0.243756
     0.247470    0.249136    0.249784    0.249972    0.250063    0.268797
     0.306689    0.342729    0.342869    0.342912    0.343525    0.344126
     0.345276    0.348392    0.349350    0.349914    0.350198    0.353587
     0.372953    0.412983    0.413088    0.422204    0.446426    0.456693
     0.461765    0.469489    0.484198    0.505207    0.534919    0.956557
     1.004750

 Minimum Search - Taking Simple RFO Step
 Searching for Lamda that Minimizes Along All modes
 Value Taken    Lamda =  -0.00003066
 Step Taken.  Stepsize is  0.036116

                             Maximum     Tolerance    Cnvgd?
         Gradient           0.000734      0.000300      NO
         Displacement       0.012475      0.001200      NO
         Energy change     -0.000034      0.000001      NO


 New Cartesian Coordinates Obtained by Inverse Iteration

 Displacement from previous Coordinates is:  0.073056
 Adding empirical dispersion correction 
 ----------------------------------------------------------------
 Doing -D3(op) with
 s6 =   1.00000
 s8 =   0.78311
 a1 =   0.30000
 a2 =   4.25000
 n  =  10.00000
 -D3 energy without 3body term =     -0.0235047512 hartrees
 ----------------------------------------------------------------
             Standard Nuclear Orientation (Angstroms)
    I     Atom           X                Y                Z
 ----------------------------------------------------------------
    1      C      -0.0538249494    -0.9231093771    -0.0465054821
    2      C      -1.1680175845    -0.0380272106    -0.0459372653
    3      C       1.3616622945    -0.3685669394    -0.2676458058
    4      C      -0.9774268489     1.4883983734    -0.1731000002
    5      O       2.3173562595    -1.2552430568     0.3281964333
    6      O       1.6667557718     0.6787903795    -0.8851811587
    7      O      -0.0823870375     1.9270133144     0.8564956813
    8      O      -1.5380632870     2.2497261789    -0.9929612366
    9      C       0.1659834550     3.3805008315     0.7180962219
   10      C       3.6878072177    -0.7466374193     0.0919995430
   11      C      -0.2685368262    -2.3161047123     0.0846250660
   12      C      -1.5747123760    -2.8288719768     0.2028178734
   13      C      -2.6799153787    -1.9529282751     0.1813459658
   14      C      -2.4762916958    -0.5643338685     0.0558946634
   15      H       0.6163220682     3.6207792459    -0.2664273810
   16      H       3.9337583777    -0.7226213263    -0.9894750918
   17      H      -3.7004406406    -2.3512515625     0.2642704696
   18      H      -0.7678641744     3.9677979717     0.8348765178
   19      H       0.8738000657     3.6462311967     1.5245575008
   20      H       4.3661178659    -1.4491429455     0.6101727212
   21      H       3.8207354177     0.2735338375     0.5062060973
   22      H      -1.7319461325    -3.9115060733     0.3025634804
   23      H      -3.3343479807     0.1220588786     0.0432695135
   24      H       0.5993110689    -2.9897279428     0.0854732710
 ----------------------------------------------------------------
 Molecular Point Group                 C1    NOp =  1
 Largest Abelian Subgroup              C1    NOp =  1
 Nuclear Repulsion Energy =   870.8319707997 hartrees
 There are       51 alpha and       51 beta electrons
 Applying Cartesian multipole field
    Component          Value
    ---------          -----
     (2,0,0)        1.00000E-11
     (0,2,0)        2.00000E-11
     (0,0,2)       -3.00000E-10
 Nucleus-field energy     =     0.0000000064 hartrees
 Requested basis set is STO-3G
 There are 38 shells and 80 basis functions
 A cutoff of  1.0D-12 yielded    629 shell pairs
 There are      3146 function pairs
 Smallest overlap matrix eigenvalue = 1.81E-01
 Guess MOs from SCF MO coefficient file
 Reading MOs from coefficient file
 Reading MOs from coefficient file
 A restricted hybrid HF-DFT SCF calculation will be
 performed using Pulay DIIS extrapolation
 Exchange:     0.2000 Hartree-Fock + 0.0800 Slater + 0.7200 B88
 Correlation:  0.1900 VWN1RPA + 0.8100 LYP
 Using SG-1 standard quadrature grid
 Dispersion:   Grimme D3
 SCF converges when DIIS error is below 1.0E-08
 Geometry optimization detected.  Setting ReadMinima to 0
 Setting SaveMinima to 0
 -------------------------------------------------------
 OpenMP Integral computing Module                
 Release: version 1.0, May 2013, Q-Chem Inc. Pittsburgh 
 -------------------------------------------------------
 -------------------------------------------------------
 OpenMP BLAS3 based DFT computing Module                
 Release: version 1.0, May 2013, Q-Chem Inc. Pittsburgh 
 -------------------------------------------------------
 ---------------------------------------
  Cycle       Energy         DIIS Error
 ---------------------------------------
    1    -679.0980313751      5.21E-04
    2    -679.0970336414      3.89E-05
    3    -679.0970323564      6.17E-05
    4    -679.0970360340      1.57E-05
    5    -679.0970361394      1.15E-05
    6    -679.0970362686      1.02E-06
    7    -679.0970362695      5.46E-07
    8    -679.0970362698      1.61E-07
    9    -679.0970362698      1.09E-07
   10    -679.0970362698      1.66E-08
   11    -679.0970362698      5.57E-09 Convergence criterion met
 ---------------------------------------
 SCF time:  CPU 34.39 s  wall 1.45 s
 SCF   energy in the final basis set = -679.0970362698
 Total energy in the final basis set = -679.0970362698
 
 --------------------------------------------------------------
 
                    Orbital Energies (a.u.)
 --------------------------------------------------------------
 
 Alpha MOs
 -- Occupied --
-18.938 -18.933 -18.877 -18.875 -10.106 -10.103 -10.066 -10.061
-10.032 -10.032 -10.021 -10.021 -10.021 -10.020  -1.014  -1.006
 -0.938  -0.933  -0.816  -0.724  -0.717  -0.666  -0.657  -0.589
 -0.577  -0.523  -0.496  -0.463  -0.443  -0.420  -0.417  -0.412
 -0.405  -0.399  -0.375  -0.367  -0.357  -0.349  -0.334  -0.319
 -0.317  -0.304  -0.292  -0.260  -0.253  -0.204  -0.200  -0.181
 -0.172  -0.156  -0.152
 -- Virtual --
  0.041   0.065   0.116   0.132   0.236   0.248   0.271   0.317
  0.337   0.351   0.376   0.390   0.417   0.421   0.427   0.429
  0.434   0.436   0.440   0.444   0.449   0.535   0.547   0.566
  0.577   0.645   0.648   0.745   0.772
 --------------------------------------------------------------
 
          Ground-State Mulliken Net Atomic Charges

     Atom                 Charge (a.u.)
  ----------------------------------------
      1 C                    -0.014289
      2 C                    -0.010998
      3 C                     0.210052
      4 C                     0.213858
      5 O                    -0.167024
      6 O                    -0.209422
      7 O                    -0.165523
      8 O                    -0.206444
      9 C                    -0.127680
     10 C                    -0.127791
     11 C                    -0.071283
     12 C                    -0.074570
     13 C                    -0.072526
     14 C                    -0.071935
     15 H                     0.093478
     16 H                     0.089068
     17 H                     0.085603
     18 H                     0.087993
     19 H                     0.089782
     20 H                     0.091147
     21 H                     0.091072
     22 H                     0.085120
     23 H                     0.088877
     24 H                     0.093432
  ----------------------------------------
  Sum of atomic charges =    -0.000000

 -----------------------------------------------------------------
                    Cartesian Multipole Moments
 -----------------------------------------------------------------
    Charge (ESU x 10^10)
                -0.0000
    Dipole Moment (Debye)
[...]
 C         -0.093 -0.001  0.007    0.022 -0.002  0.002   -0.006 -0.034 -0.043
 C         -0.010 -0.019  0.003    0.019 -0.082  0.008   -0.002 -0.001  0.000
 C         -0.009  0.007 -0.000   -0.133 -0.007  0.005    0.001  0.001 -0.000
 C          0.005  0.015 -0.002    0.012  0.131 -0.013    0.001  0.000 -0.000
 C          0.002 -0.016  0.002    0.063 -0.042  0.003   -0.001 -0.002  0.000
 H          0.015  0.079  0.029    0.060  0.255  0.099    0.048  0.057  0.048
 H          0.511 -0.071  0.115   -0.108  0.044 -0.023   -0.339  0.323 -0.091
 H          0.022 -0.026  0.002    0.214 -0.435  0.038   -0.000  0.004 -0.000
 H          0.049  0.064 -0.000    0.175  0.230  0.040   -0.027 -0.034 -0.070
 H          0.014  0.083 -0.033    0.023  0.309 -0.106    0.102 -0.029 -0.061
 H          0.541  0.275 -0.248   -0.129 -0.074  0.052    0.021  0.399  0.586
 H          0.468 -0.126 -0.019   -0.105  0.043 -0.030    0.415 -0.199  0.157
 H          0.074 -0.008 -0.002    0.526 -0.141 -0.005    0.002  0.001  0.000
 H          0.043  0.027 -0.003    0.035 -0.097  0.009    0.006  0.007 -0.001
 H          0.061  0.060 -0.012    0.197  0.100 -0.020    0.006  0.008 -0.001
 TransDip   0.134  0.048 -0.018    0.033  0.086  0.013    0.020  0.054  0.067

 Mode:                49                     50                     51
 Frequency:      1485.54                1497.04                1497.63
 Force Cnst:      1.3597                 1.3818                 1.3844
 Red. Mass:       1.0458                 1.0465                 1.0476
 IR Active:          YES                    YES                    YES
 IR Intens:       11.301                 16.498                  3.607
 Raman Active:       YES                    YES                    YES
               X      Y      Z        X      Y      Z        X      Y      Z
 C          0.001 -0.004  0.000   -0.003  0.003 -0.000    0.001  0.004 -0.001
 C          0.004  0.003 -0.001    0.001 -0.005  0.000   -0.002 -0.003  0.000
 C         -0.002  0.001  0.000   -0.002  0.000 -0.001   -0.005  0.004 -0.003
 C          0.000  0.002  0.002   -0.002  0.003 -0.001    0.003  0.001  0.002
 O          0.001  0.001  0.002    0.002  0.009 -0.006    0.003  0.011 -0.008
 O          0.000  0.000 -0.000    0.001 -0.003  0.002    0.001 -0.006  0.004
 O         -0.010 -0.002  0.008   -0.009  0.003 -0.011    0.006 -0.003  0.008
 O         -0.000 -0.000 -0.001    0.004 -0.002  0.004   -0.003  0.001 -0.004
 C         -0.043  0.002  0.034   -0.025  0.015 -0.030    0.017 -0.013  0.024
 C          0.003  0.005  0.008    0.008  0.026 -0.019    0.012  0.033 -0.027
 C         -0.003  0.001  0.000    0.004  0.003 -0.000    0.003 -0.000 -0.000
 C          0.006  0.001 -0.000   -0.001 -0.003  0.000   -0.005 -0.002  0.000
 C          0.000 -0.004  0.000   -0.002  0.002 -0.000    0.000  0.004 -0.000
 C         -0.004 -0.000  0.000    0.003  0.003 -0.000    0.002 -0.000  0.000
 H          0.219  0.359  0.244    0.431 -0.252  0.233   -0.321  0.206 -0.168
 H          0.052 -0.043  0.014   -0.142 -0.380 -0.031   -0.203 -0.491 -0.045
 H         -0.008  0.018 -0.002    0.002 -0.012  0.001    0.007 -0.015  0.001
 H         -0.134 -0.170 -0.457   -0.166 -0.192  0.414    0.127  0.146 -0.324
 H          0.568 -0.202 -0.331    0.132  0.224 -0.162   -0.085 -0.168  0.112
 H         -0.020 -0.078 -0.096    0.133  0.088 -0.038    0.170  0.125 -0.030
 H         -0.080  0.041 -0.039   -0.103 -0.122  0.380   -0.129 -0.165  0.507
 H         -0.017  0.006 -0.000   -0.002 -0.003  0.000    0.012 -0.005  0.000
 H          0.004  0.009 -0.001   -0.012 -0.014  0.002   -0.002 -0.006  0.000
 H         -0.002  0.004 -0.000   -0.011 -0.015  0.001   -0.003 -0.009 -0.000
 TransDip   0.053 -0.038 -0.086    0.098 -0.023  0.083    0.020 -0.057 -0.003

 Mode:                52                     53                     54
 Frequency:      1515.98                1612.93                1636.64
 Force Cnst:      3.5845                 9.7179                 9.0410
 Red. Mass:       2.6473                 6.3400                 5.7288
 IR Active:          YES                    YES                    YES
 IR Intens:       12.989                 12.527                  6.433
 Raman Active:       YES                    YES                    YES
               X      Y      Z        X      Y      Z        X      Y      Z
 C          0.179 -0.051 -0.004    0.182 -0.238  0.019    0.097  0.188 -0.028
 C         -0.049  0.174 -0.012   -0.262  0.133 -0.008   -0.170 -0.149  0.014
 C         -0.058  0.017 -0.000   -0.047 -0.005  0.021    0.002  0.009 -0.013
 C         -0.015 -0.039 -0.029    0.006  0.003 -0.033    0.024  0.029  0.004
 O          0.003 -0.002  0.001   -0.005 -0.002 -0.000    0.001  0.003 -0.001
 O          0.005 -0.005  0.001    0.016  0.020 -0.017   -0.011 -0.022  0.015
 O          0.004  0.009  0.004    0.001  0.006  0.003   -0.001  0.001 -0.000
 O          0.009 -0.011  0.016    0.009 -0.020  0.023   -0.005 -0.002 -0.001
 C          0.005  0.015  0.001    0.000  0.002  0.002   -0.001 -0.003 -0.001
 C          0.015  0.004 -0.002    0.004  0.000 -0.001    0.002 -0.000  0.001
 C         -0.121 -0.118  0.017   -0.110  0.112 -0.008   -0.233 -0.236  0.034
 C         -0.015  0.090 -0.009    0.318 -0.160  0.006    0.200  0.097 -0.015
 C          0.089 -0.046  0.002   -0.204  0.289 -0.025   -0.068 -0.212  0.025
 C         -0.114 -0.116  0.013    0.133 -0.086  0.007    0.214  0.269 -0.032
 H          0.000 -0.090 -0.020   -0.011 -0.022 -0.009   -0.003  0.005  0.001
 H         -0.060 -0.039 -0.015    0.003 -0.008 -0.002   -0.014 -0.002 -0.002
 H         -0.020  0.326 -0.033    0.035 -0.466  0.048   -0.223  0.185 -0.020
 H         -0.050 -0.061  0.022   -0.006 -0.003 -0.000    0.008  0.011  0.003
 H         -0.009 -0.053  0.026   -0.006 -0.009  0.008   -0.005  0.006 -0.001
 H         -0.043 -0.033  0.008    0.003 -0.003 -0.002    0.001 -0.000  0.002
 H         -0.070  0.008  0.035   -0.007 -0.000  0.006   -0.005  0.001  0.003
 H          0.200  0.068 -0.014   -0.466 -0.023  0.020   -0.212  0.194 -0.018
 H          0.378  0.447 -0.043    0.069 -0.186  0.014   -0.323 -0.331  0.033
 H          0.357  0.435 -0.063   -0.185  0.053  0.007    0.262  0.342 -0.054
 TransDip  -0.107 -0.002 -0.042   -0.108 -0.033 -0.006   -0.056  0.059 -0.002

 Mode:                55                     56                     57
 Frequency:      1772.18                1783.53                3050.32
 Force Cnst:     21.8467                22.2891                 5.6434
 Red. Mass:      11.8064                11.8928                 1.0294
 IR Active:          YES                    YES                    YES
 IR Intens:      251.766                300.776                 25.030
 Raman Active:       YES                    YES                    YES
               X      Y      Z        X      Y      Z        X      Y      Z
 C         -0.049 -0.090  0.026    0.021  0.003 -0.003    0.000 -0.000  0.000
 C         -0.008  0.033 -0.006   -0.030  0.085 -0.022   -0.000 -0.000 -0.000
 C          0.248  0.635 -0.395   -0.019 -0.022  0.016   -0.001  0.002 -0.001
 C          0.028 -0.007  0.024    0.336 -0.501  0.510    0.001  0.000  0.001
 O         -0.003 -0.045  0.028    0.002  0.002 -0.001    0.002 -0.000  0.000
 O         -0.138 -0.404  0.260    0.006  0.016 -0.012   -0.000 -0.001  0.000
 O         -0.009 -0.002 -0.004   -0.031  0.017 -0.040   -0.001 -0.002 -0.000
 O         -0.010  0.007 -0.012   -0.222  0.303 -0.340   -0.000  0.000 -0.000
 C         -0.001 -0.001 -0.002   -0.002 -0.031  0.006   -0.005 -0.026  0.009
 C          0.029  0.013 -0.010   -0.002 -0.001  0.001    0.028  0.013 -0.012
 C         -0.015  0.019  0.001   -0.009 -0.010  0.003    0.000 -0.000  0.000
 C          0.025 -0.009 -0.001    0.012 -0.002 -0.000    0.000  0.000 -0.000
 C         -0.009  0.015 -0.001   -0.014  0.006  0.002   -0.000 -0.000  0.000
 C          0.006 -0.015  0.001    0.017 -0.007  0.004    0.000 -0.000  0.000
 H          0.013 -0.025  0.003    0.052  0.101  0.088    0.230  0.055 -0.345
 H         -0.128  0.048 -0.059    0.006 -0.002  0.004   -0.086  0.012  0.489
 H          0.002 -0.019  0.004    0.001 -0.037  0.005    0.000 -0.000  0.000
 H          0.002 -0.004  0.021    0.105  0.086  0.078   -0.328  0.227 -0.006
 H         -0.003  0.012 -0.003    0.017  0.227 -0.056    0.157  0.050  0.237
 H         -0.210 -0.097  0.071    0.009  0.004 -0.004   -0.172  0.243 -0.159
 H         -0.127  0.076 -0.017    0.004 -0.003  0.000   -0.100 -0.421 -0.180
 H         -0.028 -0.000 -0.000   -0.011  0.002 -0.004   -0.000 -0.001  0.000
 H          0.035  0.018 -0.005   -0.003 -0.049 -0.013    0.000 -0.000 -0.000
 H         -0.048 -0.004  0.004    0.004  0.006  0.003   -0.002  0.001 -0.000
 TransDip   0.126  0.427 -0.245    0.252 -0.293  0.399    0.111 -0.112 -0.029

 Mode:                58                     59                     60
 Frequency:      3050.55                3123.31                3126.02
 Force Cnst:      5.6444                 6.3628                 6.3747
 Red. Mass:       1.0295                 1.1071                 1.1072
 IR Active:          YES                    YES                    YES
 IR Intens:       44.482                 17.314                 14.452
 Raman Active:       YES                    YES                    YES
               X      Y      Z        X      Y      Z        X      Y      Z
 C          0.000 -0.000  0.000    0.000 -0.000 -0.000    0.000  0.000 -0.000
 C          0.000  0.000  0.000    0.000  0.000  0.000   -0.000  0.000  0.000
 C         -0.001  0.001 -0.001    0.000  0.000  0.000   -0.000 -0.000  0.000
 C         -0.001 -0.000 -0.002   -0.000 -0.000 -0.000    0.000  0.000 -0.000
 O          0.002 -0.000  0.000   -0.000  0.000  0.000   -0.000  0.000 -0.000
 O         -0.000 -0.000  0.000    0.000  0.000  0.000    0.000  0.000 -0.000
 O          0.001  0.002  0.000    0.000  0.000  0.000    0.000 -0.000 -0.000
 O          0.000 -0.000  0.001    0.000  0.000  0.000    0.000 -0.000 -0.000
 C          0.005  0.031 -0.011    0.001 -0.000 -0.000   -0.078  0.026  0.048
 C          0.024  0.011 -0.010   -0.004 -0.052 -0.080   -0.000 -0.000 -0.001
 C          0.000 -0.000  0.000   -0.000  0.000  0.000   -0.000 -0.000 -0.000
 C          0.000  0.000 -0.000    0.000 -0.000  0.000    0.000  0.000 -0.000
 C          0.000  0.000 -0.000   -0.000  0.000 -0.000   -0.000  0.000 -0.000
 C          0.000 -0.000 -0.000   -0.000 -0.000  0.000    0.000 -0.000 -0.000
 H         -0.272 -0.065  0.407   -0.004 -0.001  0.006    0.369  0.098 -0.582
 H         -0.073  0.010  0.415   -0.118 -0.001  0.682   -0.002  0.000  0.009
 H         -0.001 -0.000  0.000    0.000  0.000 -0.000    0.000  0.000  0.000
 H          0.386 -0.268  0.007   -0.008  0.005 -0.000    0.583 -0.406  0.028
 H         -0.184 -0.059 -0.279   -0.001 -0.000 -0.001   -0.032 -0.001 -0.017
 H         -0.146  0.206 -0.135    0.017 -0.035  0.001    0.001 -0.002  0.001
 H         -0.085 -0.357 -0.153    0.151  0.649  0.256    0.002  0.007  0.003
 H         -0.000 -0.001  0.000    0.000  0.000 -0.000   -0.000 -0.000  0.000
 H         -0.001  0.000  0.000   -0.000  0.000 -0.000   -0.000  0.000  0.000
 H         -0.001  0.000 -0.000    0.001 -0.000 -0.000    0.000 -0.000 -0.000
 TransDip   0.163  0.138  0.008   -0.008 -0.070 -0.113   -0.090  0.047  0.067

 Mode:                61                     62                     63
 Frequency:      3157.75                3157.90                3172.98
 Force Cnst:      6.4994                 6.4999                 6.4463
 Red. Mass:       1.1063                 1.1063                 1.0867
 IR Active:          YES                    YES                    YES
 IR Intens:       13.563                 13.202                  1.603
 Raman Active:       YES                    YES                    YES
               X      Y      Z        X      Y      Z        X      Y      Z
 C          0.000  0.000 -0.000    0.000 -0.000 -0.000    0.000  0.000 -0.000
 C         -0.000 -0.000 -0.000    0.000 -0.000  0.000   -0.000 -0.000  0.000
 C         -0.001 -0.001  0.000   -0.000  0.000 -0.000   -0.000 -0.000  0.000
 C         -0.000  0.000 -0.000   -0.000  0.001 -0.000    0.000 -0.000  0.000
 O         -0.000  0.000 -0.000    0.000 -0.000  0.000    0.000  0.000 -0.000
 O          0.000  0.000 -0.000    0.000 -0.000  0.000    0.000  0.000 -0.000
 O          0.000 -0.000 -0.000    0.000 -0.000  0.000   -0.000 -0.000 -0.000
 O          0.000 -0.000  0.000    0.000 -0.000  0.000   -0.000  0.000 -0.000
 C         -0.000  0.000  0.000   -0.049  0.005 -0.081    0.000  0.000  0.000
 C          0.028 -0.076  0.048   -0.000 -0.000 -0.000   -0.000  0.000 -0.000
 C          0.000 -0.000  0.000    0.000 -0.000  0.000    0.008 -0.009  0.000
 C          0.000  0.000 -0.000    0.000  0.000 -0.000    0.012  0.055 -0.006
 C         -0.000 -0.000  0.000   -0.000 -0.000  0.000   -0.055 -0.019  0.003
 C          0.000 -0.000  0.000    0.000 -0.000  0.000    0.017 -0.013  0.001
 H          0.001  0.000 -0.001   -0.172 -0.035  0.231    0.000 -0.000 -0.000
 H          0.053 -0.022 -0.282   -0.000  0.000  0.001   -0.000  0.000  0.001
 H          0.001  0.000 -0.000    0.002  0.001 -0.000    0.649  0.218 -0.039
 H          0.001 -0.001  0.000    0.265 -0.185 -0.010   -0.001  0.000  0.000
 H         -0.001 -0.000 -0.001    0.486  0.153  0.737   -0.001 -0.000 -0.002
 H         -0.457  0.646 -0.423   -0.000  0.000 -0.000    0.002 -0.003  0.002
 H          0.073  0.283  0.136    0.000  0.002  0.001   -0.000 -0.001 -0.000
 H         -0.001 -0.004  0.000   -0.000 -0.000  0.000   -0.126 -0.645  0.069
 H         -0.001  0.000 -0.000   -0.001  0.001 -0.000   -0.192  0.166 -0.013
 H         -0.003  0.003 -0.000   -0.000  0.000 -0.000   -0.109  0.096 -0.004
 TransDip   0.061 -0.085  0.054   -0.065 -0.019 -0.094   -0.029  0.028 -0.005

 Mode:                64                     65                     66
 Frequency:      3186.68                3198.25                3211.14
 Force Cnst:      6.5298                 6.5997                 6.6432
 Red. Mass:       1.0914                 1.0951                 1.0935
 IR Active:          YES                    YES                    YES
 IR Intens:        8.568                  7.549                  3.522
 Raman Active:       YES                    YES                    YES
               X      Y      Z        X      Y      Z        X      Y      Z
 C         -0.000  0.000  0.000    0.000 -0.001  0.000   -0.001 -0.003  0.000
 C         -0.001 -0.001  0.000    0.003  0.001 -0.000    0.000 -0.001  0.000
 C         -0.000  0.000 -0.000    0.000  0.000 -0.000   -0.001  0.001 -0.000
 C          0.000 -0.000  0.000   -0.000  0.001 -0.000    0.000 -0.000  0.000
 O         -0.000 -0.000  0.000   -0.000 -0.000  0.000   -0.000 -0.000  0.000
 O          0.000 -0.000  0.000   -0.000 -0.000  0.000    0.000 -0.000 -0.000
 O         -0.000  0.000 -0.000   -0.000 -0.000 -0.000    0.000  0.000  0.000
 O         -0.000  0.000 -0.000    0.000 -0.000  0.000   -0.000  0.000 -0.000
 C          0.000  0.000  0.000   -0.000  0.000 -0.000   -0.000 -0.000 -0.000
 C          0.000 -0.000  0.000    0.000 -0.000  0.000    0.000 -0.000  0.000
 C         -0.011  0.013 -0.001   -0.011  0.010 -0.001   -0.064  0.054 -0.002
 C         -0.009 -0.058  0.006   -0.001 -0.017  0.002    0.007  0.025 -0.003
 C         -0.043 -0.011  0.002   -0.043 -0.017  0.003    0.009  0.002 -0.000
 C          0.034 -0.027  0.002   -0.053  0.049 -0.004    0.005 -0.005  0.000
 H          0.000  0.000 -0.000   -0.000 -0.000  0.000    0.000  0.000  0.000
 H         -0.000 -0.000 -0.000   -0.000 -0.000  0.000    0.000 -0.000 -0.000
 H          0.474  0.153 -0.028    0.484  0.164 -0.029   -0.094 -0.030  0.005
 H         -0.000  0.000  0.000    0.001 -0.001 -0.000   -0.000  0.000 -0.000
 H         -0.001 -0.000 -0.001    0.000 -0.000  0.000    0.000  0.000  0.001
 H         -0.001  0.002 -0.001   -0.001  0.001 -0.001   -0.002  0.002 -0.002
 H         -0.000 -0.000 -0.000   -0.000 -0.000 -0.000   -0.000 -0.000 -0.000
 H          0.123  0.651 -0.070    0.031  0.176 -0.019   -0.055 -0.271  0.029
 H         -0.381  0.332 -0.026    0.612 -0.540  0.042   -0.059  0.053 -0.004
 H          0.156 -0.138  0.006    0.133 -0.116  0.005    0.720 -0.616  0.028
 TransDip  -0.045 -0.082  0.009   -0.086 -0.019  0.007    0.010  0.059 -0.003

 STANDARD THERMODYNAMIC QUANTITIES AT   298.15 K  AND     1.00 ATM

   This Molecule has  0 Imaginary Frequencies
   Zero point vibrational energy:      116.220 kcal/mol

   Atom    1 Element C  Has Mass   12.00000
   Atom    2 Element C  Has Mass   12.00000
   Atom    3 Element C  Has Mass   12.00000
   Atom    4 Element C  Has Mass   12.00000
   Atom    5 Element O  Has Mass   15.99491
   Atom    6 Element O  Has Mass   15.99491
   Atom    7 Element O  Has Mass   15.99491
   Atom    8 Element O  Has Mass   15.99491
   Atom    9 Element C  Has Mass   12.00000
   Atom   10 Element C  Has Mass   12.00000
   Atom   11 Element C  Has Mass   12.00000
   Atom   12 Element C  Has Mass   12.00000
   Atom   13 Element C  Has Mass   12.00000
   Atom   14 Element C  Has Mass   12.00000
   Atom   15 Element H  Has Mass    1.00783
   Atom   16 Element H  Has Mass    1.00783
   Atom   17 Element H  Has Mass    1.00783
   Atom   18 Element H  Has Mass    1.00783
   Atom   19 Element H  Has Mass    1.00783
   Atom   20 Element H  Has Mass    1.00783
   Atom   21 Element H  Has Mass    1.00783
   Atom   22 Element H  Has Mass    1.00783
   Atom   23 Element H  Has Mass    1.00783
   Atom   24 Element H  Has Mass    1.00783
   Molecular Mass:   194.057940 amu
   Principal axes and moments of inertia in amu*Bohr^2:
                             1           2           3
    Eigenvalues --     2397.94531  2463.69331  4478.60754
          X               0.96224     0.27221    -0.00047
          Y              -0.27220     0.96219     0.00989
          Z               0.00315    -0.00939     0.99995
   Rotational Symmetry Number is   1
   The Molecule is an Asymmetric Top
   Translational Enthalpy:        0.889 kcal/mol
   Rotational Enthalpy:           0.889 kcal/mol
   Vibrational Enthalpy:        122.845 kcal/mol
   gas constant (RT):             0.592 kcal/mol
   Translational Entropy:        41.694  cal/mol.K
   Rotational Entropy:           31.648  cal/mol.K
   Vibrational Entropy:          43.136  cal/mol.K

   Total Enthalpy:              125.215 kcal/mol
   Total Entropy:               116.478  cal/mol.K
Archival summary:
1\1\nid04366\FREQ\ProcedureUnspecified\BasisUnspecified\41010\junteng\WedOct419:24:532017WedOct419:24:532017\0\\#,FREQ,ProcedureUnspecified,BasisUnspecified,\\0,1\O\C,1,1.34412\O,2,1.20632,1,124.52\C,1,1.43912,2,115.874,3,-9.74424,0\H,4,1.08763,1,105.425,2,177.076,0\H,4,1.09062,1,110.658,2,57.2101,0\H,4,1.09128,1,109.561,2,-63.8494,0\C,2,1.49912,1,111.275,3,-176.202,0\C,8,1.39518,2,117.336,1,124.393,0\H,9,1.08332,8,118.967,2,1.82965,0\C,9,1.39287,8,120.607,2,-177.809,0\H,11,1.08402,9,119.81,8,179.659,0\C,11,1.39284,9,119.931,8,-0.335241,0\H,13,1.08393,11,120.293,9,-179.824,0\C,13,1.39187,11,119.849,9,-0.549171,0\H,15,1.08203,13,120.306,11,-178.521,0\C,15,1.39945,13,120.662,11,0.370863,0\C,17,1.49335,15,119.908,13,-173.501,0\O,18,1.20843,17,124.786,15,149.618,0\O,18,1.34984,17,111.867,15,-28.2346,0\C,20,1.43916,18,115.874,17,176.43,0\H,21,1.0877,20,105.377,18,179.812,0\H,21,1.09077,20,110.412,18,60.2706,0\H,21,1.09114,20,110.396,18,-60.6159,0\\\@

 Total job time:  4015.38s(wall), 20212.12s(cpu) 
 Wed Oct  4 19:24:53 2017

        *************************************************************
        *                                                           *
        *  Thank you very much for using Q-Chem.  Have a nice day.  *
        *                                                           *
        *************************************************************


