nid03293 10.128.12
Q-Chem Developer Version! Running on 10.128.12.*
                  Welcome to Q-Chem
     A Quantum Leap Into The Future Of Chemistry


 Q-Chem 5.0, Q-Chem, Inc., Pleasanton, CA (2017)

 Yihan Shao,  Zhengting Gan,  E. Epifanovsky,  A. T. B. Gilbert,  M. Wormit,  
 J. Kussmann,  A. W. Lange,  A. Behn,  Jia Deng,  Xintian Feng,  D. Ghosh,  
 M. Goldey,  P. R. Horn,  L. D. Jacobson,  I. Kaliman,  T. Kus,  A. Landau,  
 Jie Liu,  E. I. Proynov,  R. M. Richard,  R. P. Steele,  E. J. Sundstrom,  
 H. L. Woodcock III,  P. M. Zimmerman,  D. Zuev,  B. Albrecht,  E. Alguire,  
 S. A. Baeppler,  Z. Benda,  Y. A. Bernard,  E. J. Berquist,  K. B. Bravaya,  
 D. Casanova,  Chun-Min Chang,  Yunqing Chen,  A. Chien,  K. D. Closser,  
 M. P. Coons,  S. Dasgupta,  M. Diedenhofen,  Hainam Do,  R. G. Edgar,  
 Po-Tung Fang,  S. Fatehi,  Qingguo Feng,  Qinghui Ge,  A. Ghysels,  
 J. Gomes,  J. Gonthier,  A. Gunina,  M. W. D. Hanson-Heine,  
 P. H. P. Harbach,  A. W. Hauser,  J. E. Herr,  E. G. Hohenstein,  
 Z. C. Holden,  Kerwin Hui,  T.-C. Jagau,  Hyunjun Ji,  B. Kaduk,  
 K. Khistyaev,  Jaehoon Kim,  P. Klunzinger,  K. Koh,  D. Kosenkov,  
 T. Kowalczyk,  C. M. Krauter,  A. Kunitsa,  Ka Un Lao,  A. Laurent,  
 K. V. Lawler,  Joonho Lee,  D. Lefrancois,  S. Lehtola,  D. S. Levine,  
 Yi-Pei Li,  You-Sheng Lin,  Fenglai Liu,  E. Livshits,  A. Luenser,  
 P. Manohar,  E. Mansoor,  S. F. Manzer,  Shan-Ping Mao,  Yuezhi Mao,  
 N. Mardirossian,  A. V. Marenich,  L. A. Martinez-Martinez,  S. A. Maurer,  
 N. J. Mayhall,  S. C. McKenzie,  J.-M. Mewes,  A. F. Morrison,  K. Nanda,  
 T. S. Nguyen-Beck,  R. Olivares-Amaya,  J. A. Parkhill,  T. M. Perrine,  
 F. Plasser,  S. Prager,  A. Prociuk,  D. R. Rehn,  F. Rob,  M. Schneider,  
 N. Sergueev,  S. M. Sharada,  S. Sharma,  D. W. Small,  T. Stauch,  
 T. Stein,  Yu-Chuan Su,  A. J. W. Thom,  T. Tsuchimochi,  L. Vogt,  
 O. Vydrov,  M. A. Watson,  J. Wenzel,  M. de Wergifosse,  T. A. Wesolowski,  
 A. White,  J. Witte,  A. Yamada,  Jun Yang,  K. Yao,  S. Yeganeh,  
 S. R. Yost,  Zhi-Qiang You,  A. Zech,  Igor Ying Zhang,  Xing Zhang,  
 Yan Zhao,  Ying Zhu,  B. R. Brooks,  G. K. L. Chan,  C. J. Cramer,  
 M. S. Gordon,  W. J. Hehre,  A. Klamt,  M. W. Schmidt,  C. D. Sherrill,  
 D. G. Truhlar,  A. Aspuru-Guzik,  R. Baer,  A. T. Bell,  N. A. Besley,  
 Jeng-Da Chai,  A. Dreuw,  B. D. Dunietz,  T. R. Furlani,  Chao-Ping Hsu,  
 Yousung Jung,  Jing Kong,  D. S. Lambrecht,  WanZhen Liang,  C. Ochsenfeld,  
 V. A. Rassolov,  L. V. Slipchenko,  J. E. Subotnik,  T. Van Voorhis,  
 J. M. Herbert,  A. I. Krylov,  P. M. W. Gill,  M. Head-Gordon

 Contributors to earlier versions of Q-Chem not listed above: 
 R. D. Adamson,  B. Austin,  J. Baker,  G. J. O. Beran,  K. Brandhorst,  
 S. T. Brown,  E. F. C. Byrd,  A. K. Chakraborty,  C.-L. Cheng,  
 Siu Hung Chien,  D. M. Chipman,  D. L. Crittenden,  H. Dachsel,  
 R. A. DiStasio Jr.,  R. J. Doerksen,  A. D. Dutoi,  L. Fusti-Molnar,  
 W. A. Goddard III,  A. Golubeva-Zadorozhnaya,  S. R. Gwaltney,  G. Hawkins,  
 A. Heyden,  S. Hirata,  G. Kedziora,  F. J. Keil,  C. Kelley,  Jihan Kim,  
 R. A. King,  R. Z. Khaliullin,  P. P. Korambath,  W. Kurlancheek,  
 A. M. Lee,  M. S. Lee,  S. V. Levchenko,  Ching Yeh Lin,  D. Liotard,  
 R. C. Lochan,  I. Lotan,  P. E. Maslen,  N. Nair,  D. P. O'Neill,  
 D. Neuhauser,  E. Neuscamman,  C. M. Oana,  R. Olson,  B. Peters,  
 R. Peverati,  P. A. Pieniazek,  Y. M. Rhee,  J. Ritchie,  M. A. Rohrdanz,  
 E. Rosta,  N. J. Russ,  H. F. Schaefer III,  N. E. Schultz,  N. Shenvi,  
 A. C. Simmonett,  A. Sodt,  D. Stuck,  K. S. Thanthiriwatte,  V. Vanovschi,  
 Tao Wang,  A. Warshel,  C. F. Williams,  Q. Wu,  X. Xu,  W. Zhang

 Please cite Q-Chem as follows:
 Y. Shao et al., Mol. Phys. 113, 184-215 (2015)
 DOI: 10.1080/00268976.2014.952696

 Q-Chem 5.0.0 for Intel X86 EM64T Linux

 Parts of Q-Chem use Armadillo 5.200.1 (Boston Tea Smuggler).
 http://arma.sourceforge.net/

 Q-Chem begins on Wed Oct 18 12:17:54 2017  

Host: nid03293
0

     Scratch files written to /global/cscratch1/sd/junteng/scratch/13/opt_1301.save//

Checking the input file for inconsistencies... 	...done.

--------------------------------------------------------------
User input:
--------------------------------------------------------------
$molecule
0  1
C         -1.03100       -1.18000       -0.63600
C          0.19600       -0.19600       -0.72400
C         -2.21400       -0.64900        0.15900
C         -0.06100        1.17900       -0.14200
O         -3.33192       -1.35015       -0.14296
O         -2.17897        0.23706        0.98086
O         -1.03940        1.81695       -0.81438
O          0.52554        1.66266        0.80471
C         -1.34996        3.13021       -0.32567
C         -4.54236       -0.85032        0.44958
C         -0.38900       -2.40000        0.05700
C          0.59400       -3.10100       -0.90800
C          1.80500       -2.12100       -0.86800
C          1.26700       -1.02200        0.08200
O          0.48200       -1.77600        1.01100
H         -1.39900       -1.40600       -1.64200
H          0.51000       -0.06500       -1.75800
H         -0.46720        3.77549       -0.37366
H         -4.73040        0.16961        0.10323
H          0.86500       -4.08800       -0.52300
H          0.17700       -3.23400       -1.91200
H          2.68300       -2.59500       -0.41800
H          2.09500       -1.73300       -1.84700
H         -2.13967        3.50721       -0.97579
H         -1.69414        3.08174        0.71214
H         -4.46978       -0.85427        1.54004
H         -5.33181       -1.52390        0.11287
H         -1.10100       -3.03800        0.57700
C          2.29700       -0.20400        0.83400
O          2.85100        0.71200       -0.09600
H          3.07200       -0.86600        1.25200
H          1.80100        0.31800        1.66200
C          3.70500        1.66100        0.51100
H          4.05400        2.33100       -0.27900
H          4.57600        1.18200        0.98600
H          3.17300        2.25000        1.27600
$end


$opt
CONSTRAINT
tors    1    2    4    8    117.4
tors    2    1    3    6    -20.6
ENDCONSTRAINT
$end

$rem
JOBTYPE                   OPT
METHOD                    B3LYP
DFT_D                     D3_OP
BASIS                     STO-3G
GEOM_OPT_MAX_CYCLES       500
SYMMETRY                  False
THRESH                    12
SCF_CONVERGENCE           8
MAX_SUB_FILE_NUM          128
MEM_STATIC                400
MEM_TOTAL                 4000
$end

--------------------------------------------------------------
 Adding empirical dispersion correction 
 ----------------------------------------------------------------
 Doing -D3(op) with
 s6 =   1.00000
 s8 =   0.78311
 a1 =   0.30000
 a2 =   4.25000
 n  =  10.00000
 -D3 energy without 3body term =     -0.0407311590 hartrees
 ----------------------------------------------------------------
             Standard Nuclear Orientation (Angstroms)
    I     Atom           X                Y                Z
 ----------------------------------------------------------------
    1      C      -1.0666924976    -0.8582937457    -0.5836356602
    2      C       0.3127336880    -0.1151060028    -0.7460683462
    3      C      -2.1275549930    -0.0691175304     0.1681932211
    4      C       0.3087788916     1.3234438079    -0.2707192097
    5      O      -3.3550714913    -0.5831881983    -0.0797400068
    6      O      -1.9267254555     0.8561445180     0.9200847843
    7      O      -0.5511777324     2.0713200466    -0.9900921056
    8      O       0.9835020222     1.7660365412     0.6365163500
    9      C      -0.6199201190     3.4516908556    -0.6030679215
   10      C      -4.4510767901     0.1650128558     0.4725880133
   11      C      -0.6397924061    -2.1166874909     0.2005929378
   12      C       0.1921165007    -3.0502848035    -0.7078335197
   13      C       1.5567716517    -2.2985889167    -0.7423387731
   14      C       1.2325862830    -1.0538172662     0.1209064904
   15      O       0.3396810825    -1.5858794406     1.1044776090
   16      H      -1.4818342819    -1.0909180887    -1.5695764363
   17      H       0.6312455443    -0.1194972530    -1.7869544660
   18      H       0.3617042276     3.9260291259    -0.6998738288
   19      H      -4.4616765530     1.1731647220     0.0493953518
   20      H       0.2906692749    -4.0378161523    -0.2485904620
   21      H      -0.2549072159    -3.1828522185    -1.6988883503
   22      H       2.3437573978    -2.8845805040    -0.2572333259
   23      H       1.8974981510    -2.0423743944    -1.7479950619
   24      H      -1.3396521050     3.9118966386    -1.2802853196
   25      H      -0.9536021111     3.5426854591     0.4353130874
   26      H      -4.3660004400     0.2302919496     1.5601941576
   27      H      -5.3508696986    -0.3824338899     0.1880010749
   28      H      -1.4458457090    -2.5784765308     0.7675294030
   29      C       2.3999807207    -0.3757648283     0.8086296312
   30      O       3.0939202563     0.3558931826    -0.1883640879
   31      H       3.0521506237    -1.1305521762     1.2761373608
   32      H       2.0142422483     0.2861147448     1.5942537536
   33      C       4.1091564154     1.1826125270     0.3447369033
   34      H       4.5599502352     1.7194271864    -0.4939620615
   35      H       4.8887020944     0.5948241115     0.8551488084
   36      H       3.6989147912     1.9118573035     1.0624233709
 ----------------------------------------------------------------
 Molecular Point Group                 C1    NOp =  1
 Largest Abelian Subgroup              C1    NOp =  1
 Nuclear Repulsion Energy =  1532.4235694044 hartrees
 There are       69 alpha and       69 beta electrons
 Requested basis set is STO-3G
 There are 54 shells and 108 basis functions

 Total QAlloc Memory Limit   4000 MB
 Mega-Array Size       392 MB
 MEM_STATIC part       400 MB
 A cutoff of  1.0D-12 yielded   1248 shell pairs
 There are      5523 function pairs
 
 -------------------------------------------------------
 OpenMP Integral Computing Module                       
 Release: version 1.0, May 2013, Q-Chem Inc. Pittsburgh 
 -------------------------------------------------------
 Integral Job Info:
 Integral job number is                      11
 Integral operator is                         1
 short-range coefficients                     0
 long-range coefficients              100000000
 Omega coefficients                           0
 if combine SR and LR in K                    0
 Integral screening is                        0
 Integral computing path is                   2
 max size of driver memory is            800000
 size of driver memory is                 45569
 size of scratch memory is               945100
 max col of scratch BK array                289
 max len of scratch array in speh3           22
 max len of scratch index in speh4            8
 max int batch size is                      520
 min int batch size is                       52
 fixed nKL is                                52
 max L of basis functions is                  1
 order of int derivative is                   0
 number of shells is                         54
 number of basis is                         108
 number of cartesian basis is               108
 number of contracted shell pairs          1248
 number of primitive shell pairs           6711
 maxK2 (contraction) of shell pair            9
 max number of K2 of shell pair               1
 max number of CS2 of shell pair            205
 max number of PS2 of shell pair            828
 mem total for path MDJ                   33898
 -------------------------------------------------------
 Smallest overlap matrix eigenvalue = 2.00E-01

 Scale SEOQF with 1.000000e-02/1.000000e-01/1.000000e-01

 Standard Electronic Orientation quadrupole field applied
 Nucleus-field energy     =     0.0000000237 hartrees
 Guess from superposition of atomic densities
 Warning:  Energy on first SCF cycle will be non-variational
 A restricted hybrid HF-DFT SCF calculation will be
 performed using Pulay DIIS extrapolation
 Exchange:     0.2000 Hartree-Fock + 0.0800 Slater + 0.7200 B88
 Correlation:  0.1900 VWN1RPA + 0.8100 LYP
 Using SG-1 standard quadrature grid
 Dispersion:   Grimme D3
 SCF converges when DIIS error is below 1.0E-08
 -------------------------------------------------------
 OpenMP Integral computing Module                
 Release: version 1.0, May 2013, Q-Chem Inc. Pittsburgh 
 -------------------------------------------------------
 -------------------------------------------------------
 OpenMP BLAS3 based DFT computing Module                
 Release: version 1.0, May 2013, Q-Chem Inc. Pittsburgh 
 -------------------------------------------------------
 ---------------------------------------
  Cycle       Energy         DIIS Error
 ---------------------------------------
    1    -906.6970347427      1.03E-01
    2    -907.2748788979      1.21E-02
    3    -906.4237526580      2.75E-02
    4    -907.5172972652      4.33E-03
    5    -907.5460835232      1.27E-03
    6    -907.5486861331      2.71E-04
    7    -907.5488111556      3.26E-05
    8    -907.5488126195      1.53E-05
    9    -907.5488129006      8.30E-06
   10    -907.5488130143      1.19E-06
   11    -907.5488130168      2.50E-07
   12    -907.5488130168      8.72E-08
   13    -907.5488130169      2.17E-08
   14    -907.5488130169      6.00E-09 Convergence criterion met
 ---------------------------------------
 SCF time:  CPU 78.56 s  wall 3.57 s
 SCF   energy in the final basis set = -907.5488130169
 Total energy in the final basis set = -907.5488130169
 
 --------------------------------------------------------------
 
                    Orbital Energies (a.u.)
 --------------------------------------------------------------
 
 Alpha MOs
 -- Occupied --
-18.942 -18.930 -18.879 -18.873 -18.868 -18.848 -10.111 -10.101
-10.076 -10.065 -10.062 -10.060 -10.044 -10.042 -10.030 -10.024
-10.015 -10.009  -1.048  -1.034  -0.997  -0.962  -0.955  -0.939
 -0.768  -0.736  -0.727  -0.691  -0.671  -0.652  -0.605  -0.590
 -0.547  -0.532  -0.501  -0.482  -0.470  -0.452  -0.440  -0.431
 -0.429  -0.421  -0.415  -0.411  -0.410  -0.387  -0.380  -0.373
 -0.364  -0.356  -0.349  -0.338  -0.319  -0.312  -0.310  -0.307
 -0.293  -0.282  -0.271  -0.246  -0.235  -0.226  -0.203  -0.184
 -0.168  -0.151  -0.140  -0.134  -0.125
 -- Virtual --
  0.116   0.138   0.247   0.266   0.293   0.303   0.329   0.342
  0.354   0.369   0.390   0.403   0.407   0.410   0.421   0.426
  0.432   0.435   0.437   0.442   0.450   0.452   0.454   0.460
  0.462   0.468   0.471   0.481   0.485   0.495   0.500   0.512
  0.517   0.524   0.543   0.573   0.582   0.716   0.720
 --------------------------------------------------------------
 
          Ground-State Mulliken Net Atomic Charges

     Atom                 Charge (a.u.)
  ----------------------------------------
      1 C                    -0.083835
      2 C                    -0.085113
      3 C                     0.242462
      4 C                     0.250306
      5 O                    -0.191754
      6 O                    -0.234358
      7 O                    -0.195251
      8 O                    -0.238393
      9 C                    -0.124760
     10 C                    -0.126462
     11 C                     0.029453
     12 C                    -0.148272
     13 C                    -0.147606
     14 C                     0.113307
     15 O                    -0.211664
     16 H                     0.086677
     17 H                     0.089923
     18 H                     0.092027
     19 H                     0.093910
     20 H                     0.078961
     21 H                     0.074805
     22 H                     0.076702
     23 H                     0.078051
     24 H                     0.093639
     25 H                     0.098839
     26 H                     0.096445
     27 H                     0.098211
     28 H                     0.087075
     29 C                    -0.045299
     30 O                    -0.217277
     31 H                     0.063866
     32 H                     0.100077
     33 C                    -0.120954
     34 H                     0.083456
     35 H                     0.066218
     36 H                     0.076589
  ----------------------------------------
  Sum of atomic charges =     0.000000

 -----------------------------------------------------------------
                    Cartesian Multipole Moments
 -----------------------------------------------------------------
    Charge (ESU x 10^10)
                 0.0000
    Dipole Moment (Debye)
         X      -1.5305      Y      -0.1801      Z      -1.2474
       Tot       1.9827
    Quadrupole Moments (Debye-Ang)
        XX     -87.4239     XY      -1.1108     YY     -91.7537
        XZ       0.1923     YZ      -1.0475     ZZ     -99.3383
    Octopole Moments (Debye-Ang^2)
       XXX     -38.3941    XXY      14.1739    XYY      -4.3405
       YYY      32.7276    XXZ      17.5295    XYZ       1.6405
       YYZ      -5.8131    XZZ      -2.4345    YZZ       4.3485
       ZZZ       2.9055
    Hexadecapole Moments (Debye-Ang^3)
      XXXX   -2668.1679   XXXY      10.1188   XXYY    -786.3518
      XYYY     -10.3195   YYYY   -1732.2379   XXXZ      -6.5142
      XXYZ     -20.4260   XYYZ      -0.6266   YYYZ     -36.8235
      XXZZ    -548.3907   XYZZ       7.3893   YYZZ    -371.3752
      XZZZ      -8.7571   YZZZ       0.8462   ZZZZ    -360.4815
 -----------------------------------------------------------------
 Calculating analytic gradient of the SCF energy
 Gradient of SCF Energy
            1           2           3           4           5           6
    1  -0.0018184   0.0092969  -0.0247787  -0.0053133   0.0359592  -0.0147444
    2  -0.0019528   0.0176989   0.0162557   0.0257299   0.0525033  -0.0696323
    3   0.0366461   0.0078883   0.0133458  -0.0105776   0.0369680  -0.0552034
            7           8           9          10          11          12
    1   0.0489488  -0.0375592  -0.0052504   0.0003770   0.0085726  -0.0012114
    2  -0.0033750  -0.0397341  -0.0063845  -0.0067776   0.0083789   0.0143736
    3   0.0638221  -0.0557846  -0.0083996  -0.0061808   0.0000528   0.0135486
           13          14          15          16          17          18
    1  -0.0098098  -0.0013186   0.0020641   0.0024111  -0.0017798  -0.0094457
    2   0.0114086  -0.0057419   0.0016424   0.0059670   0.0020594  -0.0093011
    3   0.0083755   0.0175120  -0.0569819   0.0064722   0.0125290   0.0006692
           19          20          21          22          23          24
    1   0.0047064  -0.0010274   0.0016298  -0.0038072  -0.0006649   0.0075826
    2  -0.0133314   0.0056396  -0.0003947   0.0037481  -0.0014426  -0.0081241
    3   0.0024421  -0.0028009   0.0049549  -0.0021241   0.0068469   0.0062014
           25          26          27          28          29          30
    1   0.0046295   0.0027693   0.0116522   0.0117290  -0.0170328   0.0090809
    2  -0.0041357  -0.0029609   0.0033446   0.0095332   0.0044659   0.0032353
    3  -0.0115953  -0.0139966   0.0012696  -0.0053879  -0.0288656   0.0589579
           31          32          33          34          35          36
    1  -0.0054618   0.0044165  -0.0097823  -0.0050700  -0.0097935  -0.0001562
    2   0.0102576  -0.0042650  -0.0071402  -0.0056696   0.0022401  -0.0081188
    3  -0.0064064  -0.0094305  -0.0201021   0.0080216  -0.0058815  -0.0068053
 Max gradient component =       6.963E-02
 RMS gradient           =       1.974E-02
 Gradient time:  CPU 26.02 s  wall 1.88 s
 Geometry Optimization Parameters
   NAtoms,    NIC,     NZ,  NCons,   NDum,   NFix, NCnnct, MaxDiis
       36     276       0       2       0       0       0       0


** CONSTRAINED OPTIMIZATION IN DELOCALIZED INTERNAL COORDINATES **
   Searching for a Minimum

   Optimization Cycle:   1

                       Coordinates (Angstroms)
     ATOM                X               Y               Z
      1  C        -1.0666924976   -0.8582937457   -0.5836356602
      2  C         0.3127336880   -0.1151060028   -0.7460683462
      3  C        -2.1275549930   -0.0691175304    0.1681932211
      4  C         0.3087788916    1.3234438079   -0.2707192097
      5  O        -3.3550714913   -0.5831881983   -0.0797400068
      6  O        -1.9267254555    0.8561445180    0.9200847843
      7  O        -0.5511777324    2.0713200466   -0.9900921056
      8  O         0.9835020222    1.7660365412    0.6365163500
      9  C        -0.6199201190    3.4516908556   -0.6030679215
     10  C        -4.4510767901    0.1650128558    0.4725880133
     11  C        -0.6397924061   -2.1166874909    0.2005929378
     12  C         0.1921165007   -3.0502848035   -0.7078335197
     13  C         1.5567716517   -2.2985889167   -0.7423387731
     14  C         1.2325862830   -1.0538172662    0.1209064904
     15  O         0.3396810825   -1.5858794406    1.1044776090
     16  H        -1.4818342819   -1.0909180887   -1.5695764363
     17  H         0.6312455443   -0.1194972530   -1.7869544660
     18  H         0.3617042276    3.9260291259   -0.6998738288
     19  H        -4.4616765530    1.1731647220    0.0493953518
     20  H         0.2906692749   -4.0378161523   -0.2485904620
     21  H        -0.2549072159   -3.1828522185   -1.6988883503
     22  H         2.3437573978   -2.8845805040   -0.2572333259
     23  H         1.8974981510   -2.0423743944   -1.7479950619
     24  H        -1.3396521050    3.9118966386   -1.2802853196
     25  H        -0.9536021111    3.5426854591    0.4353130874
     26  H        -4.3660004400    0.2302919496    1.5601941576
     27  H        -5.3508696986   -0.3824338899    0.1880010749
     28  H        -1.4458457090   -2.5784765308    0.7675294030
     29  C         2.3999807207   -0.3757648283    0.8086296312
     30  O         3.0939202563    0.3558931826   -0.1883640879
     31  H         3.0521506237   -1.1305521762    1.2761373608
     32  H         2.0142422483    0.2861147448    1.5942537536
     33  C         4.1091564154    1.1826125270    0.3447369033
     34  H         4.5599502352    1.7194271864   -0.4939620615
     35  H         4.8887020944    0.5948241115    0.8551488084
     36  H         3.6989147912    1.9118573035    1.0624233709
   Point Group: c1    Number of degrees of freedom:   102


   Energy is   -907.548813017

              Constraints and their Current Values
                                        Value     Constraint
   Dihedral:        1   2   4   8      117.448      117.400
   Dihedral:        2   1   3   6      -20.606      -20.600

 Attempting to Generate Delocalized Internal Coordinates

   Using Lagrange Multiplier Algorithm


104 Hessian modes will be used to form the next step
  Hessian Eigenvalues:
    -0.977753   -0.977753    0.045000    0.045000    0.045000    0.045000
     0.045000    0.045000    0.045000    0.045000    0.045029    0.045527
     0.048904    0.059760    0.062623    0.068010    0.068732    0.072503
     0.073659    0.074264    0.076727    0.079322    0.081515    0.081894
     0.083130    0.084236    0.085640    0.086571    0.089996    0.090292
     0.091352    0.097347    0.106490    0.111534    0.112938    0.114829
     0.115016    0.116610    0.118133    0.118499    0.120054    0.122101
     0.123965    0.138865    0.139525    0.140742    0.160000    0.160000
     0.160000    0.160000    0.160000    0.160000    0.160000    0.160000
     0.160000    0.166912    0.178793    0.220323    0.230466    0.234806
     0.249862    0.250000    0.250000    0.250000    0.250000    0.250000
     0.250000    0.250276    0.257091    0.271755    0.278321    0.302694
     0.308434    0.308477    0.334238    0.334966    0.335023    0.339816
     0.342118    0.342159    0.342664    0.342910    0.342965    0.343014
     0.344065    0.344200    0.344603    0.344819    0.345500    0.346955
     0.347953    0.349822    0.350103    0.350826    0.399452    0.402444
     0.427550    0.434334    0.542391    0.555099    0.980123    1.004078
     1.022753    1.022753

 Minimum Search - Taking P-RFO Step
 Searching for Lamda that Maximizes Along the Constraint modes Only
 Value Taken    Lamda =   0.00007363
 Searching for Lamda that Minimizes Along All other modes
 Value Taken    Lamda =  -0.08504929
 Calculated Step too Large.  Step scaled by  0.671012
 Step Taken.  Stepsize is  0.300000

                             Maximum     Tolerance    Cnvgd?
         Gradient            0.103688       0.000300      NO
         Displacement        0.107962       0.001200      NO
         Energy change     *********       0.000001      NO


 New Cartesian Coordinates Obtained by Inverse Iteration

 Displacement from previous Coordinates is:  1.422737
 Adding empirical dispersion correction 
 ----------------------------------------------------------------
 Doing -D3(op) with
 s6 =   1.00000
 s8 =   0.78311
 a1 =   0.30000
 a2 =   4.25000
 n  =  10.00000
 -D3 energy without 3body term =     -0.0400095472 hartrees
 ----------------------------------------------------------------
             Standard Nuclear Orientation (Angstroms)
    I     Atom           X                Y                Z
 ----------------------------------------------------------------
    1      C      -1.0644032202    -0.8386286780    -0.5796748042
    2      C       0.3203041861    -0.0836035540    -0.7337352577
    3      C      -2.1430537754    -0.0396611798     0.1964997480
    4      C       0.2613410101     1.4026352730    -0.2690113161
    5      O      -3.3935960319    -0.5850926527    -0.0765744202
    6      O      -1.9473031278     0.9016527314     0.9770463843
    7      O      -0.6342979364     2.0842789863    -1.0826785069
    8      O       0.8843944610     1.9460104171     0.6549934415
    9      C      -0.7752225731     3.4900680777    -0.7254164188
   10      C      -4.4942675526     0.1678815491     0.5187208091
   11      C      -0.6326867767    -2.1249704223     0.2052358984
   12      C       0.1989393409    -3.0548277230    -0.7440431624
   13      C       1.5751688318    -2.3042636871    -0.7760889071
   14      C       1.2654225592    -1.0565862258     0.1293898870
   15      O       0.3642346900    -1.6082953118     1.1366726390
   16      H      -1.4784741683    -1.0761443318    -1.5722862735
   17      H       0.6439327898    -0.0883236574    -1.7837339594
   18      H       0.1911797029     4.0211401080    -0.7953129349
   19      H      -4.5214877915     1.1999266445     0.1264845476
   20      H       0.2978246418    -4.0577796693    -0.3062198994
   21      H      -0.2581256623    -3.1616798674    -1.7383072015
   22      H       2.3660162564    -2.9098655546    -0.3110841758
   23      H       1.9062244206    -2.0278355795    -1.7857645274
   24      H      -1.4929925710     3.9163793107    -1.4420612163
   25      H      -1.1582865022     3.6002086024     0.3052443072
   26      H      -4.4056571722     0.2115411496     1.6186345918
   27      H      -5.4142866229    -0.3659618481     0.2361492592
   28      H      -1.4472639210    -2.6051529249     0.7691762667
   29      C       2.4881943152    -0.4187302262     0.8257469090
   30      O       3.2080199701     0.3283568875    -0.1808852695
   31      H       3.1228311023    -1.2189433852     1.2670809650
   32      H       2.1308054795     0.2346576997     1.6439736505
   33      C       4.2614616630     1.0969110796     0.4292851439
   34      H       4.7535627873     1.6627558267    -0.3784652334
   35      H       5.0219976813     0.4589000698     0.9278001901
   36      H       3.8752120176     1.8152582104     1.1831122121
 ----------------------------------------------------------------
 Molecular Point Group                 C1    NOp =  1
 Largest Abelian Subgroup              C1    NOp =  1
 Nuclear Repulsion Energy =  1502.0373791252 hartrees
 There are       69 alpha and       69 beta electrons
 Applying Cartesian multipole field
    Component          Value
    ---------          -----
     (2,0,0)        1.00000E-12
     (0,2,0)        2.00000E-11
     (0,0,2)       -3.00000E-11
 Nucleus-field energy     =     0.0000000238 hartrees
 Requested basis set is STO-3G
 There are 54 shells and 108 basis functions
 A cutoff of  1.0D-12 yielded   1237 shell pairs
 There are      5494 function pairs
 Smallest overlap matrix eigenvalue = 2.10E-01
 Guess MOs from SCF MO coefficient file
 Reading MOs from coefficient file
 Reading MOs from coefficient file
 A restricted hybrid HF-DFT SCF calculation will be
 performed using Pulay DIIS extrapolation
 Exchange:     0.2000 Hartree-Fock + 0.0800 Slater + 0.7200 B88
 Correlation:  0.1900 VWN1RPA + 0.8100 LYP
 Using SG-1 standard quadrature grid
 Dispersion:   Grimme D3
 SCF converges when DIIS error is below 1.0E-08
 Geometry optimization detected.  Setting ReadMinima to 0
 Setting SaveMinima to 0
 -------------------------------------------------------
 OpenMP Integral computing Module                
 Release: version 1.0, May 2013, Q-Chem Inc. Pittsburgh 
 -------------------------------------------------------
 -------------------------------------------------------
 OpenMP BLAS3 based DFT computing Module                
 Release: version 1.0, May 2013, Q-Chem Inc. Pittsburgh 
 -------------------------------------------------------
 ---------------------------------------
  Cycle       Energy         DIIS Error
 ---------------------------------------
    1    -907.3874838927      6.07E-03
    2    -907.5793895365      1.86E-03
    3    -907.5714233444      2.92E-03
    4    -907.5846831314      6.00E-04
    5    -907.5853075029      1.06E-04
    6    -907.5853268063      3.08E-05
    7    -907.5853275827      2.33E-05
    8    -907.5853284692      4.35E-06
    9    -907.5853285033      6.92E-07
   10    -907.5853285042      1.89E-07
   11    -907.5853285042      4.33E-08
   12    -907.5853285042      1.53E-08
   13    -907.5853285043      3.91E-09 Convergence criterion met
 ---------------------------------------
 SCF time:  CPU 68.36 s  wall 2.88 s
 SCF   energy in the final basis set = -907.5853285043
 Total energy in the final basis set = -907.5853285043
 
 --------------------------------------------------------------
 
                    Orbital Energies (a.u.)
 --------------------------------------------------------------
 
 Alpha MOs
 -- Occupied --
-18.940 -18.924 -18.882 -18.881 -18.870 -18.852 -10.104 -10.093
-10.071 -10.061 -10.061 -10.060 -10.049 -10.043 -10.033 -10.027
-10.017 -10.012  -1.027  -1.012  -0.981  -0.953  -0.943  -0.926
 -0.761  -0.727  -0.719  -0.680  -0.661  -0.646  -0.601  -0.588
 -0.543  -0.527  -0.495  -0.474  -0.458  -0.445  -0.434  -0.421
 -0.420  -0.412  -0.408  -0.406  -0.404  -0.382  -0.374  -0.365
 -0.360  -0.351  -0.344  -0.336  -0.314  -0.311  -0.308  -0.299
 -0.289  -0.276  -0.269  -0.249  -0.237  -0.230  -0.213  -0.181
 -0.164  -0.151  -0.142  -0.137  -0.130
 -- Virtual --
  0.105   0.128   0.234   0.251   0.278   0.291   0.314   0.325
  0.335   0.354   0.366   0.379   0.381   0.388   0.404   0.406
  0.416   0.422   0.428   0.432   0.435   0.438   0.441   0.442
  0.444   0.447   0.452   0.456   0.464   0.467   0.478   0.485
  0.493   0.504   0.521   0.558   0.559   0.672   0.680
 --------------------------------------------------------------
 
          Ground-State Mulliken Net Atomic Charges

     Atom                 Charge (a.u.)
  ----------------------------------------
      1 C                    -0.080364
      2 C                    -0.079674
      3 C                     0.224576
      4 C                     0.230245
      5 O                    -0.180205
      6 O                    -0.219987
      7 O                    -0.187500
      8 O                    -0.224698
      9 C                    -0.124077
     10 C                    -0.125312
     11 C                     0.027757
     12 C                    -0.145787
     13 C                    -0.145357
     14 C                     0.107185
     15 O                    -0.202007
     16 H                     0.086095
     17 H                     0.087542
     18 H                     0.088697
     19 H                     0.090696
     20 H                     0.077627
     21 H                     0.074222
     22 H                     0.075695
     23 H                     0.077412
     24 H                     0.089249
     25 H                     0.094544
     26 H                     0.092871
     27 H                     0.094352
     28 H                     0.084821
     29 C                    -0.046187
     30 O                    -0.202612
     31 H                     0.066997
     32 H                     0.091934
     33 C                    -0.121857
     34 H                     0.082145
     35 H                     0.065848
     36 H                     0.075115
  ----------------------------------------
  Sum of atomic charges =    -0.000000

 -----------------------------------------------------------------
                    Cartesian Multipole Moments
 -----------------------------------------------------------------
    Charge (ESU x 10^10)
                 0.0000
    Dipole Moment (Debye)
         X      -1.2837      Y      -0.4983      Z      -1.1862
       Tot       1.8175
    Quadrupole Moments (Debye-Ang)
        XX     -86.3931     XY      -1.6302     YY     -92.2303
        XZ       0.5471     YZ      -1.2103     ZZ     -99.3357
    Octopole Moments (Debye-Ang^2)
       XXX     -33.3739    XXY      14.1603    XYY      -5.3149
       YYY      27.8320    XXZ      20.5222    XYZ       2.1018
       YYZ      -7.6575    XZZ      -1.6492    YZZ       3.0204
       ZZZ       2.5727
    Hexadecapole Moments (Debye-Ang^3)
      XXXX   -2766.4912   XXXY      38.7054   XXYY    -810.3309
      XYYY      12.3333   YYYY   -1767.1084   XXXZ     -10.7143
      XXYZ     -17.3024   XYYZ      -2.0718   YYYZ     -33.6881
      XXZZ    -572.8057   XYZZ      17.1071   YYZZ    -382.4010
      XZZZ     -16.0227   YZZZ       7.9409   ZZZZ    -388.4620
 -----------------------------------------------------------------
 Calculating analytic gradient of the SCF energy
 Gradient of SCF Energy
            1           2           3           4           5           6
    1   0.0003863   0.0006392  -0.0163740  -0.0114439   0.0165301  -0.0026724
    2  -0.0030531   0.0086788  -0.0011563   0.0101580   0.0237667  -0.0209471
    3   0.0196397  -0.0045093  -0.0031768  -0.0187366   0.0191082  -0.0158955
            7           8           9          10          11          12
    1   0.0225442  -0.0133777  -0.0035166  -0.0003454   0.0023419   0.0000145
    2   0.0015508  -0.0084434  -0.0042470  -0.0052451   0.0032560   0.0063905
    3   0.0355262  -0.0158511  -0.0069614  -0.0055174  -0.0010839   0.0055268
           13          14          15          16          17          18
    1  -0.0030477   0.0016716   0.0003395   0.0015123   0.0000955  -0.0026337
    2   0.0048231  -0.0075320   0.0006540   0.0034000   0.0004372  -0.0032756
    3   0.0023915   0.0104560  -0.0235383   0.0014788   0.0047244   0.0005274
           19          20          21          22          23          24
    1   0.0018012  -0.0005506   0.0009162  -0.0012961   0.0007583   0.0025471
    2  -0.0041917   0.0018846  -0.0012328   0.0010768  -0.0012107  -0.0023821
    3   0.0007061  -0.0013202   0.0017046  -0.0009558   0.0026732   0.0023583
           25          26          27          28          29          30
    1   0.0020484   0.0009835   0.0037759   0.0044003  -0.0045082   0.0056798
    2  -0.0013400  -0.0006464   0.0011857   0.0042902   0.0015502   0.0000159
    3  -0.0034190  -0.0044410   0.0004130  -0.0002527  -0.0115884   0.0296163
           31          32          33          34          35          36
    1  -0.0002784   0.0024115  -0.0075890  -0.0015323  -0.0023744   0.0001431
    2   0.0028161  -0.0034544  -0.0048449  -0.0016713   0.0010787  -0.0021393
    3  -0.0025352  -0.0043630  -0.0124590   0.0027480  -0.0013599  -0.0016340
 Max gradient component =       3.553E-02
 RMS gradient           =       8.668E-03
 Gradient time:  CPU 18.96 s  wall 0.80 s
 Geometry Optimization Parameters
   NAtoms,    NIC,     NZ,  NCons,   NDum,   NFix, NCnnct, MaxDiis
       36     276       0       2       0       0       0       0

 Cartesian Hessian Update
 Hessian Updated using BFGS Update


** CONSTRAINED OPTIMIZATION IN DELOCALIZED INTERNAL COORDINATES **
   Searching for a Minimum

   Optimization Cycle:   2

                       Coordinates (Angstroms)
     ATOM                X               Y               Z
      1  C        -1.0644032202   -0.8386286780   -0.5796748042
      2  C         0.3203041861   -0.0836035540   -0.7337352577
      3  C        -2.1430537754   -0.0396611798    0.1964997480
      4  C         0.2613410101    1.4026352730   -0.2690113161
      5  O        -3.3935960319   -0.5850926527   -0.0765744202
      6  O        -1.9473031278    0.9016527314    0.9770463843
      7  O        -0.6342979364    2.0842789863   -1.0826785069
      8  O         0.8843944610    1.9460104171    0.6549934415
      9  C        -0.7752225731    3.4900680777   -0.7254164188
     10  C        -4.4942675526    0.1678815491    0.5187208091
     11  C        -0.6326867767   -2.1249704223    0.2052358984
     12  C         0.1989393409   -3.0548277230   -0.7440431624
     13  C         1.5751688318   -2.3042636871   -0.7760889071
     14  C         1.2654225592   -1.0565862258    0.1293898870
     15  O         0.3642346900   -1.6082953118    1.1366726390
     16  H        -1.4784741683   -1.0761443318   -1.5722862735
     17  H         0.6439327898   -0.0883236574   -1.7837339594
     18  H         0.1911797029    4.0211401080   -0.7953129349
     19  H        -4.5214877915    1.1999266445    0.1264845476
     20  H         0.2978246418   -4.0577796693   -0.3062198994
     21  H        -0.2581256623   -3.1616798674   -1.7383072015
     22  H         2.3660162564   -2.9098655546   -0.3110841758
     23  H         1.9062244206   -2.0278355795   -1.7857645274
     24  H        -1.4929925710    3.9163793107   -1.4420612163
     25  H        -1.1582865022    3.6002086024    0.3052443072
     26  H        -4.4056571722    0.2115411496    1.6186345918
     27  H        -5.4142866229   -0.3659618481    0.2361492592
     28  H        -1.4472639210   -2.6051529249    0.7691762667
     29  C         2.4881943152   -0.4187302262    0.8257469090
     30  O         3.2080199701    0.3283568875   -0.1808852695
     31  H         3.1228311023   -1.2189433852    1.2670809650
     32  H         2.1308054795    0.2346576997    1.6439736505
     33  C         4.2614616630    1.0969110796    0.4292851439
     34  H         4.7535627873    1.6627558267   -0.3784652334
     35  H         5.0219976813    0.4589000698    0.9278001901
     36  H         3.8752120176    1.8152582104    1.1831122121
   Point Group: c1    Number of degrees of freedom:   102


   Energy is   -907.585328504

              Constraints and their Current Values
                                        Value     Constraint
   Dihedral:        1   2   4   8      117.401      117.400
   Dihedral:        2   1   3   6      -20.597      -20.600
 Hessian Updated using BFGS Update

   Using Lagrange Multiplier Algorithm


 89 Hessian modes will be used to form the next step
  Hessian Eigenvalues:
    -0.977753   -0.977087    0.044907    0.045000    0.045010    0.045029
     0.045536    0.048904    0.059746    0.062559    0.068012    0.068709
     0.073125    0.073688    0.074561    0.076648    0.079417    0.081560
     0.081913    0.083303    0.084214    0.085693    0.086619    0.090048
     0.090297    0.091551    0.097652    0.108883    0.112790    0.113461
     0.114832    0.115023    0.116610    0.118135    0.118499    0.120066
     0.122140    0.123936    0.139010    0.140725    0.140946    0.159916
     0.160611    0.170251    0.179014    0.220288    0.226184    0.234808
     0.242737    0.249866    0.250000    0.250261    0.256024    0.258263
     0.274757    0.282768    0.303339    0.308160    0.325446    0.334381
     0.334988    0.336103    0.339650    0.342048    0.342146    0.342699
     0.342915    0.342989    0.343443    0.344079    0.344374    0.344691
     0.345328    0.345806    0.347141    0.348107    0.349859    0.350113
     0.381408    0.400923    0.410398    0.425744    0.432880    0.526971
     0.548652    0.984335    1.006061    1.022753    1.034933

 Minimum Search - Taking P-RFO Step
 Searching for Lamda that Maximizes Along the Constraint modes Only
 Value Taken    Lamda =   0.00005024
 Searching for Lamda that Minimizes Along All other modes
 Value Taken    Lamda =  -0.01856679
 Step Taken.  Stepsize is  0.288206

                             Maximum     Tolerance    Cnvgd?
         Gradient            0.038694       0.000300      NO
         Displacement        0.094551       0.001200      NO
         Energy change     -0.036515       0.000001      NO


 New Cartesian Coordinates Obtained by Inverse Iteration

 Displacement from previous Coordinates is:  1.096132
 Adding empirical dispersion correction 
 ----------------------------------------------------------------
 Doing -D3(op) with
 s6 =   1.00000
 s8 =   0.78311
 a1 =   0.30000
 a2 =   4.25000
 n  =  10.00000
 -D3 energy without 3body term =     -0.0400185973 hartrees
 ----------------------------------------------------------------
             Standard Nuclear Orientation (Angstroms)
    I     Atom           X                Y                Z
 ----------------------------------------------------------------
    1      C      -1.0852158770    -0.8636662599    -0.6172179273
    2      C       0.3114850976    -0.1192513957    -0.7475627179
    3      C      -2.1745477035    -0.0534241305     0.1722089733
    4      C       0.3093038948     1.3737620957    -0.2540908071
    5      O      -3.4469414139    -0.6220173512    -0.1293045688
    6      O      -1.9933633261     0.8887020475     0.9832062723
    7      O      -0.5528249227     2.0983400458    -1.1366470235
    8      O       0.9650852305     1.8806118351     0.6885675306
    9      C      -0.6185356988     3.5126608630    -0.7164823649
   10      C      -4.5138548689     0.1387153611     0.5599805195
   11      C      -0.6581326498    -2.1629541916     0.1957919401
   12      C       0.1907806315    -3.1067988246    -0.7482079132
   13      C       1.5682085513    -2.3446682113    -0.7724949305
   14      C       1.2437565370    -1.0733565164     0.1240351524
   15      O       0.3327977555    -1.6258181137     1.1570654660
   16      H      -1.4934154124    -1.1101725583    -1.6150431335
   17      H       0.6445160345    -0.1284553251    -1.8026338588
   18      H       0.3808667830     3.9987843595    -0.7317527673
   19      H      -4.5425195788     1.1984758300     0.2261391387
   20      H       0.2885556545    -4.1110126719    -0.3030450385
   21      H      -0.2591425879    -3.2125121955    -1.7492536989
   22      H       2.3670640043    -2.9395183845    -0.2994815239
   23      H       1.8923347099    -2.0705985050    -1.7898132243
   24      H      -1.2860367005     4.0165477028    -1.4420838820
   25      H      -1.0394082575     3.6117572009     0.3078162476
   26      H      -4.3865075419     0.1245462405     1.6642046800
   27      H      -5.4662154183    -0.3580023066     0.2918192141
   28      H      -1.4864375241    -2.6537741362     0.7478140953
   29      C       2.4608948855    -0.3697097077     0.8062876308
   30      O       3.1656399213     0.3780728671    -0.2499012221
   31      H       3.1144978722    -1.1407830233     1.2831467172
   32      H       2.0735855679     0.3073806217     1.6069598286
   33      C       4.1838017889     1.1926503051     0.4206597051
   34      H       4.6967348910     1.7716562435    -0.3728873977
   35      H       4.9445820378     0.5785150515     0.9576226063
   36      H       3.7442701341     1.9075312830     1.1544816483
 ----------------------------------------------------------------
 Molecular Point Group                 C1    NOp =  1
 Largest Abelian Subgroup              C1    NOp =  1
 Nuclear Repulsion Energy =  1492.4839870353 hartrees
 There are       69 alpha and       69 beta electrons
 Applying Cartesian multipole field
    Component          Value
    ---------          -----
     (2,0,0)        1.00000E-12
     (0,2,0)        2.00000E-11
     (0,0,2)       -3.00000E-11
 Nucleus-field energy     =     0.0000000241 hartrees
 Requested basis set is STO-3G
 There are 54 shells and 108 basis functions
 A cutoff of  1.0D-12 yielded   1235 shell pairs
 There are      5489 function pairs
 Smallest overlap matrix eigenvalue = 2.15E-01
 Guess MOs from SCF MO coefficient file
 Reading MOs from coefficient file
 Reading MOs from coefficient file
 A restricted hybrid HF-DFT SCF calculation will be
 performed using Pulay DIIS extrapolation
 Exchange:     0.2000 Hartree-Fock + 0.0800 Slater + 0.7200 B88
 Correlation:  0.1900 VWN1RPA + 0.8100 LYP
 Using SG-1 standard quadrature grid
 Dispersion:   Grimme D3
 SCF converges when DIIS error is below 1.0E-08
 Geometry optimization detected.  Setting ReadMinima to 0
 Setting SaveMinima to 0
 -------------------------------------------------------
 OpenMP Integral computing Module                
 Release: version 1.0, May 2013, Q-Chem Inc. Pittsburgh 
 -------------------------------------------------------
 -------------------------------------------------------
 OpenMP BLAS3 based DFT computing Module                
 Release: version 1.0, May 2013, Q-Chem Inc. Pittsburgh 
 -------------------------------------------------------
 ---------------------------------------
  Cycle       Energy         DIIS Error
 ---------------------------------------
    1    -907.4411396817      4.71E-03
    2    -907.5889586615      1.49E-03
    3    -907.5837416344      2.36E-03
    4    -907.5923213647      5.45E-04
    5    -907.5928249256      1.07E-04
    6    -907.5928446864      2.76E-05
    7    -907.5928455890      1.79E-05
    8    -907.5928460770      6.46E-06
    9    -907.5928461500      1.04E-06
   10    -907.5928461522      2.79E-07
   11    -907.5928461524      7.34E-08
   12    -907.5928461524      2.47E-08
   13    -907.5928461525      6.11E-09 Convergence criterion met
 ---------------------------------------
 SCF time:  CPU 68.44 s  wall 2.88 s
 SCF   energy in the final basis set = -907.5928461525
 Total energy in the final basis set = -907.5928461525
 
 --------------------------------------------------------------
 
                    Orbital Energies (a.u.)
 --------------------------------------------------------------
 
 Alpha MOs
 -- Occupied --
-18.938 -18.925 -18.883 -18.881 -18.874 -18.863 -10.099 -10.091
-10.066 -10.059 -10.057 -10.056 -10.043 -10.039 -10.035 -10.028
-10.018 -10.012  -1.013  -1.000  -0.967  -0.942  -0.935  -0.925
 -0.757  -0.719  -0.714  -0.670  -0.654  -0.640  -0.599  -0.587
 -0.540  -0.522  -0.491  -0.469  -0.452  -0.440  -0.429  -0.415
 -0.413  -0.407  -0.402  -0.401  -0.398  -0.376  -0.369  -0.360
 -0.356  -0.349  -0.338  -0.336  -0.312  -0.308  -0.304  -0.293
 -0.282  -0.273  -0.268  -0.254  -0.246  -0.232  -0.221  -0.180
 -0.168  -0.153  -0.142  -0.141  -0.132
 -- Virtual --
  0.096   0.114   0.230   0.243   0.269   0.280   0.303   0.314
  0.325   0.340   0.345   0.357   0.363   0.374   0.384   0.395
  0.404   0.417   0.420   0.422   0.428   0.429   0.431   0.434
  0.436   0.438   0.439   0.441   0.447   0.457   0.469   0.477
  0.483   0.495   0.511   0.548   0.552   0.644   0.653
 --------------------------------------------------------------
 
          Ground-State Mulliken Net Atomic Charges

     Atom                 Charge (a.u.)
  ----------------------------------------
      1 C                    -0.077535
      2 C                    -0.078727
      3 C                     0.211498
      4 C                     0.220371
      5 O                    -0.169664
      6 O                    -0.210743
      7 O                    -0.173957
      8 O                    -0.212340
      9 C                    -0.126757
     10 C                    -0.126770
     11 C                     0.025259
     12 C                    -0.144176
     13 C                    -0.143202
     14 C                     0.099784
     15 O                    -0.194878
     16 H                     0.085848
     17 H                     0.087494
     18 H                     0.086709
     19 H                     0.088539
     20 H                     0.077087
     21 H                     0.073756
     22 H                     0.075089
     23 H                     0.075731
     24 H                     0.086187
     25 H                     0.091328
     26 H                     0.090238
     27 H                     0.090309
     28 H                     0.082337
     29 C                    -0.051763
     30 O                    -0.191390
     31 H                     0.064884
     32 H                     0.094311
     33 C                    -0.125481
     34 H                     0.078820
     35 H                     0.066156
     36 H                     0.075646
  ----------------------------------------
  Sum of atomic charges =    -0.000000

 -----------------------------------------------------------------
                    Cartesian Multipole Moments
 -----------------------------------------------------------------
    Charge (ESU x 10^10)
                 0.0000
    Dipole Moment (Debye)
         X      -1.1185      Y      -0.3836      Z      -1.0479
       Tot       1.5799
    Quadrupole Moments (Debye-Ang)
        XX     -87.6856     XY      -0.9977     YY     -91.7901
        XZ       0.4261     YZ      -0.6048     ZZ     -99.4433
    Octopole Moments (Debye-Ang^2)
       XXX     -31.5060    XXY      14.8452    XYY      -3.5282
       YYY      30.3400    XXZ      22.4308    XYZ       2.3000
       YYZ      -6.2792    XZZ      -1.4407    YZZ       3.2441
       ZZZ       4.5587
    Hexadecapole Moments (Debye-Ang^3)
      XXXX   -2764.9979   XXXY       6.2790   XXYY    -814.2546
      XYYY     -16.9103   YYYY   -1799.5745   XXXZ      -5.0503
      XXYZ     -17.9287   XYYZ       0.2584   YYYZ     -34.7526
      XXZZ    -571.7400   XYZZ       5.7479   YYZZ    -390.5074
      XZZZ      -6.0203   YZZZ       5.4125   ZZZZ    -396.9327
 -----------------------------------------------------------------
 Calculating analytic gradient of the SCF energy
 Gradient of SCF Energy
            1           2           3           4           5           6
    1   0.0006461   0.0007269  -0.0090521  -0.0034324   0.0029390   0.0009010
    2  -0.0024452   0.0025456  -0.0039075   0.0022711  -0.0015182   0.0047102
    3   0.0047489  -0.0030964  -0.0072185  -0.0078591   0.0014428   0.0072678
            7           8           9          10          11          12
    1  -0.0018826   0.0110345   0.0014361   0.0026251  -0.0004455  -0.0000822
    2  -0.0024642  -0.0032091  -0.0039582  -0.0006153  -0.0012318  -0.0008426
    3  -0.0001065   0.0088397  -0.0011360  -0.0022514  -0.0035795  -0.0008656
           13          14          15          16          17          18
    1  -0.0015506  -0.0029829   0.0017997   0.0005888   0.0011557   0.0011904
    2  -0.0000915   0.0015279   0.0011943   0.0016365  -0.0016705   0.0011952
    3  -0.0013914   0.0011477   0.0013996  -0.0017581  -0.0011885   0.0003747
           19          20          21          22          23          24
    1  -0.0003237  -0.0000671   0.0000677   0.0006747   0.0005380  -0.0007615
    2   0.0017323  -0.0010080  -0.0010484   0.0000703  -0.0005250   0.0002124
    3  -0.0001229  -0.0001265  -0.0005742   0.0002876  -0.0007896  -0.0009807
           25          26          27          28          29          30
    1  -0.0002954  -0.0002636  -0.0010085  -0.0003316   0.0000167  -0.0004004
    2   0.0004974   0.0004049  -0.0004463  -0.0000472   0.0063239   0.0011718
    3   0.0016526   0.0018099  -0.0002424   0.0024514  -0.0041216  -0.0012183
           31          32          33          34          35          36
    1  -0.0000644  -0.0017441  -0.0039954   0.0003373   0.0016182   0.0003882
    2  -0.0010376   0.0021397  -0.0034024   0.0006735  -0.0001763   0.0013383
    3   0.0016883   0.0045467  -0.0010934  -0.0008357   0.0012285   0.0016700
 Max gradient component =       1.103E-02
 RMS gradient           =       2.758E-03
 Gradient time:  CPU 19.31 s  wall 0.81 s
 Geometry Optimization Parameters
   NAtoms,    NIC,     NZ,  NCons,   NDum,   NFix, NCnnct, MaxDiis
       36     276       0       2       0       0       0       0

 Cartesian Hessian Update
 Hessian Updated using BFGS Update


** CONSTRAINED OPTIMIZATION IN DELOCALIZED INTERNAL COORDINATES **
   Searching for a Minimum

   Optimization Cycle:   3

                       Coordinates (Angstroms)
     ATOM                X               Y               Z
      1  C        -1.0852158770   -0.8636662599   -0.6172179273
      2  C         0.3114850976   -0.1192513957   -0.7475627179
      3  C        -2.1745477035   -0.0534241305    0.1722089733
      4  C         0.3093038948    1.3737620957   -0.2540908071
      5  O        -3.4469414139   -0.6220173512   -0.1293045688
      6  O        -1.9933633261    0.8887020475    0.9832062723
      7  O        -0.5528249227    2.0983400458   -1.1366470235
      8  O         0.9650852305    1.8806118351    0.6885675306
      9  C        -0.6185356988    3.5126608630   -0.7164823649
     10  C        -4.5138548689    0.1387153611    0.5599805195
     11  C        -0.6581326498   -2.1629541916    0.1957919401
     12  C         0.1907806315   -3.1067988246   -0.7482079132
     13  C         1.5682085513   -2.3446682113   -0.7724949305
     14  C         1.2437565370   -1.0733565164    0.1240351524
     15  O         0.3327977555   -1.6258181137    1.1570654660
     16  H        -1.4934154124   -1.1101725583   -1.6150431335
     17  H         0.6445160345   -0.1284553251   -1.8026338588
     18  H         0.3808667830    3.9987843595   -0.7317527673
     19  H        -4.5425195788    1.1984758300    0.2261391387
     20  H         0.2885556545   -4.1110126719   -0.3030450385
     21  H        -0.2591425879   -3.2125121955   -1.7492536989
     22  H         2.3670640043   -2.9395183845   -0.2994815239
     23  H         1.8923347099   -2.0705985050   -1.7898132243
     24  H        -1.2860367005    4.0165477028   -1.4420838820
     25  H        -1.0394082575    3.6117572009    0.3078162476
     26  H        -4.3865075419    0.1245462405    1.6642046800
     27  H        -5.4662154183   -0.3580023066    0.2918192141
     28  H        -1.4864375241   -2.6537741362    0.7478140953
     29  C         2.4608948855   -0.3697097077    0.8062876308
     30  O         3.1656399213    0.3780728671   -0.2499012221
     31  H         3.1144978722   -1.1407830233    1.2831467172
     32  H         2.0735855679    0.3073806217    1.6069598286
     33  C         4.1838017889    1.1926503051    0.4206597051
     34  H         4.6967348910    1.7716562435   -0.3728873977
     35  H         4.9445820378    0.5785150515    0.9576226063
     36  H         3.7442701341    1.9075312830    1.1544816483
   Point Group: c1    Number of degrees of freedom:   102


   Energy is   -907.592846152

              Constraints and their Current Values
                                        Value     Constraint
   Dihedral:        1   2   4   8      117.406      117.400
   Dihedral:        2   1   3   6      -20.606      -20.600
 Hessian Updated using BFGS Update

   Using Lagrange Multiplier Algorithm


 92 Hessian modes will be used to form the next step
  Hessian Eigenvalues:
    -0.977575   -0.977288    0.043785    0.045000    0.045001    0.045027
     0.045121    0.045618    0.048929    0.059502    0.061802    0.068011
     0.068317    0.073007    0.073678    0.074150    0.077299    0.079493
     0.081623    0.081887    0.083423    0.084130    0.085696    0.086681
     0.090074    0.090300    0.091607    0.097528    0.109590    0.112978
     0.114755    0.115001    0.116609    0.117174    0.118135    0.118498
     0.120121    0.121754    0.124473    0.139114    0.140750    0.142818
     0.159660    0.160042    0.161688    0.174487    0.185018    0.220382
     0.228195    0.238476    0.241819    0.249871    0.250000    0.250234
     0.251924    0.257000    0.272001    0.281421    0.297597    0.305839
     0.311889    0.333454    0.334489    0.334959    0.338232    0.341555
     0.342142    0.342322    0.342704    0.342939    0.342991    0.343888
     0.344083    0.344506    0.344696    0.345526    0.346841    0.347817
     0.349494    0.349956    0.372649    0.378416    0.387004    0.401088
     0.417952    0.431480    0.503257    0.549423    0.990343    1.017284
     1.023141    1.049500

 Minimum Search - Taking P-RFO Step
 Searching for Lamda that Maximizes Along the Constraint modes Only
 Value Taken    Lamda =   0.00000800
 Searching for Lamda that Minimizes Along All other modes
 Value Taken    Lamda =  -0.00446662
 Step Taken.  Stepsize is  0.164663

                             Maximum     Tolerance    Cnvgd?
         Gradient            0.014831       0.000300      NO
         Displacement        0.064963       0.001200      NO
         Energy change     -0.007518       0.000001      NO


 New Cartesian Coordinates Obtained by Inverse Iteration

 Displacement from previous Coordinates is:  0.978876
 Adding empirical dispersion correction 
 ----------------------------------------------------------------
 Doing -D3(op) with
 s6 =   1.00000
 s8 =   0.78311
 a1 =   0.30000
 a2 =   4.25000
 n  =  10.00000
 -D3 energy without 3body term =     -0.0399507889 hartrees
 ----------------------------------------------------------------
             Standard Nuclear Orientation (Angstroms)
    I     Atom           X                Y                Z
 ----------------------------------------------------------------
    1      C      -1.0633478750    -0.8489772553    -0.6271359467
    2      C       0.3267380781    -0.1032440431    -0.7280512772
    3      C      -2.1406558392    -0.0240692234     0.1552075411
    4      C       0.2492414933     1.3955570559    -0.2447367244
    5      O      -3.4288663832    -0.5689320784    -0.1525671752
    6      O      -1.9465909583     0.9106825387     0.9668054542
    7      O      -0.6036593679     2.0784589438    -1.1783929750
    8      O       0.8293797961     1.9621949113     0.7072504964
    9      C      -0.7648175464     3.4894340569    -0.7585793741
   10      C      -4.4765490528     0.1831658501     0.5795529539
   11      C      -0.6508834147    -2.1496834414     0.1891693263
   12      C       0.1989092092    -3.0854004669    -0.7574112479
   13      C       1.5805625794    -2.3332411210    -0.7678582945
   14      C       1.2603135559    -1.0708673754     0.1379011635
   15      O       0.3371488111    -1.6281055523     1.1623195213
   16      H      -1.4657951490    -1.1008073426    -1.6247576620
   17      H       0.6720528346    -0.0995061046    -1.7777458474
   18      H       0.2082658021     4.0212117872    -0.7191918718
   19      H      -4.4932339417     1.2520361327     0.2823849374
   20      H       0.2881874723    -4.0941920727    -0.3229895100
   21      H      -0.2484696266    -3.1711630466    -1.7608527886
   22      H       2.3728714243    -2.9394553536    -0.2995766434
   23      H       1.9077101097    -2.0458620534    -1.7798093104
   24      H      -1.4143944535     3.9643972940    -1.5174213230
   25      H      -1.2467948501     3.5599898916     0.2386907060
   26      H      -4.3308288820     0.1255775564     1.6780348896
   27      H      -5.4385015377    -0.2904841180     0.3085660165
   28      H      -1.4883860278    -2.6428029367     0.7220752532
   29      C       2.4950311566    -0.4045886229     0.8233893263
   30      O       3.2197300439     0.3341125831    -0.2315484708
   31      H       3.1332097776    -1.1924709654     1.2885670940
   32      H       2.1278327392     0.2758364260     1.6237377344
   33      C       4.2585884456     1.1260559630     0.4444567721
   34      H       4.7893531661     1.6927276265    -0.3445989306
   35      H       4.9959738189     0.4883344720     0.9814201751
   36      H       3.8263370930     1.8462962291     1.1735993778
 ----------------------------------------------------------------
 Molecular Point Group                 C1    NOp =  1
 Largest Abelian Subgroup              C1    NOp =  1
 Nuclear Repulsion Energy =  1491.2295814483 hartrees
 There are       69 alpha and       69 beta electrons
 Applying Cartesian multipole field
    Component          Value
    ---------          -----
     (2,0,0)        1.00000E-12
     (0,2,0)        2.00000E-11
     (0,0,2)       -3.00000E-11
 Nucleus-field energy     =     0.0000000237 hartrees
 Requested basis set is STO-3G
 There are 54 shells and 108 basis functions
 A cutoff of  1.0D-12 yielded   1232 shell pairs
 There are      5483 function pairs
 Smallest overlap matrix eigenvalue = 2.14E-01
 Guess MOs from SCF MO coefficient file
 Reading MOs from coefficient file
 Reading MOs from coefficient file
 A restricted hybrid HF-DFT SCF calculation will be
 performed using Pulay DIIS extrapolation
 Exchange:     0.2000 Hartree-Fock + 0.0800 Slater + 0.7200 B88
 Correlation:  0.1900 VWN1RPA + 0.8100 LYP
 Using SG-1 standard quadrature grid
 Dispersion:   Grimme D3
 SCF converges when DIIS error is below 1.0E-08
 Geometry optimization detected.  Setting ReadMinima to 0
 Setting SaveMinima to 0
 -------------------------------------------------------
 OpenMP Integral computing Module                
 Release: version 1.0, May 2013, Q-Chem Inc. Pittsburgh 
 -------------------------------------------------------
 -------------------------------------------------------
 OpenMP BLAS3 based DFT computing Module                
 Release: version 1.0, May 2013, Q-Chem Inc. Pittsburgh 
 -------------------------------------------------------
 ---------------------------------------
  Cycle       Energy         DIIS Error
 ---------------------------------------
    1    -907.5856263489      3.22E-03
    2    -907.5943103538      3.45E-04
    3    -907.5937580204      6.90E-04
    4    -907.5945504504      1.17E-04
    5    -907.5945710278      4.06E-05
    6    -907.5945736498      1.25E-05
    7    -907.5945738649      6.94E-06
    8    -907.5945739407      1.83E-06
    9    -907.5945739464      3.21E-07
   10    -907.5945739466      1.10E-07
   11    -907.5945739466      1.63E-08
   12    -907.5945739466      8.64E-09 Convergence criterion met
 ---------------------------------------
 SCF time:  CPU 60.50 s  wall 2.54 s
 SCF   energy in the final basis set = -907.5945739466
 Total energy in the final basis set = -907.5945739466
 
 --------------------------------------------------------------
 
                    Orbital Energies (a.u.)
 --------------------------------------------------------------
 
 Alpha MOs
 -- Occupied --
-18.937 -18.918 -18.884 -18.882 -18.878 -18.862 -10.100 -10.089
-10.066 -10.060 -10.059 -10.053 -10.047 -10.041 -10.035 -10.029
-10.018 -10.013  -1.013  -0.996  -0.968  -0.941  -0.937  -0.922
 -0.760  -0.721  -0.715  -0.670  -0.653  -0.641  -0.601  -0.588
 -0.541  -0.523  -0.491  -0.467  -0.452  -0.442  -0.431  -0.415
 -0.414  -0.407  -0.402  -0.401  -0.398  -0.378  -0.369  -0.361
 -0.356  -0.350  -0.339  -0.336  -0.313  -0.309  -0.306  -0.293
 -0.284  -0.274  -0.268  -0.255  -0.244  -0.233  -0.222  -0.180
 -0.164  -0.155  -0.143  -0.142  -0.133
 -- Virtual --
  0.095   0.118   0.225   0.242   0.267   0.280   0.302   0.311
  0.324   0.340   0.342   0.355   0.362   0.373   0.384   0.395
  0.405   0.417   0.421   0.424   0.428   0.430   0.431   0.434
  0.436   0.439   0.440   0.442   0.450   0.457   0.469   0.475
  0.481   0.495   0.510   0.547   0.553   0.645   0.660
 --------------------------------------------------------------
 
          Ground-State Mulliken Net Atomic Charges

     Atom                 Charge (a.u.)
  ----------------------------------------
      1 C                    -0.078195
      2 C                    -0.078423
      3 C                     0.213250
      4 C                     0.219416
      5 O                    -0.168669
      6 O                    -0.209485
      7 O                    -0.177650
      8 O                    -0.213973
      9 C                    -0.128796
     10 C                    -0.128629
     11 C                     0.024988
     12 C                    -0.144279
     13 C                    -0.143328
     14 C                     0.100223
     15 O                    -0.194176
     16 H                     0.087021
     17 H                     0.088068
     18 H                     0.086786
     19 H                     0.089157
     20 H                     0.077268
     21 H                     0.073922
     22 H                     0.075639
     23 H                     0.076676
     24 H                     0.085255
     25 H                     0.090996
     26 H                     0.090349
     27 H                     0.090564
     28 H                     0.082827
     29 C                    -0.053353
     30 O                    -0.189717
     31 H                     0.068097
     32 H                     0.091693
     33 C                    -0.127727
     34 H                     0.080469
     35 H                     0.067551
     36 H                     0.076186
  ----------------------------------------
  Sum of atomic charges =    -0.000000

 -----------------------------------------------------------------
                    Cartesian Multipole Moments
 -----------------------------------------------------------------
    Charge (ESU x 10^10)
                -0.0000
    Dipole Moment (Debye)
         X      -1.0210      Y      -0.6089      Z      -0.9834
       Tot       1.5428
    Quadrupole Moments (Debye-Ang)
        XX     -86.9588     XY      -1.3273     YY     -92.4027
        XZ       0.4767     YZ      -0.7475     ZZ     -99.5861
    Octopole Moments (Debye-Ang^2)
       XXX     -27.3468    XXY      15.2322    XYY      -4.5671
       YYY      26.3220    XXZ      23.9404    XYZ       2.1979
       YYZ      -6.6900    XZZ      -1.2190    YZZ       2.3440
       ZZZ       4.8359
    Hexadecapole Moments (Debye-Ang^3)
      XXXX   -2778.8528   XXXY      38.4720   XXYY    -811.1436
      XYYY      13.0285   YYYY   -1791.3081   XXXZ     -13.1940
      XXYZ     -16.7582   XYYZ      -1.5854   YYYZ     -33.6033
      XXZZ    -575.0403   XYZZ      16.4453   YYZZ    -390.3354
      XZZZ     -15.1360   YZZZ       7.6644   ZZZZ    -404.7326
 -----------------------------------------------------------------
 Calculating analytic gradient of the SCF energy
 Gradient of SCF Energy
            1           2           3           4           5           6
    1   0.0015771  -0.0017374  -0.0005815  -0.0025286  -0.0003814   0.0010206
    2  -0.0007027   0.0009171   0.0027311  -0.0002882  -0.0031051   0.0015204
    3   0.0021345  -0.0007188  -0.0034014  -0.0034277  -0.0007634   0.0033632
            7           8           9          10          11          12
    1  -0.0011763   0.0004417   0.0007160   0.0006914  -0.0014642  -0.0000433
    2  -0.0023980   0.0024836   0.0003862   0.0008437  -0.0014840   0.0002420
    3   0.0003818   0.0023178   0.0005191  -0.0000943  -0.0027848  -0.0000353
           13          14          15          16          17          18
    1   0.0003818   0.0001801   0.0010224   0.0005631   0.0002889   0.0002451
    2  -0.0002760   0.0000210   0.0003593   0.0007168  -0.0019947   0.0003168
    3  -0.0000132  -0.0003902   0.0016084  -0.0009382  -0.0002150  -0.0000899
           19          20          21          22          23          24
    1  -0.0001047  -0.0000488  -0.0000741   0.0002962   0.0000629  -0.0002024
    2   0.0003587  -0.0002591  -0.0000270  -0.0002043  -0.0000697   0.0003404
    3  -0.0000506   0.0001520  -0.0001817   0.0000997  -0.0002550  -0.0001110
           25          26          27          28          29          30
    1  -0.0002325  -0.0001025  -0.0003037  -0.0000004   0.0009159   0.0000515
    2   0.0001994   0.0000560  -0.0001057   0.0000740   0.0001493   0.0004230
    3   0.0002561   0.0003610  -0.0000341   0.0010930   0.0019889  -0.0017236
           31          32          33          34          35          36
    1   0.0002593  -0.0001732   0.0000234   0.0002517   0.0002046  -0.0000386
    2  -0.0004061  -0.0009858  -0.0000422   0.0003956  -0.0001501  -0.0000355
    3  -0.0000869   0.0004981   0.0005498  -0.0001537   0.0000145   0.0001310
 Max gradient component =       3.428E-03
 RMS gradient           =       1.099E-03
 Gradient time:  CPU 18.92 s  wall 0.80 s
 Geometry Optimization Parameters
   NAtoms,    NIC,     NZ,  NCons,   NDum,   NFix, NCnnct, MaxDiis
       36     276       0       2       0       0       0       0

 Cartesian Hessian Update
 Hessian Updated using BFGS Update


** CONSTRAINED OPTIMIZATION IN DELOCALIZED INTERNAL COORDINATES **
   Searching for a Minimum

   Optimization Cycle:   4

                       Coordinates (Angstroms)
     ATOM                X               Y               Z
      1  C        -1.0633478750   -0.8489772553   -0.6271359467
      2  C         0.3267380781   -0.1032440431   -0.7280512772
      3  C        -2.1406558392   -0.0240692234    0.1552075411
      4  C         0.2492414933    1.3955570559   -0.2447367244
      5  O        -3.4288663832   -0.5689320784   -0.1525671752
      6  O        -1.9465909583    0.9106825387    0.9668054542
      7  O        -0.6036593679    2.0784589438   -1.1783929750
      8  O         0.8293797961    1.9621949113    0.7072504964
      9  C        -0.7648175464    3.4894340569   -0.7585793741
     10  C        -4.4765490528    0.1831658501    0.5795529539
     11  C        -0.6508834147   -2.1496834414    0.1891693263
     12  C         0.1989092092   -3.0854004669   -0.7574112479
     13  C         1.5805625794   -2.3332411210   -0.7678582945
     14  C         1.2603135559   -1.0708673754    0.1379011635
     15  O         0.3371488111   -1.6281055523    1.1623195213
     16  H        -1.4657951490   -1.1008073426   -1.6247576620
     17  H         0.6720528346   -0.0995061046   -1.7777458474
     18  H         0.2082658021    4.0212117872   -0.7191918718
     19  H        -4.4932339417    1.2520361327    0.2823849374
     20  H         0.2881874723   -4.0941920727   -0.3229895100
     21  H        -0.2484696266   -3.1711630466   -1.7608527886
     22  H         2.3728714243   -2.9394553536   -0.2995766434
     23  H         1.9077101097   -2.0458620534   -1.7798093104
     24  H        -1.4143944535    3.9643972940   -1.5174213230
     25  H        -1.2467948501    3.5599898916    0.2386907060
     26  H        -4.3308288820    0.1255775564    1.6780348896
     27  H        -5.4385015377   -0.2904841180    0.3085660165
     28  H        -1.4883860278   -2.6428029367    0.7220752532
     29  C         2.4950311566   -0.4045886229    0.8233893263
     30  O         3.2197300439    0.3341125831   -0.2315484708
     31  H         3.1332097776   -1.1924709654    1.2885670940
     32  H         2.1278327392    0.2758364260    1.6237377344
     33  C         4.2585884456    1.1260559630    0.4444567721
     34  H         4.7893531661    1.6927276265   -0.3445989306
     35  H         4.9959738189    0.4883344720    0.9814201751
     36  H         3.8263370930    1.8462962291    1.1735993778
   Point Group: c1    Number of degrees of freedom:   102


   Energy is   -907.594573947

              Constraints and their Current Values
                                        Value     Constraint
   Dihedral:        1   2   4   8      117.400      117.400
   Dihedral:        2   1   3   6      -20.600      -20.600
 Hessian Updated using BFGS Update

   Using Lagrange Multiplier Algorithm


 95 Hessian modes will be used to form the next step
  Hessian Eigenvalues:
    -0.977609   -0.976718    0.040131    0.045000    0.045000    0.045016
     0.045084    0.045140    0.045630    0.048897    0.059048    0.061384
     0.068004    0.068112    0.072952    0.073697    0.074099    0.077468
     0.079923    0.081637    0.081882    0.083381    0.084333    0.085969
     0.086511    0.090049    0.090308    0.091570    0.097582    0.109598
     0.112983    0.114818    0.115014    0.116609    0.116924    0.118135
     0.118498    0.120083    0.122010    0.125010    0.139310    0.140743
     0.146170    0.159800    0.160002    0.160053    0.161692    0.176676
     0.195892    0.220383    0.231939    0.239402    0.244322    0.249565
     0.249939    0.250000    0.250211    0.251842    0.256994    0.271465
     0.281159    0.301532    0.307114    0.311347    0.334109    0.334559
     0.334959    0.338454    0.340967    0.342135    0.342568    0.342804
     0.342901    0.342993    0.343956    0.344078    0.344509    0.344697
     0.345512    0.346859    0.347828    0.349494    0.349957    0.366393
     0.385229    0.400673    0.413523    0.429845    0.439864    0.503884
     0.553653    0.987300    1.010721    1.023078    1.033447

 Minimum Search - Taking P-RFO Step
 Searching for Lamda that Maximizes Along the Constraint modes Only
 Value Taken    Lamda =   0.00000218
 Searching for Lamda that Minimizes Along All other modes
 Value Taken    Lamda =  -0.00052365
 Step Taken.  Stepsize is  0.070895

                             Maximum     Tolerance    Cnvgd?
         Gradient            0.005040       0.000300      NO
         Displacement        0.019903       0.001200      NO
         Energy change     -0.001728       0.000001      NO


 New Cartesian Coordinates Obtained by Inverse Iteration

 Displacement from previous Coordinates is:  0.336519
 Adding empirical dispersion correction 
 ----------------------------------------------------------------
 Doing -D3(op) with
 s6 =   1.00000
 s8 =   0.78311
 a1 =   0.30000
 a2 =   4.25000
 n  =  10.00000
 -D3 energy without 3body term =     -0.0399198001 hartrees
 ----------------------------------------------------------------
             Standard Nuclear Orientation (Angstroms)
    I     Atom           X                Y                Z
 ----------------------------------------------------------------
    1      C      -1.0685281409    -0.8459093506    -0.6282634988
    2      C       0.3260230365    -0.0970113521    -0.7240692117
    3      C      -2.1515808926    -0.0331601077     0.1560146737
    4      C       0.2626861785     1.4006986152    -0.2350625866
    5      O      -3.4378589945    -0.5748499311    -0.1617933412
    6      O      -1.9646938282     0.8950003956     0.9740054231
    7      O      -0.5643924855     2.1019346361    -1.1790925296
    8      O       0.8493880523     1.9567905863     0.7167093618
    9      C      -0.7226530311     3.5125096879    -0.7615861524
   10      C      -4.4971295310     0.1457828054     0.5838769204
   11      C      -0.6569858808    -2.1445176261     0.1902533150
   12      C       0.1945079922    -3.0819305436    -0.7523449066
   13      C       1.5753517177    -2.3311461516    -0.7597343080
   14      C       1.2535706956    -1.0682763078     0.1423055092
   15      O       0.3262162526    -1.6220426610     1.1643852558
   16      H      -1.4711024734    -1.0993158402    -1.6246314187
   17      H       0.6734729236    -0.0836766738    -1.7724360805
   18      H       0.2537672881     4.0347614183    -0.7003327634
   19      H      -4.5243768106     1.2209492797     0.3136809372
   20      H       0.2821528502    -4.0898742201    -0.3168106456
   21      H      -0.2498037351    -3.1682497461    -1.7567235328
   22      H       2.3653848773    -2.9371200613    -0.2885360363
   23      H       1.9057017972    -2.0445008610    -1.7704123607
   24      H      -1.3515543602     3.9928315891    -1.5336167521
   25      H      -1.2247473762     3.5846251414     0.2249270987
   26      H      -4.3542321645     0.0615729526     1.6804174221
   27      H      -5.4519159402    -0.3317744379     0.2968214454
   28      H      -1.4972475296    -2.6382251830     0.7166783520
   29      C       2.4874482844    -0.4014252944     0.8245530189
   30      O       3.2152742802     0.3240679109    -0.2351423884
   31      H       3.1242268494    -1.1849446910     1.2976368376
   32      H       2.1224649817     0.2900292673     1.6156582302
   33      C       4.2530523042     1.1277224894     0.4270417226
   34      H       4.7846803727     1.6772690851    -0.3725761813
   35      H       4.9889569390     0.5007479735     0.9776533060
   36      H       3.8201380021     1.8628733512     1.1404492305
 ----------------------------------------------------------------
 Molecular Point Group                 C1    NOp =  1
 Largest Abelian Subgroup              C1    NOp =  1
 Nuclear Repulsion Energy =  1490.2966936606 hartrees
 There are       69 alpha and       69 beta electrons
 Applying Cartesian multipole field
    Component          Value
    ---------          -----
     (2,0,0)        1.00000E-12
     (0,2,0)        2.00000E-11
     (0,0,2)       -3.00000E-11
 Nucleus-field energy     =     0.0000000238 hartrees
 Requested basis set is STO-3G
 There are 54 shells and 108 basis functions
 A cutoff of  1.0D-12 yielded   1233 shell pairs
 There are      5484 function pairs
 Smallest overlap matrix eigenvalue = 2.14E-01
 Guess MOs from SCF MO coefficient file
 Reading MOs from coefficient file
 Reading MOs from coefficient file
 A restricted hybrid HF-DFT SCF calculation will be
 performed using Pulay DIIS extrapolation
 Exchange:     0.2000 Hartree-Fock + 0.0800 Slater + 0.7200 B88
 Correlation:  0.1900 VWN1RPA + 0.8100 LYP
 Using SG-1 standard quadrature grid
 Dispersion:   Grimme D3
 SCF converges when DIIS error is below 1.0E-08
 Geometry optimization detected.  Setting ReadMinima to 0
 Setting SaveMinima to 0
 -------------------------------------------------------
 OpenMP Integral computing Module                
 Release: version 1.0, May 2013, Q-Chem Inc. Pittsburgh 
 -------------------------------------------------------
 -------------------------------------------------------
 OpenMP BLAS3 based DFT computing Module                
 Release: version 1.0, May 2013, Q-Chem Inc. Pittsburgh 
 -------------------------------------------------------
 ---------------------------------------
  Cycle       Energy         DIIS Error
 ---------------------------------------
    1    -907.6012662795      9.40E-04
    2    -907.5948430799      9.53E-05
    3    -907.5948406816      1.22E-04
    4    -907.5948652384      2.96E-05
    5    -907.5948659842      2.20E-05
    6    -907.5948667713      3.77E-06
    7    -907.5948667969      8.58E-07
    8    -907.5948667978      5.93E-07
    9    -907.5948667983      2.21E-07
   10    -907.5948667984      4.35E-08
   11    -907.5948667985      1.27E-08
   12    -907.5948667984      3.42E-09 Convergence criterion met
 ---------------------------------------
 SCF time:  CPU 61.31 s  wall 2.58 s
 SCF   energy in the final basis set = -907.5948667984
 Total energy in the final basis set = -907.5948667984
 
 --------------------------------------------------------------
 
                    Orbital Energies (a.u.)
 --------------------------------------------------------------
 
 Alpha MOs
 -- Occupied --
-18.936 -18.918 -18.883 -18.883 -18.877 -18.863 -10.100 -10.090
-10.066 -10.060 -10.059 -10.054 -10.047 -10.041 -10.036 -10.030
-10.018 -10.013  -1.013  -0.997  -0.968  -0.941  -0.937  -0.923
 -0.759  -0.722  -0.716  -0.671  -0.653  -0.641  -0.601  -0.588
[...]
 H          0.005  0.001 -0.017    0.000  0.000  0.000   -0.014 -0.001  0.044
 H          0.532  0.322 -0.014    0.078  0.047 -0.002    0.001  0.000 -0.000
 H          0.008 -0.089  0.010   -0.055  0.609 -0.065    0.000 -0.004  0.000
 H         -0.000  0.002 -0.001   -0.001  0.006 -0.003   -0.066  0.554 -0.220
 H          0.001  0.000  0.002    0.002  0.000  0.006    0.247  0.009  0.569
 H         -0.004  0.003 -0.003   -0.003  0.002 -0.002    0.287 -0.232  0.172
 H         -0.001 -0.001  0.004   -0.001 -0.001  0.002    0.079  0.092 -0.249
 H         -0.287  0.146 -0.320   -0.042  0.021 -0.047   -0.001  0.000 -0.001
 H         -0.263  0.025  0.561   -0.038  0.004  0.082   -0.000  0.000  0.001
 H         -0.012  0.023 -0.089    0.086 -0.160  0.612   -0.001  0.001 -0.005
 H          0.051  0.030  0.025   -0.347 -0.207 -0.169    0.002  0.001  0.001
 H          0.001  0.001 -0.001   -0.003 -0.002  0.001   -0.038 -0.028  0.021
 C         -0.000  0.000 -0.000   -0.000  0.000 -0.000   -0.000  0.000 -0.001
 O          0.000  0.000 -0.000    0.000  0.000  0.000    0.000 -0.000 -0.000
 H          0.001 -0.002  0.001    0.001 -0.001  0.001    0.008 -0.010  0.007
 H         -0.000 -0.000 -0.000   -0.000  0.000 -0.000   -0.004  0.008  0.009
 C         -0.000 -0.000 -0.000   -0.000 -0.000 -0.000   -0.000  0.000  0.000
 H         -0.000 -0.000  0.000   -0.000 -0.000  0.000   -0.000 -0.000  0.000
 H          0.001 -0.001  0.001    0.001 -0.001  0.001    0.001 -0.000  0.001
 H         -0.001  0.001  0.001   -0.001  0.001  0.001    0.003 -0.004 -0.003
 TransDip   0.017 -0.184  0.018    0.175 -0.062 -0.073   -0.116 -0.100 -0.062

 Mode:                91                     92                     93
 Frequency:      3070.35                3081.07                3093.10
 Force Cnst:      5.9053                 6.0632                 6.1554
 Red. Mass:       1.0632                 1.0841                 1.0920
 IR Active:          YES                    YES                    YES
 IR Intens:       28.366                  3.618                  8.122
 Raman Active:       YES                    YES                    YES
               X      Y      Z        X      Y      Z        X      Y      Z
 C         -0.001 -0.001 -0.002    0.006  0.003  0.016    0.000  0.000  0.001
 C          0.003  0.000 -0.010    0.023  0.003 -0.076    0.000  0.000 -0.002
 C         -0.000 -0.000 -0.000   -0.000  0.000  0.000   -0.000 -0.000 -0.000
 C         -0.000 -0.000 -0.000   -0.000 -0.000 -0.002   -0.000 -0.000 -0.001
 O         -0.000  0.000  0.000    0.000 -0.000 -0.000    0.000  0.000  0.000
 O         -0.000  0.000  0.000    0.000 -0.000 -0.000    0.000  0.000  0.000
 O         -0.000  0.000  0.000   -0.000  0.000  0.000    0.000 -0.000  0.000
 O          0.000  0.000  0.000    0.000  0.000  0.000    0.001 -0.001  0.001
 C          0.000 -0.000 -0.000    0.000 -0.001 -0.000    0.000 -0.000  0.000
 C          0.000 -0.000 -0.000   -0.000  0.000  0.000    0.000  0.000  0.000
 C         -0.002 -0.002  0.002    0.000  0.000 -0.000    0.000  0.000 -0.000
 C          0.012  0.023  0.024   -0.002  0.004 -0.005    0.000 -0.001  0.001
 C         -0.056  0.022  0.008    0.009 -0.010  0.010    0.002  0.001 -0.002
 C         -0.000 -0.001 -0.001    0.001 -0.000 -0.000    0.001 -0.001 -0.000
 O         -0.000 -0.000 -0.000   -0.000 -0.000  0.000   -0.000  0.000  0.000
 H          0.008  0.005  0.021   -0.075 -0.036 -0.190   -0.005 -0.002 -0.012
 H         -0.037 -0.003  0.119   -0.281 -0.024  0.912   -0.008 -0.001  0.026
 H          0.005  0.003 -0.000    0.009  0.006 -0.000    0.000  0.000 -0.000
 H         -0.000  0.004 -0.000    0.000 -0.003  0.000    0.000 -0.000  0.000
 H          0.030 -0.252  0.103    0.005 -0.045  0.016   -0.002  0.015 -0.006
 H         -0.166 -0.008 -0.381    0.020  0.002  0.046   -0.002 -0.000 -0.003
 H          0.513 -0.414  0.308   -0.126  0.099 -0.070   -0.014  0.012 -0.008
 H          0.128  0.151 -0.399    0.018  0.014 -0.043   -0.012 -0.013  0.035
 H         -0.003  0.002 -0.003   -0.005  0.002 -0.005   -0.001  0.001 -0.001
 H         -0.003  0.000  0.006   -0.004  0.001  0.009   -0.000  0.000  0.000
 H          0.001 -0.001  0.005   -0.000  0.001 -0.004   -0.000  0.000 -0.000
 H         -0.002 -0.001 -0.001    0.002  0.001  0.001   -0.000 -0.000 -0.000
 H          0.034  0.024 -0.020   -0.004 -0.003  0.003   -0.003 -0.002  0.002
 C         -0.000 -0.001 -0.002   -0.000  0.002  0.002    0.031 -0.066 -0.048
 O          0.000 -0.000 -0.000   -0.000 -0.000  0.000    0.001  0.000 -0.000
 H          0.011 -0.014  0.010   -0.003  0.002 -0.002   -0.092  0.132 -0.091
 H         -0.010  0.024  0.025    0.010 -0.021 -0.020   -0.300  0.660  0.652
 C         -0.000  0.000 -0.000   -0.000 -0.000  0.000   -0.005  0.000  0.003
 H         -0.001 -0.000  0.002    0.001  0.001 -0.002    0.029  0.023 -0.041
 H          0.003 -0.002  0.003    0.001 -0.000  0.001    0.013 -0.012  0.014
 H          0.002 -0.003 -0.002   -0.000  0.001  0.000    0.013 -0.008 -0.008
 TransDip  -0.102  0.122  0.063    0.045  0.029 -0.029    0.039 -0.053 -0.063

 Mode:                94                     95                     96
 Frequency:      3099.82                3111.38                3111.61
 Force Cnst:      6.2536                 6.2611                 6.2076
 Red. Mass:       1.1046                 1.0977                 1.0882
 IR Active:          YES                    YES                    YES
 IR Intens:        5.280                 28.811                  5.804
 Raman Active:       YES                    YES                    YES
               X      Y      Z        X      Y      Z        X      Y      Z
 C         -0.006 -0.003 -0.015    0.006  0.003  0.016   -0.028 -0.014 -0.070
 C          0.004  0.001 -0.012   -0.001 -0.000  0.002    0.004  0.001 -0.011
 C         -0.000 -0.000 -0.000    0.000  0.000  0.000   -0.002 -0.001 -0.001
 C         -0.000 -0.000 -0.000   -0.000 -0.000 -0.000    0.000  0.000 -0.000
 O          0.000 -0.000  0.000   -0.000 -0.000 -0.000    0.000  0.000  0.000
 O          0.000  0.000  0.000   -0.000 -0.000 -0.000    0.000  0.001  0.000
 O          0.000 -0.000  0.000    0.000 -0.000  0.000    0.000 -0.000  0.000
 O          0.000  0.000  0.000    0.000 -0.000  0.000    0.000 -0.000  0.000
 C         -0.000 -0.000  0.000   -0.000 -0.000  0.000    0.000 -0.000  0.000
 C          0.000  0.000  0.000   -0.000  0.000  0.000    0.001 -0.000  0.000
 C          0.008  0.004 -0.004   -0.001 -0.000  0.001    0.004  0.002 -0.003
 C          0.024 -0.050  0.062    0.001 -0.001  0.002   -0.003  0.003 -0.008
 C          0.002  0.016 -0.032   -0.000  0.003 -0.005    0.003 -0.015  0.025
 C         -0.000  0.000 -0.000   -0.000  0.000 -0.000    0.001 -0.001  0.000
 O         -0.000 -0.000  0.000   -0.000 -0.000 -0.000    0.000  0.000  0.000
 H          0.069  0.037  0.176   -0.073 -0.036 -0.186    0.327  0.162  0.827
 H         -0.044 -0.004  0.142    0.010  0.001 -0.029   -0.046 -0.004  0.138
 H          0.001  0.001 -0.000    0.002  0.001 -0.000    0.001  0.000  0.000
 H         -0.000  0.000 -0.000    0.000 -0.002  0.000   -0.001  0.008 -0.001
 H         -0.065  0.624 -0.226   -0.001  0.011 -0.004    0.005 -0.038  0.014
 H         -0.224 -0.028 -0.517   -0.008 -0.001 -0.020    0.037  0.004  0.089
 H          0.089 -0.070  0.046    0.023 -0.018  0.012   -0.120  0.094 -0.065
 H         -0.116 -0.119  0.335   -0.017 -0.017  0.049    0.082  0.082 -0.230
 H         -0.000  0.000 -0.000    0.000 -0.000  0.000   -0.001  0.000 -0.001
 H          0.000  0.000 -0.000    0.002 -0.000 -0.004    0.000  0.000 -0.001
 H         -0.000  0.000 -0.000   -0.000  0.000 -0.002   -0.000 -0.000  0.002
 H         -0.000 -0.000 -0.000    0.001  0.000  0.000   -0.004 -0.002 -0.002
 H         -0.083 -0.054  0.051    0.008  0.005 -0.004   -0.048 -0.030  0.029
 C         -0.001  0.002  0.001    0.001 -0.004 -0.002    0.001 -0.002 -0.001
 O          0.000  0.000  0.000    0.000  0.000 -0.000    0.000  0.000 -0.000
 H          0.005 -0.007  0.005   -0.005  0.006 -0.004   -0.007  0.008 -0.006
 H          0.008 -0.018 -0.017   -0.017  0.032  0.033   -0.008  0.017  0.017
 C          0.000 -0.000 -0.000    0.043  0.021 -0.074    0.009  0.005 -0.016
 H          0.000  0.000 -0.000   -0.496 -0.355  0.705   -0.109 -0.078  0.155
 H         -0.000  0.000 -0.000    0.093 -0.073  0.070    0.020 -0.016  0.015
 H         -0.001  0.001  0.001   -0.108  0.181  0.103   -0.023  0.039  0.022
 TransDip   0.052 -0.050  0.016    0.117  0.064 -0.108   -0.011 -0.023 -0.073

 Mode:                97                     98                     99
 Frequency:      3122.66                3123.15                3123.72
 Force Cnst:      6.3423                 6.3623                 6.3655
 Red. Mass:       1.1039                 1.1071                 1.1072
 IR Active:          YES                    YES                    YES
 IR Intens:       25.130                 26.641                 14.626
 Raman Active:       YES                    YES                    YES
               X      Y      Z        X      Y      Z        X      Y      Z
 C         -0.007 -0.004 -0.017    0.001  0.000  0.003   -0.000 -0.000 -0.000
 C          0.004  0.001 -0.011   -0.001 -0.000  0.002    0.000  0.000 -0.000
 C         -0.000 -0.000 -0.000   -0.000  0.000 -0.000   -0.000 -0.000 -0.000
 C         -0.000 -0.000 -0.000    0.000 -0.000  0.000    0.000  0.000  0.000
 O          0.000  0.000  0.000    0.000  0.000 -0.000    0.000  0.000 -0.000
 O          0.000  0.000  0.000   -0.000  0.000 -0.000   -0.000  0.000  0.000
 O          0.000  0.000  0.000    0.000  0.000 -0.000   -0.000 -0.000  0.000
 O          0.000  0.000  0.000   -0.000  0.000 -0.000   -0.000 -0.000  0.000
 C         -0.003 -0.001  0.002   -0.011 -0.004  0.007    0.074  0.027 -0.051
 C          0.002 -0.010  0.008    0.014 -0.069  0.060    0.002 -0.011  0.010
 C         -0.003 -0.001  0.000    0.001  0.001 -0.000   -0.000 -0.000  0.000
 C         -0.013  0.022 -0.032    0.002 -0.003  0.005   -0.000  0.000 -0.001
 C         -0.008  0.040 -0.068    0.001 -0.006  0.010   -0.000  0.001 -0.002
 C          0.000  0.001 -0.001   -0.000 -0.000  0.000    0.000  0.000 -0.000
 O          0.000 -0.000  0.001    0.000  0.000 -0.000   -0.000 -0.000  0.000
 H          0.081  0.039  0.203   -0.013 -0.006 -0.033    0.002  0.001  0.004
 H         -0.040 -0.006  0.134    0.006  0.001 -0.021   -0.001 -0.000  0.004
 H          0.028  0.017 -0.000    0.092  0.055 -0.000   -0.602 -0.363  0.000
 H         -0.008  0.097 -0.008   -0.054  0.690 -0.057   -0.009  0.108 -0.009
 H          0.028 -0.284  0.103   -0.004  0.039 -0.014    0.001 -0.006  0.002
 H          0.127  0.016  0.287   -0.018 -0.002 -0.041    0.003  0.000  0.006
 H          0.332 -0.257  0.181   -0.046  0.036 -0.025    0.008 -0.006  0.004
 H         -0.226 -0.225  0.633    0.032  0.032 -0.089   -0.006 -0.006  0.016
 H         -0.001 -0.000  0.000    0.002 -0.003  0.006   -0.004  0.014 -0.030
 H          0.012 -0.001 -0.027    0.041 -0.005 -0.094   -0.275  0.033  0.628
 H         -0.013  0.021 -0.089   -0.097  0.155 -0.658   -0.015  0.025 -0.104
 H         -0.003 -0.004 -0.000   -0.015 -0.024  0.003   -0.004 -0.005 -0.000
 H          0.019  0.013 -0.011   -0.010 -0.007  0.006    0.000  0.000 -0.000
 C         -0.001  0.002 -0.000    0.000 -0.000  0.000   -0.000  0.000 -0.000
 O          0.000  0.000  0.000   -0.000  0.000 -0.000   -0.000 -0.000  0.000
 H          0.011 -0.013  0.010   -0.002  0.002 -0.002    0.000 -0.001  0.000
 H          0.003 -0.007 -0.006   -0.000  0.001  0.001    0.000 -0.000 -0.000
 C          0.000  0.000 -0.000   -0.000 -0.000  0.000    0.000  0.000 -0.000
 H         -0.003 -0.002  0.004    0.001  0.001 -0.002   -0.002 -0.002  0.003
 H          0.002 -0.001  0.001   -0.000  0.000 -0.000    0.001 -0.001  0.001
 H         -0.001  0.002  0.001    0.000 -0.000 -0.000   -0.000  0.000  0.000
 TransDip  -0.050  0.073 -0.134    0.017 -0.118  0.115    0.103  0.037 -0.055

 Mode:               100                    101                    102
 Frequency:      3132.34                3152.20                3156.88
 Force Cnst:      6.3001                 6.4774                 6.4955
 Red. Mass:       1.0898                 1.1064                 1.1062
 IR Active:          YES                    YES                    YES
 IR Intens:       23.062                 15.035                 14.426
 Raman Active:       YES                    YES                    YES
               X      Y      Z        X      Y      Z        X      Y      Z
 C         -0.002 -0.001 -0.006   -0.000 -0.000 -0.000   -0.000  0.000 -0.000
 C          0.001  0.001 -0.002    0.000  0.000  0.000    0.000 -0.000 -0.000
 C         -0.001 -0.000  0.000   -0.000 -0.000 -0.000    0.001 -0.001 -0.001
 C          0.000  0.000 -0.000   -0.000 -0.001 -0.001    0.000 -0.000 -0.000
 O          0.000  0.000 -0.000    0.000  0.000  0.000    0.000  0.000  0.000
 O          0.000  0.000 -0.000    0.000  0.000  0.000   -0.000  0.000  0.000
 O          0.000 -0.000  0.000    0.000 -0.000  0.000   -0.000 -0.000  0.000
 O          0.000 -0.000 -0.000    0.000  0.000  0.000   -0.000 -0.000  0.000
 C         -0.000  0.000  0.000   -0.055  0.010 -0.076   -0.000  0.000 -0.001
 C          0.000 -0.001  0.001    0.000  0.000  0.000   -0.060 -0.055 -0.049
 C         -0.063 -0.041  0.040   -0.000 -0.000  0.000   -0.000 -0.000  0.000
 C          0.002 -0.010  0.004   -0.000 -0.000 -0.000   -0.000 -0.000 -0.000
 C          0.002 -0.001 -0.000    0.000  0.000 -0.000    0.000 -0.000 -0.000
 C          0.001  0.001 -0.000   -0.000 -0.000 -0.000    0.000 -0.000 -0.000
 O         -0.000 -0.000 -0.000    0.000  0.000  0.000   -0.000  0.000  0.000
 H          0.025  0.010  0.065    0.001  0.000  0.002    0.000  0.000  0.001
 H         -0.007 -0.001  0.023   -0.000  0.000  0.001   -0.000  0.000  0.000
 H         -0.000 -0.000  0.000    0.249  0.156 -0.022   -0.000 -0.000 -0.000
 H         -0.001  0.009 -0.001    0.000 -0.003  0.000   -0.037  0.311 -0.044
 H         -0.014  0.117 -0.040   -0.000  0.000 -0.000   -0.000  0.001 -0.000
 H         -0.007 -0.001 -0.010    0.000  0.000  0.001    0.000 -0.000  0.001
 H         -0.016  0.013 -0.009   -0.000  0.000 -0.000   -0.000  0.000 -0.000
 H         -0.003 -0.003  0.010   -0.000 -0.000  0.000   -0.000 -0.000  0.000
 H         -0.001  0.000 -0.001    0.561 -0.285  0.628    0.003 -0.001  0.003
 H          0.001 -0.000 -0.002   -0.157  0.013  0.299   -0.001  0.000  0.003
 H         -0.001  0.001 -0.005    0.000  0.000 -0.000    0.032 -0.086  0.278
 H         -0.002 -0.002 -0.001   -0.003 -0.002 -0.002    0.711  0.425  0.347
 H          0.730  0.477 -0.458    0.002  0.001 -0.001    0.001  0.000 -0.001
 C          0.000 -0.000 -0.000    0.000 -0.000 -0.000    0.000 -0.000 -0.000
 O         -0.000 -0.000  0.000   -0.000  0.000  0.000   -0.000 -0.000  0.000
 H         -0.001  0.001 -0.001   -0.000  0.001 -0.000   -0.000  0.000 -0.000
 H         -0.001  0.001  0.001   -0.000  0.001  0.001   -0.000  0.000  0.000
 C          0.000  0.000 -0.000    0.000 -0.000 -0.000    0.000  0.000 -0.000
 H         -0.002 -0.001  0.003   -0.000 -0.000  0.001   -0.000 -0.000  0.000
 H         -0.000  0.000 -0.000   -0.000  0.000 -0.000   -0.000  0.000 -0.000
 H         -0.000  0.000  0.000   -0.000  0.001  0.000   -0.000  0.000  0.000
 TransDip  -0.111 -0.098  0.040   -0.078  0.035 -0.090   -0.093 -0.061 -0.049

 STANDARD THERMODYNAMIC QUANTITIES AT   298.15 K  AND     1.00 ATM

   This Molecule has  0 Imaginary Frequencies
   Zero point vibrational energy:      187.103 kcal/mol

   Atom    1 Element C  Has Mass   12.00000
   Atom    2 Element C  Has Mass   12.00000
   Atom    3 Element C  Has Mass   12.00000
   Atom    4 Element C  Has Mass   12.00000
   Atom    5 Element O  Has Mass   15.99491
   Atom    6 Element O  Has Mass   15.99491
   Atom    7 Element O  Has Mass   15.99491
   Atom    8 Element O  Has Mass   15.99491
   Atom    9 Element C  Has Mass   12.00000
   Atom   10 Element C  Has Mass   12.00000
   Atom   11 Element C  Has Mass   12.00000
   Atom   12 Element C  Has Mass   12.00000
   Atom   13 Element C  Has Mass   12.00000
   Atom   14 Element C  Has Mass   12.00000
   Atom   15 Element O  Has Mass   15.99491
   Atom   16 Element H  Has Mass    1.00783
   Atom   17 Element H  Has Mass    1.00783
   Atom   18 Element H  Has Mass    1.00783
   Atom   19 Element H  Has Mass    1.00783
   Atom   20 Element H  Has Mass    1.00783
   Atom   21 Element H  Has Mass    1.00783
   Atom   22 Element H  Has Mass    1.00783
   Atom   23 Element H  Has Mass    1.00783
   Atom   24 Element H  Has Mass    1.00783
   Atom   25 Element H  Has Mass    1.00783
   Atom   26 Element H  Has Mass    1.00783
   Atom   27 Element H  Has Mass    1.00783
   Atom   28 Element H  Has Mass    1.00783
   Atom   29 Element C  Has Mass   12.00000
   Atom   30 Element O  Has Mass   15.99491
   Atom   31 Element H  Has Mass    1.00783
   Atom   32 Element H  Has Mass    1.00783
   Atom   33 Element C  Has Mass   12.00000
   Atom   34 Element H  Has Mass    1.00783
   Atom   35 Element H  Has Mass    1.00783
   Atom   36 Element H  Has Mass    1.00783
   Molecular Mass:   258.110400 amu
   Principal axes and moments of inertia in amu*Bohr^2:
                             1           2           3
    Eigenvalues --     3026.21888  4969.84488  6985.79667
          X               1.00000    -0.00201     0.00198
          Y               0.00200     0.99997     0.00781
          Z              -0.00199    -0.00781     0.99997
   Rotational Symmetry Number is   1
   The Molecule is an Asymmetric Top
   Translational Enthalpy:        0.889 kcal/mol
   Rotational Enthalpy:           0.889 kcal/mol
   Vibrational Enthalpy:        196.838 kcal/mol
   gas constant (RT):             0.592 kcal/mol
   Translational Entropy:        42.544  cal/mol.K
   Rotational Entropy:           33.018  cal/mol.K
   Vibrational Entropy:          64.841  cal/mol.K

   Total Enthalpy:              199.208 kcal/mol
   Total Entropy:               140.404  cal/mol.K
Archival summary:
1\1\nid03293\FREQ\ProcedureUnspecified\BasisUnspecified\61218\junteng\WedOct1817:59:582017WedOct1817:59:582017\0\\#,FREQ,ProcedureUnspecified,BasisUnspecified,\\0,1\O\C,1,1.42978\H,2,1.08798,1,109.985\C,1,1.44236,2,97.6116,3,179.955,0\C,4,1.51276,1,109.868,2,-178.149,0\H,5,1.09131,4,110.041,1,-58.7367,0\H,5,1.09976,4,108.894,1,60.7993,0\O,5,1.41942,4,106.98,1,-179.487,0\C,8,1.41631,5,112.86,4,164.602,0\H,9,1.09061,8,107.072,5,-179.45,0\H,9,1.09687,8,110.842,5,-60.2018,0\H,9,1.09926,8,111.362,5,61.5551,0\C,2,1.54265,1,103.526,3,-124.386,0\H,13,1.09099,2,110.267,1,85.6164,0\H,13,1.0918,2,112.346,1,-153.813,0\C,4,1.55104,1,101.824,2,-56.0517,0\H,16,1.0899,4,112.405,1,157.369,0\H,16,1.09117,4,109.278,1,-82.7216,0\C,2,1.56121,1,102.062,3,121.874,0\H,19,1.08921,2,111.245,1,157.465,0\C,19,1.51392,2,108.664,1,-83.8631,0\O,21,1.20448,19,126.984,2,92.3613,0\O,21,1.35359,19,109.602,2,-84.7187,0\C,23,1.44018,21,116.011,19,175.881,0\H,24,1.08776,23,105.447,21,179.127,0\H,24,1.09088,23,110.459,21,59.5756,0\H,24,1.09118,23,110.427,21,-61.3238,0\C,19,1.56482,2,100.516,1,38.3058,0\H,28,1.09156,19,108.346,2,110.251,0\C,28,1.5229,19,114.496,2,-133.924,0\O,30,1.20234,28,128.473,19,121.884,0\O,30,1.35561,28,108.232,19,-61.4252,0\C,32,1.43836,30,115.705,28,175.189,0\H,33,1.08814,32,105.507,30,-179.31,0\H,33,1.09088,32,110.616,30,61.0921,0\H,33,1.0911,32,109.858,30,-59.9045,0\\\@

 Total job time:  15068.08s(wall), 94429.13s(cpu) 
 Wed Oct 18 17:59:58 2017

        *************************************************************
        *                                                           *
        *  Thank you very much for using Q-Chem.  Have a nice day.  *
        *                                                           *
        *************************************************************


