nid03294 10.128.12
Q-Chem Developer Version! Running on 10.128.12.*
                  Welcome to Q-Chem
     A Quantum Leap Into The Future Of Chemistry


 Q-Chem 5.0, Q-Chem, Inc., Pleasanton, CA (2017)

 Yihan Shao,  Zhengting Gan,  E. Epifanovsky,  A. T. B. Gilbert,  M. Wormit,  
 J. Kussmann,  A. W. Lange,  A. Behn,  Jia Deng,  Xintian Feng,  D. Ghosh,  
 M. Goldey,  P. R. Horn,  L. D. Jacobson,  I. Kaliman,  T. Kus,  A. Landau,  
 Jie Liu,  E. I. Proynov,  R. M. Richard,  R. P. Steele,  E. J. Sundstrom,  
 H. L. Woodcock III,  P. M. Zimmerman,  D. Zuev,  B. Albrecht,  E. Alguire,  
 S. A. Baeppler,  Z. Benda,  Y. A. Bernard,  E. J. Berquist,  K. B. Bravaya,  
 D. Casanova,  Chun-Min Chang,  Yunqing Chen,  A. Chien,  K. D. Closser,  
 M. P. Coons,  S. Dasgupta,  M. Diedenhofen,  Hainam Do,  R. G. Edgar,  
 Po-Tung Fang,  S. Fatehi,  Qingguo Feng,  Qinghui Ge,  A. Ghysels,  
 J. Gomes,  J. Gonthier,  A. Gunina,  M. W. D. Hanson-Heine,  
 P. H. P. Harbach,  A. W. Hauser,  J. E. Herr,  E. G. Hohenstein,  
 Z. C. Holden,  Kerwin Hui,  T.-C. Jagau,  Hyunjun Ji,  B. Kaduk,  
 K. Khistyaev,  Jaehoon Kim,  P. Klunzinger,  K. Koh,  D. Kosenkov,  
 T. Kowalczyk,  C. M. Krauter,  A. Kunitsa,  Ka Un Lao,  A. Laurent,  
 K. V. Lawler,  Joonho Lee,  D. Lefrancois,  S. Lehtola,  D. S. Levine,  
 Yi-Pei Li,  You-Sheng Lin,  Fenglai Liu,  E. Livshits,  A. Luenser,  
 P. Manohar,  E. Mansoor,  S. F. Manzer,  Shan-Ping Mao,  Yuezhi Mao,  
 N. Mardirossian,  A. V. Marenich,  L. A. Martinez-Martinez,  S. A. Maurer,  
 N. J. Mayhall,  S. C. McKenzie,  J.-M. Mewes,  A. F. Morrison,  K. Nanda,  
 T. S. Nguyen-Beck,  R. Olivares-Amaya,  J. A. Parkhill,  T. M. Perrine,  
 F. Plasser,  S. Prager,  A. Prociuk,  D. R. Rehn,  F. Rob,  M. Schneider,  
 N. Sergueev,  S. M. Sharada,  S. Sharma,  D. W. Small,  T. Stauch,  
 T. Stein,  Yu-Chuan Su,  A. J. W. Thom,  T. Tsuchimochi,  L. Vogt,  
 O. Vydrov,  M. A. Watson,  J. Wenzel,  M. de Wergifosse,  T. A. Wesolowski,  
 A. White,  J. Witte,  A. Yamada,  Jun Yang,  K. Yao,  S. Yeganeh,  
 S. R. Yost,  Zhi-Qiang You,  A. Zech,  Igor Ying Zhang,  Xing Zhang,  
 Yan Zhao,  Ying Zhu,  B. R. Brooks,  G. K. L. Chan,  C. J. Cramer,  
 M. S. Gordon,  W. J. Hehre,  A. Klamt,  M. W. Schmidt,  C. D. Sherrill,  
 D. G. Truhlar,  A. Aspuru-Guzik,  R. Baer,  A. T. Bell,  N. A. Besley,  
 Jeng-Da Chai,  A. Dreuw,  B. D. Dunietz,  T. R. Furlani,  Chao-Ping Hsu,  
 Yousung Jung,  Jing Kong,  D. S. Lambrecht,  WanZhen Liang,  C. Ochsenfeld,  
 V. A. Rassolov,  L. V. Slipchenko,  J. E. Subotnik,  T. Van Voorhis,  
 J. M. Herbert,  A. I. Krylov,  P. M. W. Gill,  M. Head-Gordon

 Contributors to earlier versions of Q-Chem not listed above: 
 R. D. Adamson,  B. Austin,  J. Baker,  G. J. O. Beran,  K. Brandhorst,  
 S. T. Brown,  E. F. C. Byrd,  A. K. Chakraborty,  C.-L. Cheng,  
 Siu Hung Chien,  D. M. Chipman,  D. L. Crittenden,  H. Dachsel,  
 R. A. DiStasio Jr.,  R. J. Doerksen,  A. D. Dutoi,  L. Fusti-Molnar,  
 W. A. Goddard III,  A. Golubeva-Zadorozhnaya,  S. R. Gwaltney,  G. Hawkins,  
 A. Heyden,  S. Hirata,  G. Kedziora,  F. J. Keil,  C. Kelley,  Jihan Kim,  
 R. A. King,  R. Z. Khaliullin,  P. P. Korambath,  W. Kurlancheek,  
 A. M. Lee,  M. S. Lee,  S. V. Levchenko,  Ching Yeh Lin,  D. Liotard,  
 R. C. Lochan,  I. Lotan,  P. E. Maslen,  N. Nair,  D. P. O'Neill,  
 D. Neuhauser,  E. Neuscamman,  C. M. Oana,  R. Olson,  B. Peters,  
 R. Peverati,  P. A. Pieniazek,  Y. M. Rhee,  J. Ritchie,  M. A. Rohrdanz,  
 E. Rosta,  N. J. Russ,  H. F. Schaefer III,  N. E. Schultz,  N. Shenvi,  
 A. C. Simmonett,  A. Sodt,  D. Stuck,  K. S. Thanthiriwatte,  V. Vanovschi,  
 Tao Wang,  A. Warshel,  C. F. Williams,  Q. Wu,  X. Xu,  W. Zhang

 Please cite Q-Chem as follows:
 Y. Shao et al., Mol. Phys. 113, 184-215 (2015)
 DOI: 10.1080/00268976.2014.952696

 Q-Chem 5.0.0 for Intel X86 EM64T Linux

 Parts of Q-Chem use Armadillo 5.200.1 (Boston Tea Smuggler).
 http://arma.sourceforge.net/

 Q-Chem begins on Wed Oct 18 18:54:08 2017  

Host: nid03294
0

     Scratch files written to /global/cscratch1/sd/junteng/scratch/14/opt_1331.save//

Checking the input file for inconsistencies... 	...done.

--------------------------------------------------------------
User input:
--------------------------------------------------------------
$molecule
0  1
C         -0.91600        0.09800       -0.64100
C          0.64500       -0.10000       -0.73700
C         -1.29900        1.30400        0.20500
C          1.46500        1.03300       -0.15600
O         -2.01295        2.16494       -0.56304
O         -1.04409        1.51562        1.36765
O          1.37208        2.13955       -0.91917
O          2.12445        0.97800        0.86368
C          2.11795        3.26977       -0.44211
C         -2.29964        3.42982        0.05562
C         -1.33900       -1.28300       -0.07000
C         -1.04800       -2.35800       -1.16100
C          0.47900       -2.58100       -0.98600
C          0.81200       -1.46800        0.03000
O         -0.31600       -1.52000        0.90900
H         -1.33600        0.27000       -1.63500
H          0.94700       -0.21500       -1.77700
H          3.18744        3.04073       -0.42123
H         -1.36474        3.94335        0.29467
H         -1.61700       -3.26900       -0.95400
H         -1.32800       -2.01400       -2.16000
H          0.68700       -3.55500       -0.53100
H          1.05800       -2.50500       -1.91000
H          1.91044        4.07685       -1.14597
H          1.79591        3.54334        0.56631
H         -2.88048        3.29062        0.97150
H         -2.87338        3.99241       -0.68235
C         -2.71200       -1.37900        0.56600
C          2.08600       -1.62400        0.83300
O          3.16400       -1.34300       -0.04600
H          2.15500       -2.64900        1.23200
H          2.06700       -0.92200        1.67500
C          4.40400       -1.24200        0.62500
H          5.16000       -1.01400       -0.13100
H          4.67400       -2.18500        1.12700
H          4.38900       -0.43900        1.37800
O         -3.63900       -0.92700       -0.40900
H         -2.74800       -0.76100        1.46800
H         -2.91300       -2.42700        0.84500
C         -4.95200       -0.81800        0.10100
H         -5.58500       -0.45200       -0.71200
H         -4.99900       -0.11000        0.94400
H         -5.33900       -1.79300        0.44300
$end


$opt
CONSTRAINT
tors    1    2    4    8    109.6
tors    2    1    3    6    -59.7
ENDCONSTRAINT
$end

$rem
JOBTYPE                   OPT
METHOD                    B3LYP
DFT_D                     D3_OP
BASIS                     STO-3G
GEOM_OPT_MAX_CYCLES       500
SYMMETRY                  False
THRESH                    12
SCF_CONVERGENCE           8
MAX_SUB_FILE_NUM          128
MEM_STATIC                400
MEM_TOTAL                 4000
$end

--------------------------------------------------------------
 Adding empirical dispersion correction 
 ----------------------------------------------------------------
 Doing -D3(op) with
 s6 =   1.00000
 s8 =   0.78311
 a1 =   0.30000
 a2 =   4.25000
 n  =  10.00000
 -D3 energy without 3body term =     -0.0505516566 hartrees
 ----------------------------------------------------------------
             Standard Nuclear Orientation (Angstroms)
    I     Atom           X                Y                Z
 ----------------------------------------------------------------
    1      C      -0.7972688186     0.0654057426    -0.6019063280
    2      C       0.7673133300    -0.0591830968    -0.7492200118
    3      C      -1.2083722836     1.2505169797     0.2602690004
    4      C       1.5520296934     1.1097894352    -0.1912115457
    5      O      -1.9863847798     2.0786243107    -0.4811907299
    6      O      -0.9258621809     1.4715534800     1.4147593912
    7      O       1.3827334220     2.2122729592    -0.9471112280
    8      O       2.2462100746     1.0836976880     0.8063251323
    9      C       2.0901822684     3.3752047942    -0.4905904443
   10      C      -2.3114922784     3.3274998601     0.1508438756
   11      C      -1.1365073086    -1.3349802308    -0.0222794028
   12      C      -0.8313546118    -2.3930587497    -1.1258819940
   13      C       0.7092818983    -2.5447402355    -1.0013232907
   14      C       1.0228989096    -1.4193728660     0.0071937661
   15      O      -0.0721965277    -1.5257900604     0.9221639098
   16      H      -1.2570122618     0.2195178585    -1.5811434913
   17      H       1.0402969763    -0.1578992154    -1.7988695042
   18      H       3.1693098378     3.1963940079    -0.5052379001
   19      H      -1.3942895998     3.8837238401     0.3612009623
   20      H      -1.3501593484    -3.3300764475    -0.9036873060
   21      H      -1.1595171430    -2.0605777410    -2.1140635218
   22      H       0.9772403914    -3.5088342964    -0.5567044789
   23      H       1.2536808479    -2.4399375361    -1.9433631931
   24      H       1.8223942702     4.1730713597    -1.1845327746
   25      H       1.7887597578     3.6314415910     0.5286977273
   26      H      -2.8550426710     3.1594962620     1.0846081294
   27      H      -2.9346150204     3.8640829198    -0.5661508838
   28      C      -2.4820710726    -1.4963324422     0.6576210465
   29      C       2.3282854134    -1.5171883236     0.7678640048
   30      O       3.3627720950    -1.1843606047    -0.1446868240
   31      H       2.4580249622    -2.5386178688     1.1608478896
   32      H       2.3039882085    -0.8184928752     1.6124723852
   33      C       4.6179148041    -1.0267898182     0.4860510193
   34      H       5.3374065339    -0.7622041283    -0.2932961842
   35      H       4.9478574226    -1.9571100853     0.9757397664
   36      H       4.5899957607    -0.2268439803     1.2419281148
   37      O      -3.4604435206    -1.0862762896    -0.2851935190
   38      H      -2.5174640668    -0.8824573095     1.5624573065
   39      H      -2.6247308829    -2.5531297594     0.9393542691
   40      C      -4.7597806049    -1.0398007021     0.2675389308
   41      H      -5.4353356089    -0.7022169632    -0.5232054374
   42      H      -4.8122798876    -0.3364233180     1.1140766328
   43      H      -5.0894931735    -2.0325002620     0.6185306770
 ----------------------------------------------------------------
 Molecular Point Group                 C1    NOp =  1
 Largest Abelian Subgroup              C1    NOp =  1
 Nuclear Repulsion Energy =  1981.8848610127 hartrees
 There are       81 alpha and       81 beta electrons
 Requested basis set is STO-3G
 There are 64 shells and 127 basis functions

 Total QAlloc Memory Limit   4000 MB
 Mega-Array Size       392 MB
 MEM_STATIC part       400 MB
 A cutoff of  1.0D-12 yielded   1665 shell pairs
 There are      7293 function pairs
 
 -------------------------------------------------------
 OpenMP Integral Computing Module                       
 Release: version 1.0, May 2013, Q-Chem Inc. Pittsburgh 
 -------------------------------------------------------
 Integral Job Info:
 Integral job number is                      11
 Integral operator is                         1
 short-range coefficients                     0
 long-range coefficients              100000000
 Omega coefficients                           0
 if combine SR and LR in K                    0
 Integral screening is                        0
 Integral computing path is                   2
 max size of driver memory is            800000
 size of driver memory is                 45569
 size of scratch memory is               945100
 max col of scratch BK array                289
 max len of scratch array in speh3           22
 max len of scratch index in speh4            8
 max int batch size is                      520
 min int batch size is                       52
 fixed nKL is                                52
 max L of basis functions is                  1
 order of int derivative is                   0
 number of shells is                         64
 number of basis is                         127
 number of cartesian basis is               127
 number of contracted shell pairs          1665
 number of primitive shell pairs           8579
 maxK2 (contraction) of shell pair            9
 max number of K2 of shell pair               1
 max number of CS2 of shell pair            284
 max number of PS2 of shell pair           1020
 mem total for path MDJ                   38154
 -------------------------------------------------------
 Smallest overlap matrix eigenvalue = 2.00E-01

 Scale SEOQF with 1.000000e-02/1.000000e-01/1.000000e-01

 Standard Electronic Orientation quadrupole field applied
 Nucleus-field energy     =     0.0000000333 hartrees
 Guess from superposition of atomic densities
 Warning:  Energy on first SCF cycle will be non-variational
 A restricted hybrid HF-DFT SCF calculation will be
 performed using Pulay DIIS extrapolation
 Exchange:     0.2000 Hartree-Fock + 0.0800 Slater + 0.7200 B88
 Correlation:  0.1900 VWN1RPA + 0.8100 LYP
 Using SG-1 standard quadrature grid
 Dispersion:   Grimme D3
 SCF converges when DIIS error is below 1.0E-08
 -------------------------------------------------------
 OpenMP Integral computing Module                
 Release: version 1.0, May 2013, Q-Chem Inc. Pittsburgh 
 -------------------------------------------------------
 -------------------------------------------------------
 OpenMP BLAS3 based DFT computing Module                
 Release: version 1.0, May 2013, Q-Chem Inc. Pittsburgh 
 -------------------------------------------------------
 ---------------------------------------
  Cycle       Energy         DIIS Error
 ---------------------------------------
    1   -1058.2563049125      9.47E-02
    2   -1059.1011590010      1.08E-02
    3   -1058.1519727211      2.48E-02
    4   -1059.3586512049      4.39E-03
    5   -1059.3993503269      1.23E-03
    6   -1059.4025893655      3.18E-04
    7   -1059.4028135200      7.27E-05
    8   -1059.4028229482      3.56E-05
    9   -1059.4028258648      5.34E-06
   10   -1059.4028259367      8.77E-07
   11   -1059.4028259387      2.36E-07
   12   -1059.4028259388      8.09E-08
   13   -1059.4028259388      1.99E-08
   14   -1059.4028259388      5.05E-09 Convergence criterion met
 ---------------------------------------
 SCF time:  CPU 96.32 s  wall 4.12 s
 SCF   energy in the final basis set = -1059.4028259388
 Total energy in the final basis set = -1059.4028259388
 
 --------------------------------------------------------------
 
                    Orbital Energies (a.u.)
 --------------------------------------------------------------
 
 Alpha MOs
 -- Occupied --
-18.940 -18.936 -18.888 -18.877 -18.875 -18.861 -18.858 -10.106
-10.105 -10.073 -10.070 -10.066 -10.062 -10.061 -10.055 -10.045
-10.044 -10.026 -10.024 -10.010 -10.008  -1.045  -1.039  -0.998
 -0.975  -0.964  -0.949  -0.946  -0.768  -0.747  -0.728  -0.691
 -0.685  -0.673  -0.643  -0.608  -0.602  -0.586  -0.543  -0.516
 -0.489  -0.485  -0.467  -0.452  -0.448  -0.437  -0.430  -0.426
 -0.423  -0.419  -0.415  -0.412  -0.407  -0.397  -0.383  -0.380
 -0.369  -0.364  -0.361  -0.351  -0.347  -0.335  -0.315  -0.309
 -0.305  -0.296  -0.291  -0.279  -0.269  -0.245  -0.239  -0.227
 -0.214  -0.205  -0.179  -0.176  -0.148  -0.143  -0.139  -0.138
 -0.127
 -- Virtual --
  0.119   0.127   0.232   0.273   0.280   0.291   0.321   0.331
  0.340   0.350   0.371   0.387   0.391   0.398   0.404   0.409
  0.421   0.426   0.429   0.431   0.433   0.438   0.440   0.441
  0.448   0.452   0.453   0.454   0.460   0.464   0.467   0.473
  0.478   0.482   0.489   0.497   0.500   0.506   0.512   0.521
  0.525   0.546   0.575   0.584   0.709   0.730
 --------------------------------------------------------------
 
          Ground-State Mulliken Net Atomic Charges

     Atom                 Charge (a.u.)
  ----------------------------------------
      1 C                    -0.082596
      2 C                    -0.084925
      3 C                     0.235816
      4 C                     0.242359
      5 O                    -0.186038
      6 O                    -0.238017
      7 O                    -0.192710
      8 O                    -0.233760
      9 C                    -0.126121
     10 C                    -0.126931
     11 C                     0.112509
     12 C                    -0.148385
     13 C                    -0.147217
     14 C                     0.114004
     15 O                    -0.212655
     16 H                     0.094156
     17 H                     0.090765
     18 H                     0.094999
     19 H                     0.091203
     20 H                     0.076131
     21 H                     0.078342
     22 H                     0.075957
     23 H                     0.078708
     24 H                     0.096804
     25 H                     0.095777
     26 H                     0.093916
     27 H                     0.097001
     28 C                    -0.044609
     29 C                    -0.046649
     30 O                    -0.217847
     31 H                     0.065352
     32 H                     0.100183
     33 C                    -0.121691
     34 H                     0.083571
     35 H                     0.067081
     36 H                     0.076664
     37 O                    -0.213385
     38 H                     0.081530
     39 H                     0.073453
     40 C                    -0.120873
     41 H                     0.088380
     42 H                     0.070211
     43 H                     0.069536
  ----------------------------------------
  Sum of atomic charges =    -0.000000

 -----------------------------------------------------------------
                    Cartesian Multipole Moments
 -----------------------------------------------------------------
    Charge (ESU x 10^10)
                -0.0000
    Dipole Moment (Debye)
         X      -0.8508      Y       0.9751      Z      -0.7471
       Tot       1.4942
    Quadrupole Moments (Debye-Ang)
        XX    -105.1383     XY       0.8750     YY    -102.6809
        XZ      -2.8962     YZ      -1.8827     ZZ    -118.7300
    Octopole Moments (Debye-Ang^2)
       XXX     -10.9667    XXY      11.1677    XYY      -1.4087
       YYY      54.3128    XXZ      19.1299    XYZ      -4.7624
       YYZ       2.6408    XZZ       1.2702    YZZ       0.7749
       ZZZ      -1.5951
    Hexadecapole Moments (Debye-Ang^3)
      XXXX   -3810.4916   XXXY       4.7081   XXYY   -1026.0962
      XYYY       6.0041   YYYY   -2328.7841   XXXZ     -19.4924
      XXYZ     -39.0653   XYYZ      -5.9125   YYYZ     -29.4899
      XXZZ    -762.0104   XYZZ      -4.3948   YYZZ    -514.3665
      XZZZ       5.4681   YZZZ      -3.9189   ZZZZ    -483.5145
 -----------------------------------------------------------------
 Calculating analytic gradient of the SCF energy
 Gradient of SCF Energy
            1           2           3           4           5           6
    1  -0.0050450   0.0125998  -0.0033806   0.0078335   0.0316993  -0.0254539
    2  -0.0015686   0.0098683   0.0271451   0.0293080  -0.0098073  -0.0130914
    3   0.0313860   0.0116223   0.0190246  -0.0088750   0.0652760  -0.0845141
            7           8           9          10          11          12
    1   0.0355091  -0.0430799  -0.0068000  -0.0003930  -0.0025889   0.0062210
    2  -0.0310917  -0.0103004  -0.0029503  -0.0029136   0.0012082   0.0112444
    3   0.0641931  -0.0621027  -0.0079674  -0.0084988   0.0095904   0.0130909
           13          14          15          16          17          18
    1  -0.0048104  -0.0039963   0.0041033   0.0042190  -0.0007107  -0.0134376
    2   0.0138985  -0.0082040   0.0081306   0.0005172   0.0017785  -0.0020026
    3   0.0110580   0.0152543  -0.0559573   0.0076875   0.0121894  -0.0005913
           19          20          21          22          23          24
    1  -0.0082741   0.0019991   0.0007505  -0.0006384  -0.0015732   0.0008633
    2  -0.0112695   0.0053254  -0.0026122   0.0054890  -0.0011577  -0.0106883
    3  -0.0045655  -0.0014788   0.0060729  -0.0013017   0.0061282   0.0058408
           25          26          27          28          29          30
    1   0.0017643   0.0070412   0.0067357   0.0103389  -0.0112609   0.0062226
    2  -0.0065579  -0.0023288  -0.0085794   0.0089486   0.0148390  -0.0057834
    3  -0.0124592  -0.0121140   0.0052175  -0.0191877  -0.0278000   0.0592950
           31          32          33          34          35          36
    1   0.0011160   0.0025940  -0.0112311  -0.0077650  -0.0068409  -0.0037880
    2   0.0115661  -0.0060967   0.0016449  -0.0028341   0.0069016  -0.0072826
    3  -0.0055638  -0.0103516  -0.0197089   0.0071927  -0.0060660  -0.0083199
           37          38          39          40          41          42
    1  -0.0111181  -0.0017547  -0.0008969   0.0144635   0.0069743   0.0050750
    2  -0.0153294  -0.0073226   0.0093667   0.0050458  -0.0035626  -0.0055308
    3   0.0564916  -0.0165531  -0.0076601  -0.0189379   0.0072563  -0.0086285
           43
    1   0.0067140
    2   0.0066399
    3  -0.0046644
 Max gradient component =       8.451E-02
 RMS gradient           =       1.898E-02
 Gradient time:  CPU 35.52 s  wall 1.55 s
 Geometry Optimization Parameters
   NAtoms,    NIC,     NZ,  NCons,   NDum,   NFix, NCnnct, MaxDiis
       43     325       0       2       0       0       0       0


** CONSTRAINED OPTIMIZATION IN DELOCALIZED INTERNAL COORDINATES **
   Searching for a Minimum

   Optimization Cycle:   1

                       Coordinates (Angstroms)
     ATOM                X               Y               Z
      1  C        -0.7972688186    0.0654057426   -0.6019063280
      2  C         0.7673133300   -0.0591830968   -0.7492200118
      3  C        -1.2083722836    1.2505169797    0.2602690004
      4  C         1.5520296934    1.1097894352   -0.1912115457
      5  O        -1.9863847798    2.0786243107   -0.4811907299
      6  O        -0.9258621809    1.4715534800    1.4147593912
      7  O         1.3827334220    2.2122729592   -0.9471112280
      8  O         2.2462100746    1.0836976880    0.8063251323
      9  C         2.0901822684    3.3752047942   -0.4905904443
     10  C        -2.3114922784    3.3274998601    0.1508438756
     11  C        -1.1365073086   -1.3349802308   -0.0222794028
     12  C        -0.8313546118   -2.3930587497   -1.1258819940
     13  C         0.7092818983   -2.5447402355   -1.0013232907
     14  C         1.0228989096   -1.4193728660    0.0071937661
     15  O        -0.0721965277   -1.5257900604    0.9221639098
     16  H        -1.2570122618    0.2195178585   -1.5811434913
     17  H         1.0402969763   -0.1578992154   -1.7988695042
     18  H         3.1693098378    3.1963940079   -0.5052379001
     19  H        -1.3942895998    3.8837238401    0.3612009623
     20  H        -1.3501593484   -3.3300764475   -0.9036873060
     21  H        -1.1595171430   -2.0605777410   -2.1140635218
     22  H         0.9772403914   -3.5088342964   -0.5567044789
     23  H         1.2536808479   -2.4399375361   -1.9433631931
     24  H         1.8223942702    4.1730713597   -1.1845327746
     25  H         1.7887597578    3.6314415910    0.5286977273
     26  H        -2.8550426710    3.1594962620    1.0846081294
     27  H        -2.9346150204    3.8640829198   -0.5661508838
     28  C        -2.4820710726   -1.4963324422    0.6576210465
     29  C         2.3282854134   -1.5171883236    0.7678640048
     30  O         3.3627720950   -1.1843606047   -0.1446868240
     31  H         2.4580249622   -2.5386178688    1.1608478896
     32  H         2.3039882085   -0.8184928752    1.6124723852
     33  C         4.6179148041   -1.0267898182    0.4860510193
     34  H         5.3374065339   -0.7622041283   -0.2932961842
     35  H         4.9478574226   -1.9571100853    0.9757397664
     36  H         4.5899957607   -0.2268439803    1.2419281148
     37  O        -3.4604435206   -1.0862762896   -0.2851935190
     38  H        -2.5174640668   -0.8824573095    1.5624573065
     39  H        -2.6247308829   -2.5531297594    0.9393542691
     40  C        -4.7597806049   -1.0398007021    0.2675389308
     41  H        -5.4353356089   -0.7022169632   -0.5232054374
     42  H        -4.8122798876   -0.3364233180    1.1140766328
     43  H        -5.0894931735   -2.0325002620    0.6185306770
   Point Group: c1    Number of degrees of freedom:   123


   Energy is  -1059.402825939

              Constraints and their Current Values
                                        Value     Constraint
   Dihedral:        1   2   4   8      109.632      109.600
   Dihedral:        2   1   3   6      -59.720      -59.700

 Attempting to Generate Delocalized Internal Coordinates

   Using Lagrange Multiplier Algorithm


125 Hessian modes will be used to form the next step
  Hessian Eigenvalues:
    -0.977753   -0.977753    0.045000    0.045000    0.045000    0.045000
     0.045000    0.045000    0.045000    0.045000    0.045000    0.045000
     0.045000    0.045000    0.045583    0.048863    0.060750    0.062587
     0.068536    0.070240    0.072169    0.072959    0.075247    0.076247
     0.077661    0.080511    0.081466    0.081857    0.082645    0.084531
     0.085243    0.086427    0.086496    0.089680    0.090979    0.091981
     0.103798    0.108252    0.112957    0.112977    0.114838    0.115065
     0.116498    0.116570    0.116674    0.118199    0.118510    0.119929
     0.120197    0.123750    0.132021    0.138879    0.140524    0.140796
     0.141946    0.160000    0.160000    0.160000    0.160000    0.160000
     0.160000    0.160000    0.160000    0.160000    0.160000    0.160000
     0.160000    0.165111    0.183566    0.220359    0.220360    0.227988
     0.234155    0.249999    0.249999    0.250000    0.250000    0.250000
     0.250000    0.250000    0.250000    0.252682    0.254002    0.265182
     0.276577    0.301635    0.307362    0.309045    0.309511    0.333155
     0.333556    0.334528    0.334744    0.334759    0.335797    0.340815
     0.341523    0.342443    0.343551    0.343613    0.343703    0.344180
     0.344193    0.344259    0.344470    0.344554    0.344607    0.344636
     0.345011    0.346971    0.347197    0.349227    0.350972    0.400054
     0.401777    0.425742    0.426046    0.434512    0.435663    0.536056
     0.555760    0.973665    1.004600    1.022753    1.022753

 Minimum Search - Taking P-RFO Step
 Searching for Lamda that Maximizes Along the Constraint modes Only
 Value Taken    Lamda =   0.00002732
 Searching for Lamda that Minimizes Along All other modes
 Value Taken    Lamda =  -0.09078942
 Calculated Step too Large.  Step scaled by  0.663516
 Step Taken.  Stepsize is  0.300000

                             Maximum     Tolerance    Cnvgd?
         Gradient            0.121427       0.000300      NO
         Displacement        0.125453       0.001200      NO
         Energy change     *********       0.000001      NO


 New Cartesian Coordinates Obtained by Inverse Iteration

 Displacement from previous Coordinates is:  1.292754
 Adding empirical dispersion correction 
 ----------------------------------------------------------------
 Doing -D3(op) with
 s6 =   1.00000
 s8 =   0.78311
 a1 =   0.30000
 a2 =   4.25000
 n  =  10.00000
 -D3 energy without 3body term =     -0.0497328464 hartrees
 ----------------------------------------------------------------
             Standard Nuclear Orientation (Angstroms)
    I     Atom           X                Y                Z
 ----------------------------------------------------------------
    1      C      -0.7755966665     0.0691496361    -0.6172013453
    2      C       0.7997329662    -0.0519604326    -0.7489154334
    3      C      -1.2035892947     1.2698136172     0.2625425164
    4      C       1.5586644258     1.1800043419    -0.1857038505
    5      O      -1.9973195945     2.1162432914    -0.5106987209
    6      O      -0.9212882262     1.4820631586     1.4485455715
    7      O       1.3212746687     2.2658065992    -1.0158593374
    8      O       2.2569050715     1.2498459850     0.8371674307
    9      C       1.9782238014     3.4881905584    -0.5681514334
   10      C      -2.3362605485     3.3635086235     0.1675746353
   11      C      -1.1266380405    -1.3475363004    -0.0320270995
   12      C      -0.8146605981    -2.4123418423    -1.1584355248
   13      C       0.7359468218    -2.5727895150    -1.0307134929
   14      C       1.0583422683    -1.4453544672     0.0079549534
   15      O      -0.0574569645    -1.5554859044     0.9407978797
   16      H      -1.2317536512     0.2206736937    -1.6062191814
   17      H       1.0783667342    -0.1531803695    -1.8068610534
   18      H       3.0764297749     3.3717898940    -0.5613299648
   19      H      -1.4244876183     3.9355431532     0.4132434782
   20      H      -1.3408552968    -3.3536620158    -0.9490054821
   21      H      -1.1343351578    -2.0647417908    -2.1500093142
   22      H       0.9971095249    -3.5487739580    -0.5970917915
   23      H       1.2828269641    -2.4587259147    -1.9760278060
   24      H       1.6866538571     4.2699237474    -1.2853519211
   25      H       1.6525192623     3.7662401915     0.4498160393
   26      H      -2.8965331183     3.1767520549     1.1007064899
   27      H      -2.9600630344     3.9323164289    -0.5379891827
   28      C      -2.5041063554    -1.4959906869     0.6495983694
   29      C       2.3876237116    -1.5924359413     0.7778180527
   30      O       3.4512917675    -1.2652823443    -0.1454386057
   31      H       2.4848361858    -2.6351263039     1.1532008474
   32      H       2.3753200837    -0.9070512609     1.6459095417
   33      C       4.7052150123    -1.1677630267     0.5542811690
   34      H       5.4696617288    -0.9053984518    -0.1948465023
   35      H       4.9993508627    -2.1234327611     1.0376243255
   36      H       4.6874780170    -0.3821705340     1.3381376563
   37      O      -3.4937054300    -1.0657072158    -0.3134234146
   38      H      -2.5312439012    -0.8777003062     1.5690501962
   39      H      -2.6559617629    -2.5589613720     0.9383988484
   40      C      -4.7975189364    -1.0249426204     0.2956012062
   41      H      -5.5016936483    -0.6770938235    -0.4774654127
   42      H      -4.8391556493    -0.3251315322     1.1567821972
   43      H      -5.1326467900    -2.0220264003     0.6537084094
 ----------------------------------------------------------------
 Molecular Point Group                 C1    NOp =  1
 Largest Abelian Subgroup              C1    NOp =  1
 Nuclear Repulsion Energy =  1948.6841866160 hartrees
 There are       81 alpha and       81 beta electrons
 Applying Cartesian multipole field
    Component          Value
    ---------          -----
     (2,0,0)        1.00000E-12
     (0,2,0)        2.00000E-11
     (0,0,2)       -3.00000E-11
 Nucleus-field energy     =     0.0000000346 hartrees
 Requested basis set is STO-3G
 There are 64 shells and 127 basis functions
 A cutoff of  1.0D-12 yielded   1654 shell pairs
 There are      7267 function pairs
 Smallest overlap matrix eigenvalue = 2.10E-01
 Guess MOs from SCF MO coefficient file
 Reading MOs from coefficient file
 Reading MOs from coefficient file
 A restricted hybrid HF-DFT SCF calculation will be
 performed using Pulay DIIS extrapolation
 Exchange:     0.2000 Hartree-Fock + 0.0800 Slater + 0.7200 B88
 Correlation:  0.1900 VWN1RPA + 0.8100 LYP
 Using SG-1 standard quadrature grid
 Dispersion:   Grimme D3
 SCF converges when DIIS error is below 1.0E-08
 Geometry optimization detected.  Setting ReadMinima to 0
 Setting SaveMinima to 0
 -------------------------------------------------------
 OpenMP Integral computing Module                
 Release: version 1.0, May 2013, Q-Chem Inc. Pittsburgh 
 -------------------------------------------------------
 -------------------------------------------------------
 OpenMP BLAS3 based DFT computing Module                
 Release: version 1.0, May 2013, Q-Chem Inc. Pittsburgh 
 -------------------------------------------------------
 ---------------------------------------
  Cycle       Energy         DIIS Error
 ---------------------------------------
    1   -1059.2214905170      4.96E-03
    2   -1059.4369582970      1.60E-03
    3   -1059.4292291208      2.49E-03
    4   -1059.4421878290      5.83E-04
    5   -1059.4429827388      1.02E-04
    6   -1059.4430061291      3.49E-05
    7   -1059.4430081137      2.04E-05
    8   -1059.4430090680      4.13E-06
    9   -1059.4430091109      6.77E-07
   10   -1059.4430091121      1.59E-07
   11   -1059.4430091122      3.76E-08
   12   -1059.4430091122      1.70E-08
   13   -1059.4430091123      4.06E-09 Convergence criterion met
 ---------------------------------------
 SCF time:  CPU 87.86 s  wall 3.69 s
 SCF   energy in the final basis set = -1059.4430091123
 Total energy in the final basis set = -1059.4430091123
 
 --------------------------------------------------------------
 
                    Orbital Energies (a.u.)
 --------------------------------------------------------------
 
 Alpha MOs
 -- Occupied --
-18.934 -18.934 -18.891 -18.882 -18.879 -18.862 -18.861 -10.098
-10.097 -10.067 -10.066 -10.065 -10.061 -10.060 -10.052 -10.050
-10.044 -10.028 -10.027 -10.012 -10.010  -1.024  -1.018  -0.982
 -0.963  -0.954  -0.937  -0.934  -0.761  -0.735  -0.721  -0.679
 -0.677  -0.663  -0.638  -0.605  -0.601  -0.584  -0.537  -0.511
 -0.483  -0.475  -0.457  -0.444  -0.441  -0.428  -0.421  -0.419
 -0.413  -0.412  -0.408  -0.405  -0.402  -0.391  -0.376  -0.374
 -0.363  -0.358  -0.356  -0.345  -0.344  -0.334  -0.312  -0.304
 -0.297  -0.293  -0.286  -0.274  -0.267  -0.246  -0.241  -0.230
 -0.220  -0.214  -0.175  -0.172  -0.148  -0.144  -0.140  -0.140
 -0.132
 -- Virtual --
  0.110   0.116   0.221   0.257   0.265   0.276   0.307   0.316
  0.325   0.330   0.356   0.366   0.370   0.376   0.380   0.390
  0.403   0.407   0.413   0.419   0.422   0.425   0.429   0.431
  0.434   0.438   0.440   0.442   0.443   0.447   0.451   0.452
  0.459   0.462   0.467   0.478   0.480   0.481   0.486   0.498
  0.507   0.524   0.560   0.562   0.670   0.688
 --------------------------------------------------------------
 
          Ground-State Mulliken Net Atomic Charges

     Atom                 Charge (a.u.)
  ----------------------------------------
      1 C                    -0.079706
      2 C                    -0.079611
      3 C                     0.218136
      4 C                     0.223591
      5 O                    -0.174792
      6 O                    -0.224499
      7 O                    -0.183406
      8 O                    -0.220733
      9 C                    -0.125127
     10 C                    -0.125561
     11 C                     0.106758
     12 C                    -0.146045
     13 C                    -0.145222
     14 C                     0.108070
     15 O                    -0.203718
     16 H                     0.092753
     17 H                     0.088746
     18 H                     0.091190
     19 H                     0.087955
     20 H                     0.075308
     21 H                     0.077205
     22 H                     0.075121
     23 H                     0.078209
     24 H                     0.092724
     25 H                     0.091540
     26 H                     0.090368
     27 H                     0.093334
     28 C                    -0.046140
     29 C                    -0.047273
     30 O                    -0.203635
     31 H                     0.067703
     32 H                     0.092992
     33 C                    -0.122336
     34 H                     0.082090
     35 H                     0.066543
     36 H                     0.075007
     37 O                    -0.200667
     38 H                     0.079665
     39 H                     0.072205
     40 C                    -0.122253
     41 H                     0.085524
     42 H                     0.069325
     43 H                     0.068660
  ----------------------------------------
  Sum of atomic charges =     0.000000

 -----------------------------------------------------------------
                    Cartesian Multipole Moments
 -----------------------------------------------------------------
    Charge (ESU x 10^10)
                 0.0000
    Dipole Moment (Debye)
         X      -0.8489      Y       0.6232      Z      -0.6349
       Tot       1.2297
    Quadrupole Moments (Debye-Ang)
        XX    -104.8949     XY      -0.0515     YY    -102.3107
        XZ      -2.8893     YZ      -2.0912     ZZ    -118.5837
    Octopole Moments (Debye-Ang^2)
       XXX     -11.8882    XXY       7.0910    XYY      -2.1718
       YYY      53.6430    XXZ      22.8291    XYZ      -6.2027
       YYZ       2.7871    XZZ       1.0327    YZZ      -0.6514
       ZZZ      -0.3723
    Hexadecapole Moments (Debye-Ang^3)
      XXXX   -3851.6279   XXXY      26.6640   XXYY   -1055.3719
      XYYY      34.4094   YYYY   -2423.2459   XXXZ     -21.1488
      XXYZ     -41.9308   XYYZ      -8.6895   YYYZ     -23.8402
      XXZZ    -776.8522   XYZZ       5.5484   YYZZ    -537.0927
      XZZZ       1.2421   YZZZ       3.5939   ZZZZ    -507.5785
 -----------------------------------------------------------------
 Calculating analytic gradient of the SCF energy
 Gradient of SCF Energy
            1           2           3           4           5           6
    1  -0.0026637   0.0018464  -0.0032411  -0.0046118   0.0130615  -0.0081632
    2  -0.0030761   0.0074831   0.0128273   0.0181130  -0.0047027  -0.0050463
    3   0.0182776   0.0000853  -0.0038438  -0.0174722   0.0312956  -0.0256611
            7           8           9          10          11          12
    1   0.0191434  -0.0123628  -0.0046591  -0.0006728  -0.0020565   0.0045119
    2  -0.0132746  -0.0010792  -0.0014646  -0.0013156   0.0024599   0.0049531
    3   0.0343692  -0.0180518  -0.0067750  -0.0072768   0.0045715   0.0052041
           13          14          15          16          17          18
    1  -0.0009406  -0.0015582   0.0015265   0.0021124  -0.0006381  -0.0043944
    2   0.0050288  -0.0087637   0.0038050   0.0006099  -0.0000533  -0.0011150
    3   0.0031451   0.0089515  -0.0254178   0.0027219   0.0045199   0.0000466
           19          20          21          22          23          24
    1  -0.0025443   0.0004564  -0.0000603  -0.0001310   0.0000130   0.0005525
    2  -0.0040538   0.0021990  -0.0018713   0.0020954  -0.0016019  -0.0035103
    3  -0.0015098  -0.0011553   0.0021101  -0.0004097   0.0025614   0.0022250
           25          26          27          28          29          30
    1   0.0009370   0.0025716   0.0023147   0.0035587  -0.0033977   0.0033503
    2  -0.0025440  -0.0007540  -0.0029706   0.0039585   0.0050355  -0.0045536
    3  -0.0039164  -0.0038940   0.0018254  -0.0106171  -0.0123123   0.0302924
           31          32          33          34          35          36
    1   0.0012955   0.0008851  -0.0081964  -0.0024620  -0.0015646  -0.0008954
    2   0.0028316  -0.0037809   0.0011909  -0.0010375   0.0021824  -0.0021745
    3  -0.0023266  -0.0044637  -0.0126891   0.0025783  -0.0015446  -0.0022485
           37          38          39          40          41          42
    1  -0.0055153  -0.0012713  -0.0005784   0.0097478   0.0020546   0.0011154
    2  -0.0082430  -0.0020903   0.0024490   0.0030425  -0.0013723  -0.0016679
    3   0.0283210  -0.0053391  -0.0035215  -0.0119537   0.0026900  -0.0022614
           43
    1   0.0015242
    2   0.0018519
    3  -0.0011308
 Max gradient component =       3.437E-02
 RMS gradient           =       8.571E-03
 Gradient time:  CPU 28.56 s  wall 1.20 s
 Geometry Optimization Parameters
   NAtoms,    NIC,     NZ,  NCons,   NDum,   NFix, NCnnct, MaxDiis
       43     325       0       2       0       0       0       0

 Cartesian Hessian Update
 Hessian Updated using BFGS Update


** CONSTRAINED OPTIMIZATION IN DELOCALIZED INTERNAL COORDINATES **
   Searching for a Minimum

   Optimization Cycle:   2

                       Coordinates (Angstroms)
     ATOM                X               Y               Z
      1  C        -0.7755966665    0.0691496361   -0.6172013453
      2  C         0.7997329662   -0.0519604326   -0.7489154334
      3  C        -1.2035892947    1.2698136172    0.2625425164
      4  C         1.5586644258    1.1800043419   -0.1857038505
      5  O        -1.9973195945    2.1162432914   -0.5106987209
      6  O        -0.9212882262    1.4820631586    1.4485455715
      7  O         1.3212746687    2.2658065992   -1.0158593374
      8  O         2.2569050715    1.2498459850    0.8371674307
      9  C         1.9782238014    3.4881905584   -0.5681514334
     10  C        -2.3362605485    3.3635086235    0.1675746353
     11  C        -1.1266380405   -1.3475363004   -0.0320270995
     12  C        -0.8146605981   -2.4123418423   -1.1584355248
     13  C         0.7359468218   -2.5727895150   -1.0307134929
     14  C         1.0583422683   -1.4453544672    0.0079549534
     15  O        -0.0574569645   -1.5554859044    0.9407978797
     16  H        -1.2317536512    0.2206736937   -1.6062191814
     17  H         1.0783667342   -0.1531803695   -1.8068610534
     18  H         3.0764297749    3.3717898940   -0.5613299648
     19  H        -1.4244876183    3.9355431532    0.4132434782
     20  H        -1.3408552968   -3.3536620158   -0.9490054821
     21  H        -1.1343351578   -2.0647417908   -2.1500093142
     22  H         0.9971095249   -3.5487739580   -0.5970917915
     23  H         1.2828269641   -2.4587259147   -1.9760278060
     24  H         1.6866538571    4.2699237474   -1.2853519211
     25  H         1.6525192623    3.7662401915    0.4498160393
     26  H        -2.8965331183    3.1767520549    1.1007064899
     27  H        -2.9600630344    3.9323164289   -0.5379891827
     28  C        -2.5041063554   -1.4959906869    0.6495983694
     29  C         2.3876237116   -1.5924359413    0.7778180527
     30  O         3.4512917675   -1.2652823443   -0.1454386057
     31  H         2.4848361858   -2.6351263039    1.1532008474
     32  H         2.3753200837   -0.9070512609    1.6459095417
     33  C         4.7052150123   -1.1677630267    0.5542811690
     34  H         5.4696617288   -0.9053984518   -0.1948465023
     35  H         4.9993508627   -2.1234327611    1.0376243255
     36  H         4.6874780170   -0.3821705340    1.3381376563
     37  O        -3.4937054300   -1.0657072158   -0.3134234146
     38  H        -2.5312439012   -0.8777003062    1.5690501962
     39  H        -2.6559617629   -2.5589613720    0.9383988484
     40  C        -4.7975189364   -1.0249426204    0.2956012062
     41  H        -5.5016936483   -0.6770938235   -0.4774654127
     42  H        -4.8391556493   -0.3251315322    1.1567821972
     43  H        -5.1326467900   -2.0220264003    0.6537084094
   Point Group: c1    Number of degrees of freedom:   123


   Energy is  -1059.443009112

              Constraints and their Current Values
                                        Value     Constraint
   Dihedral:        1   2   4   8      109.601      109.600
   Dihedral:        2   1   3   6      -59.708      -59.700
 Hessian Updated using BFGS Update

   Using Lagrange Multiplier Algorithm


103 Hessian modes will be used to form the next step
  Hessian Eigenvalues:
    -0.977753   -0.977469    0.044972    0.045000    0.045000    0.045003
     0.045591    0.048861    0.060745    0.062500    0.068560    0.070260
     0.072799    0.072979    0.075258    0.076233    0.077670    0.080674
     0.081502    0.081853    0.082776    0.084490    0.085268    0.086451
     0.086586    0.089695    0.091073    0.092559    0.104233    0.108422
     0.112963    0.112986    0.114813    0.115052    0.116568    0.116671
     0.117238    0.118199    0.118510    0.119934    0.120222    0.124296
     0.132052    0.139655    0.140519    0.140796    0.141951    0.159875
     0.160918    0.167183    0.184400    0.220259    0.220367    0.225886
     0.234150    0.241187    0.249999    0.250000    0.251813    0.253992
     0.256538    0.268596    0.279564    0.302289    0.307401    0.309188
     0.323326    0.333252    0.333760    0.334614    0.334752    0.335410
     0.336674    0.340777    0.341535    0.342465    0.343584    0.343675
     0.343831    0.344184    0.344230    0.344389    0.344508    0.344589
     0.344627    0.344953    0.346066    0.347069    0.347582    0.349302
     0.375025    0.400852    0.406923    0.423780    0.425925    0.432897
     0.435526    0.530462    0.547358    0.981214    1.012353    1.022753
     1.030581

 Minimum Search - Taking P-RFO Step
 Searching for Lamda that Maximizes Along the Constraint modes Only
 Value Taken    Lamda =   0.00002192
 Searching for Lamda that Minimizes Along All other modes
 Value Taken    Lamda =  -0.02062030
 Step Taken.  Stepsize is  0.287802

                             Maximum     Tolerance    Cnvgd?
         Gradient            0.047125       0.000300      NO
         Displacement        0.110768       0.001200      NO
         Energy change     -0.040183       0.000001      NO


 New Cartesian Coordinates Obtained by Inverse Iteration

 Displacement from previous Coordinates is:  0.997240
 Adding empirical dispersion correction 
 ----------------------------------------------------------------
 Doing -D3(op) with
 s6 =   1.00000
 s8 =   0.78311
 a1 =   0.30000
 a2 =   4.25000
 n  =  10.00000
 -D3 energy without 3body term =     -0.0496897080 hartrees
 ----------------------------------------------------------------
             Standard Nuclear Orientation (Angstroms)
    I     Atom           X                Y                Z
 ----------------------------------------------------------------
    1      C      -0.7705526575     0.0508393555    -0.6805613023
    2      C       0.8100021113    -0.0869240658    -0.7838211885
    3      C      -1.2180031146     1.2622747296     0.2073219713
    4      C       1.5944587572     1.1253331075    -0.1799482295
    5      O      -2.0182492184     2.1259695587    -0.5982459525
    6      O      -0.9597574353     1.4703342889     1.4168519538
    7      O       1.3581548392     2.2440310543    -1.0338045109
    8      O       2.2874468015     1.1635118954     0.8644380014
    9      C       2.0430142932     3.4377464500    -0.4962107589
   10      C      -2.3815831051     3.3335051462     0.1745113666
   11      C      -1.1366177632    -1.3623891951    -0.0530771460
   12      C      -0.8310443153    -2.4684319314    -1.1573440291
   13      C       0.7279118721    -2.6224919242    -1.0275550606
   14      C       1.0605424528    -1.4573233710    -0.0084773239
   15      O      -0.0632865088    -1.5502186017     0.9532352596
   16      H      -1.2189610127     0.1943603013    -1.6799806132
   17      H       1.0972207517    -0.1939163660    -1.8462351135
   18      H       3.1448298994     3.3009159117    -0.4645999891
   19      H      -1.4816377606     3.9072052806     0.4827101715
   20      H      -1.3621953961    -3.4059431017    -0.9247991506
   21      H      -1.1452208041    -2.1357898189    -2.1601247991
   22      H       0.9962938487    -3.5918146201    -0.5755446932
   23      H       1.2631712702    -2.5207636442    -1.9852466807
   24      H       1.7925238490     4.2676873646    -1.1837562485
   25      H       1.6942454873     3.6841635365     0.5296321704
   26      H      -2.9635400611     3.0823669660     1.0870026404
   27      H      -3.0016732061     3.9535093730    -0.5001056923
   28      C      -2.5365591735    -1.4619632462     0.6332071033
   29      C       2.4188205332    -1.5489735264     0.7540661081
   30      O       3.4725182849    -1.2243621964    -0.2224318879
   31      H       2.5385366595    -2.5769784460     1.1740187188
   32      H       2.3988464461    -0.8212037520     1.6003436996
   33      C       4.7186059004    -1.0815490768     0.5345536801
   34      H       5.5062056360    -0.8240673415    -0.2004543118
   35      H       5.0163953112    -2.0197988822     1.0576303110
   36      H       4.6617912134    -0.2700242268     1.2960162860
   37      O      -3.5319540744    -1.0367382277    -0.3653901385
   38      H      -2.5444682651    -0.8082619307     1.5382426940
   39      H      -2.7062576973    -2.5130866118     0.9692090066
   40      C      -4.8246600789    -0.9801884177     0.3223387726
   41      H      -5.5658772244    -0.6431314903    -0.4284321075
   42      H      -4.8253882473    -0.2594782689     1.1722530328
   43      H      -5.1471458717    -1.9708441556     0.7182579235
 ----------------------------------------------------------------
 Molecular Point Group                 C1    NOp =  1
 Largest Abelian Subgroup              C1    NOp =  1
 Nuclear Repulsion Energy =  1938.5849834373 hartrees
 There are       81 alpha and       81 beta electrons
 Applying Cartesian multipole field
    Component          Value
    ---------          -----
     (2,0,0)        1.00000E-12
     (0,2,0)        2.00000E-11
     (0,0,2)       -3.00000E-11
 Nucleus-field energy     =     0.0000000339 hartrees
 Requested basis set is STO-3G
 There are 64 shells and 127 basis functions
 A cutoff of  1.0D-12 yielded   1645 shell pairs
 There are      7243 function pairs
 Smallest overlap matrix eigenvalue = 2.14E-01
 Guess MOs from SCF MO coefficient file
 Reading MOs from coefficient file
 Reading MOs from coefficient file
 A restricted hybrid HF-DFT SCF calculation will be
 performed using Pulay DIIS extrapolation
 Exchange:     0.2000 Hartree-Fock + 0.0800 Slater + 0.7200 B88
 Correlation:  0.1900 VWN1RPA + 0.8100 LYP
 Using SG-1 standard quadrature grid
 Dispersion:   Grimme D3
 SCF converges when DIIS error is below 1.0E-08
 Geometry optimization detected.  Setting ReadMinima to 0
 Setting SaveMinima to 0
 -------------------------------------------------------
 OpenMP Integral computing Module                
 Release: version 1.0, May 2013, Q-Chem Inc. Pittsburgh 
 -------------------------------------------------------
 -------------------------------------------------------
 OpenMP BLAS3 based DFT computing Module                
 Release: version 1.0, May 2013, Q-Chem Inc. Pittsburgh 
 -------------------------------------------------------
 ---------------------------------------
  Cycle       Energy         DIIS Error
 ---------------------------------------
    1   -1059.2800462215      4.01E-03
    2   -1059.4484558606      1.31E-03
    3   -1059.4434051336      2.03E-03
    4   -1059.4518917754      5.44E-04
    5   -1059.4525681680      1.01E-04
    6   -1059.4525921380      2.86E-05
    7   -1059.4525934678      1.75E-05
    8   -1059.4525941372      5.36E-06
    9   -1059.4525942069      8.60E-07
   10   -1059.4525942088      1.82E-07
   11   -1059.4525942088      5.11E-08
   12   -1059.4525942089      9.69E-09 Convergence criterion met
 ---------------------------------------
 SCF time:  CPU 82.65 s  wall 3.47 s
 SCF   energy in the final basis set = -1059.4525942089
 Total energy in the final basis set = -1059.4525942089
 
 --------------------------------------------------------------
 
                    Orbital Energies (a.u.)
 --------------------------------------------------------------
 
 Alpha MOs
 -- Occupied --
-18.933 -18.933 -18.893 -18.884 -18.879 -18.871 -18.865 -10.096
-10.092 -10.063 -10.062 -10.062 -10.057 -10.056 -10.049 -10.043
-10.041 -10.030 -10.029 -10.013 -10.011  -1.010  -1.005  -0.969
 -0.952  -0.944  -0.932  -0.929  -0.758  -0.727  -0.717  -0.670
 -0.669  -0.656  -0.633  -0.606  -0.599  -0.582  -0.534  -0.506
 -0.481  -0.468  -0.453  -0.437  -0.436  -0.420  -0.415  -0.413
 -0.407  -0.406  -0.403  -0.400  -0.397  -0.385  -0.374  -0.370
 -0.360  -0.351  -0.350  -0.342  -0.340  -0.330  -0.312  -0.302
 -0.291  -0.289  -0.277  -0.271  -0.265  -0.254  -0.247  -0.235
 -0.227  -0.222  -0.176  -0.173  -0.152  -0.146  -0.143  -0.139
 -0.133
 -- Virtual --
  0.101   0.106   0.216   0.249   0.255   0.268   0.299   0.305
  0.314   0.319   0.343   0.344   0.352   0.357   0.362   0.377
  0.387   0.393   0.402   0.408   0.417   0.418   0.419   0.424
  0.426   0.429   0.431   0.434   0.436   0.437   0.438   0.440
  0.447   0.452   0.460   0.468   0.470   0.471   0.478   0.489
  0.497   0.514   0.550   0.554   0.645   0.662
 --------------------------------------------------------------
 
          Ground-State Mulliken Net Atomic Charges

     Atom                 Charge (a.u.)
  ----------------------------------------
      1 C                    -0.077161
      2 C                    -0.078399
      3 C                     0.206664
      4 C                     0.215348
      5 O                    -0.164574
      6 O                    -0.216457
      7 O                    -0.170942
      8 O                    -0.209910
      9 C                    -0.127621
     10 C                    -0.126660
     11 C                     0.101017
     12 C                    -0.144381
     13 C                    -0.143221
     14 C                     0.100740
     15 O                    -0.196651
     16 H                     0.091674
     17 H                     0.088888
     18 H                     0.088551
     19 H                     0.086102
     20 H                     0.075122
     21 H                     0.076390
     22 H                     0.074686
     23 H                     0.076744
     24 H                     0.089220
     25 H                     0.089072
     26 H                     0.087901
     27 H                     0.089553
     28 C                    -0.050849
     29 C                    -0.053350
     30 O                    -0.192481
     31 H                     0.065904
     32 H                     0.095472
     33 C                    -0.125990
     34 H                     0.079086
     35 H                     0.067051
     36 H                     0.075165
     37 O                    -0.187971
     38 H                     0.078643
     39 H                     0.071705
     40 C                    -0.125883
     41 H                     0.083036
     42 H                     0.069559
     43 H                     0.069206
  ----------------------------------------
  Sum of atomic charges =     0.000000

 -----------------------------------------------------------------
                    Cartesian Multipole Moments
 -----------------------------------------------------------------
    Charge (ESU x 10^10)
                 0.0000
    Dipole Moment (Debye)
         X      -0.7533      Y       0.5834      Z      -0.3895
       Tot       1.0293
    Quadrupole Moments (Debye-Ang)
        XX    -104.8485     XY       0.4702     YY    -103.2873
        XZ      -2.7701     YZ      -1.3679     ZZ    -118.4775
    Octopole Moments (Debye-Ang^2)
       XXX     -11.9263    XXY       9.3115    XYY      -2.1261
       YYY      52.3908    XXZ      27.1301    XYZ      -5.3933
       YYZ       5.9696    XZZ       0.9825    YZZ      -0.5522
       ZZZ       4.2481
    Hexadecapole Moments (Debye-Ang^3)
      XXXX   -3921.3424   XXXY      27.4616   XXYY   -1064.5253
      XYYY      32.0148   YYYY   -2395.8132   XXXZ     -23.1408
      XXYZ     -45.3457   XYYZ      -7.5112   YYYZ     -29.2824
      XXZZ    -792.2651   XYZZ       4.7649   YYZZ    -531.5859
      XZZZ       1.4724   YZZZ      -5.0313   ZZZZ    -509.0957
 -----------------------------------------------------------------
 Calculating analytic gradient of the SCF energy
 Gradient of SCF Energy
            1           2           3           4           5           6
    1  -0.0012962   0.0002871  -0.0018129  -0.0006739  -0.0001108  -0.0002698
    2  -0.0030440   0.0025418   0.0058295   0.0046396  -0.0028894  -0.0003423
    3   0.0057506  -0.0004154  -0.0074458  -0.0084665   0.0017068   0.0055785
            7           8           9          10          11          12
    1  -0.0004583   0.0039328  -0.0012008   0.0020497  -0.0002502   0.0013771
    2  -0.0025892  -0.0079933  -0.0036193  -0.0023472   0.0019745  -0.0002796
    3   0.0003318   0.0066951  -0.0010600  -0.0015097  -0.0017220  -0.0003272
           13          14          15          16          17          18
    1  -0.0007830  -0.0003047   0.0014911   0.0006342  -0.0013320   0.0010989
    2   0.0006456   0.0017824  -0.0002258   0.0014369  -0.0016159   0.0000581
    3  -0.0013988   0.0007999  -0.0006363  -0.0009397  -0.0012701   0.0004186
           19          20          21          22          23          24
    1   0.0007882  -0.0010218  -0.0002645   0.0002861   0.0004168  -0.0003977
    2   0.0007592  -0.0004045  -0.0004103  -0.0001962  -0.0010042   0.0002689
    3   0.0005721  -0.0007382  -0.0007083   0.0005405  -0.0003792  -0.0006579
           25          26          27          28          29          30
    1   0.0000542  -0.0006195  -0.0003349  -0.0028460   0.0027110   0.0004295
    2   0.0004759   0.0001440   0.0002870  -0.0001471   0.0064889   0.0006044
    3   0.0013060   0.0012190  -0.0004285  -0.0006105  -0.0030483   0.0001248
           31          32          33          34          35          36
    1  -0.0007388  -0.0002936  -0.0048698   0.0003381   0.0008868   0.0005469
    2  -0.0005256   0.0016759  -0.0005394   0.0002074  -0.0007073   0.0006331
    3   0.0012689   0.0039090  -0.0015198  -0.0006074   0.0009801   0.0012664
           37          38          39          40          41          42
    1  -0.0011600   0.0000312   0.0003443   0.0050757  -0.0003524  -0.0005163
    2  -0.0006248   0.0003331  -0.0012468   0.0000033   0.0002088   0.0004585
    3  -0.0000243   0.0014993  -0.0000632  -0.0012542  -0.0006169   0.0011278
           43
    1  -0.0008716
    2  -0.0007048
    3   0.0007533
 Max gradient component =       8.467E-03
 RMS gradient           =       2.220E-03
 Gradient time:  CPU 26.83 s  wall 1.13 s
 Geometry Optimization Parameters
   NAtoms,    NIC,     NZ,  NCons,   NDum,   NFix, NCnnct, MaxDiis
       43     325       0       2       0       0       0       0

 Cartesian Hessian Update
 Hessian Updated using BFGS Update


** CONSTRAINED OPTIMIZATION IN DELOCALIZED INTERNAL COORDINATES **
   Searching for a Minimum

   Optimization Cycle:   3

                       Coordinates (Angstroms)
     ATOM                X               Y               Z
      1  C        -0.7705526575    0.0508393555   -0.6805613023
      2  C         0.8100021113   -0.0869240658   -0.7838211885
      3  C        -1.2180031146    1.2622747296    0.2073219713
      4  C         1.5944587572    1.1253331075   -0.1799482295
      5  O        -2.0182492184    2.1259695587   -0.5982459525
      6  O        -0.9597574353    1.4703342889    1.4168519538
      7  O         1.3581548392    2.2440310543   -1.0338045109
      8  O         2.2874468015    1.1635118954    0.8644380014
      9  C         2.0430142932    3.4377464500   -0.4962107589
     10  C        -2.3815831051    3.3335051462    0.1745113666
     11  C        -1.1366177632   -1.3623891951   -0.0530771460
     12  C        -0.8310443153   -2.4684319314   -1.1573440291
     13  C         0.7279118721   -2.6224919242   -1.0275550606
     14  C         1.0605424528   -1.4573233710   -0.0084773239
     15  O        -0.0632865088   -1.5502186017    0.9532352596
     16  H        -1.2189610127    0.1943603013   -1.6799806132
     17  H         1.0972207517   -0.1939163660   -1.8462351135
     18  H         3.1448298994    3.3009159117   -0.4645999891
     19  H        -1.4816377606    3.9072052806    0.4827101715
     20  H        -1.3621953961   -3.4059431017   -0.9247991506
     21  H        -1.1452208041   -2.1357898189   -2.1601247991
     22  H         0.9962938487   -3.5918146201   -0.5755446932
     23  H         1.2631712702   -2.5207636442   -1.9852466807
     24  H         1.7925238490    4.2676873646   -1.1837562485
     25  H         1.6942454873    3.6841635365    0.5296321704
     26  H        -2.9635400611    3.0823669660    1.0870026404
     27  H        -3.0016732061    3.9535093730   -0.5001056923
     28  C        -2.5365591735   -1.4619632462    0.6332071033
     29  C         2.4188205332   -1.5489735264    0.7540661081
     30  O         3.4725182849   -1.2243621964   -0.2224318879
     31  H         2.5385366595   -2.5769784460    1.1740187188
     32  H         2.3988464461   -0.8212037520    1.6003436996
     33  C         4.7186059004   -1.0815490768    0.5345536801
     34  H         5.5062056360   -0.8240673415   -0.2004543118
     35  H         5.0163953112   -2.0197988822    1.0576303110
     36  H         4.6617912134   -0.2700242268    1.2960162860
     37  O        -3.5319540744   -1.0367382277   -0.3653901385
     38  H        -2.5444682651   -0.8082619307    1.5382426940
     39  H        -2.7062576973   -2.5130866118    0.9692090066
     40  C        -4.8246600789   -0.9801884177    0.3223387726
     41  H        -5.5658772244   -0.6431314903   -0.4284321075
     42  H        -4.8253882473   -0.2594782689    1.1722530328
     43  H        -5.1471458717   -1.9708441556    0.7182579235
   Point Group: c1    Number of degrees of freedom:   123


   Energy is  -1059.452594209

              Constraints and their Current Values
                                        Value     Constraint
   Dihedral:        1   2   4   8      109.604      109.600
   Dihedral:        2   1   3   6      -59.705      -59.700
 Hessian Updated using BFGS Update

   Using Lagrange Multiplier Algorithm


106 Hessian modes will be used to form the next step
  Hessian Eigenvalues:
    -0.977653   -0.977530    0.043893    0.045000    0.045000    0.045002
     0.045008    0.045363    0.048719    0.060712    0.061912    0.068536
     0.070277    0.072283    0.072984    0.075258    0.076164    0.077660
     0.080435    0.081541    0.081830    0.083053    0.084104    0.085252
     0.086388    0.086793    0.089769    0.090974    0.092126    0.103854
     0.109142    0.112966    0.113029    0.114820    0.115062    0.116570
     0.116673    0.118199    0.118509    0.119899    0.120176    0.120605
     0.127013    0.132054    0.140349    0.140744    0.140901    0.141883
     0.159624    0.160062    0.162086    0.173767    0.186608    0.220238
     0.220487    0.232290    0.235218    0.237424    0.250000    0.250000
     0.250913    0.253969    0.254420    0.265207    0.279414    0.294148
     0.303062    0.308383    0.312566    0.329423    0.333332    0.333811
     0.334595    0.334751    0.335597    0.338377    0.340959    0.341365
     0.342465    0.343596    0.343706    0.343921    0.344186    0.344230
     0.344432    0.344509    0.344619    0.344654    0.345012    0.346804
     0.347120    0.349062    0.354736    0.372938    0.382859    0.400934
     0.411093    0.425921    0.430892    0.435162    0.511444    0.546805
     0.985407    1.020858    1.023181    1.039365

 Minimum Search - Taking P-RFO Step
 Searching for Lamda that Maximizes Along the Constraint modes Only
 Value Taken    Lamda =   0.00001284
 Searching for Lamda that Minimizes Along All other modes
 Value Taken    Lamda =  -0.00441071
 Step Taken.  Stepsize is  0.185984

                             Maximum     Tolerance    Cnvgd?
         Gradient            0.011439       0.000300      NO
         Displacement        0.069004       0.001200      NO
         Energy change     -0.009585       0.000001      NO


 New Cartesian Coordinates Obtained by Inverse Iteration

 Displacement from previous Coordinates is:  1.148482
 Adding empirical dispersion correction 
 ----------------------------------------------------------------
 Doing -D3(op) with
 s6 =   1.00000
 s8 =   0.78311
 a1 =   0.30000
 a2 =   4.25000
 n  =  10.00000
 -D3 energy without 3body term =     -0.0497174018 hartrees
 ----------------------------------------------------------------
             Standard Nuclear Orientation (Angstroms)
    I     Atom           X                Y                Z
 ----------------------------------------------------------------
    1      C      -0.7330604348     0.0479902851    -0.6868130948
    2      C       0.8474499698    -0.0826918744    -0.7602457517
    3      C      -1.1915614461     1.2587161774     0.1955525177
    4      C       1.5712914045     1.1777842128    -0.1594554518
    5      O      -1.9849624215     2.1299399931    -0.6219464158
    6      O      -0.9521920611     1.4666929143     1.4071866204
    7      O       1.2923667027     2.2711607403    -1.0477442445
    8      O       2.2332163756     1.3057250674     0.8939370661
    9      C       1.8906510484     3.5165907907    -0.5101500833
   10      C      -2.3990783491     3.3136429088     0.1692908570
   11      C      -1.1103642377    -1.3561595291    -0.0450540933
   12      C      -0.8123508019    -2.4654296401    -1.1425313093
   13      C       0.7455234924    -2.6256866492    -1.0152443842
   14      C       1.0890182976    -1.4682236197     0.0076503880
   15      O      -0.0421505932    -1.5509719085     0.9692323040
   16      H      -1.1761437721     0.1807122204    -1.6893432819
   17      H       1.1544581478    -0.1846216588    -1.8166936491
   18      H       2.9958522490     3.4448186484    -0.4450447991
   19      H      -1.5219897971     3.8953533632     0.5204784758
   20      H      -1.3465158590    -3.4002089508    -0.9087435453
   21      H      -1.1229216505    -2.1260456022    -2.1436113373
   22      H       1.0062715338    -3.5992381645    -0.5688771915
   23      H       1.2796806271    -2.5190759590    -1.9726787593
   24      H       1.6143073363     4.3202571284    -1.2177469551
   25      H       1.4943820076     3.7561813115     0.4982650727
   26      H      -3.0053051684     3.0253904819     1.0526949130
   27      H      -3.0087335058     3.9384299458    -0.5096229225
   28      C      -2.5150045947    -1.4260973917     0.6349075526
   29      C       2.4494875136    -1.6121970328     0.7597944849
   30      O       3.5109336915    -1.3103079382    -0.2243733066
   31      H       2.5437943961    -2.6475342846     1.1638893861
   32      H       2.4589911245    -0.8927437328     1.6075758703
   33      C       4.7724342461    -1.2167624738     0.5269394856
   34      H       5.5643380892    -0.9795222754    -0.2092366636
   35      H       5.0347168301    -2.1706436618     1.0363731749
   36      H       4.7422895113    -0.4109868465     1.2931866293
   37      O      -3.5060179555    -0.9936306882    -0.3725789620
   38      H      -2.5144500759    -0.7618050464     1.5300095603
   39      H      -2.7053198337    -2.4676279832     0.9841410736
   40      C      -4.8058819603    -0.9226757639     0.3141999547
   41      H      -5.5433755035    -0.5825713900    -0.4377881410
   42      H      -4.7964380566    -0.1987023641     1.1589040940
   43      H      -5.1307332899    -1.9101258771     0.7110088052
 ----------------------------------------------------------------
 Molecular Point Group                 C1    NOp =  1
 Largest Abelian Subgroup              C1    NOp =  1
 Nuclear Repulsion Energy =  1934.8360241948 hartrees
 There are       81 alpha and       81 beta electrons
 Applying Cartesian multipole field
    Component          Value
    ---------          -----
     (2,0,0)        1.00000E-12
     (0,2,0)        2.00000E-11
     (0,0,2)       -3.00000E-11
 Nucleus-field energy     =     0.0000000347 hartrees
 Requested basis set is STO-3G
 There are 64 shells and 127 basis functions
 A cutoff of  1.0D-12 yielded   1645 shell pairs
 There are      7240 function pairs
 Smallest overlap matrix eigenvalue = 2.14E-01
 Guess MOs from SCF MO coefficient file
 Reading MOs from coefficient file
 Reading MOs from coefficient file
 A restricted hybrid HF-DFT SCF calculation will be
 performed using Pulay DIIS extrapolation
 Exchange:     0.2000 Hartree-Fock + 0.0800 Slater + 0.7200 B88
 Correlation:  0.1900 VWN1RPA + 0.8100 LYP
 Using SG-1 standard quadrature grid
 Dispersion:   Grimme D3
 SCF converges when DIIS error is below 1.0E-08
 Geometry optimization detected.  Setting ReadMinima to 0
 Setting SaveMinima to 0
 -------------------------------------------------------
 OpenMP Integral computing Module                
 Release: version 1.0, May 2013, Q-Chem Inc. Pittsburgh 
 -------------------------------------------------------
 -------------------------------------------------------
 OpenMP BLAS3 based DFT computing Module                
 Release: version 1.0, May 2013, Q-Chem Inc. Pittsburgh 
 -------------------------------------------------------
 ---------------------------------------
  Cycle       Energy         DIIS Error
 ---------------------------------------
    1   -1059.4302787758      2.82E-03
    2   -1059.4538665214      3.76E-04
    3   -1059.4526174860      8.51E-04
    4   -1059.4542333431      8.56E-05
    5   -1059.4542492200      3.48E-05
    6   -1059.4542511513      2.14E-05
    7   -1059.4542521965      5.21E-06
    8   -1059.4542522633      8.71E-07
    9   -1059.4542522652      2.72E-07
   10   -1059.4542522654      9.51E-08
   11   -1059.4542522654      2.28E-08
   12   -1059.4542522655      6.68E-09 Convergence criterion met
 ---------------------------------------
 SCF time:  CPU 79.36 s  wall 3.33 s
 SCF   energy in the final basis set = -1059.4542522655
 Total energy in the final basis set = -1059.4542522655
 
 --------------------------------------------------------------
 
                    Orbital Energies (a.u.)
 --------------------------------------------------------------
 
 Alpha MOs
 -- Occupied --
-18.930 -18.928 -18.893 -18.885 -18.880 -18.872 -18.866 -10.095
-10.092 -10.062 -10.060 -10.060 -10.060 -10.056 -10.049 -10.048
-10.042 -10.031 -10.030 -10.014 -10.012  -1.008  -1.002  -0.968
 -0.949  -0.942  -0.930  -0.928  -0.759  -0.728  -0.718  -0.670
 -0.668  -0.654  -0.634  -0.607  -0.600  -0.584  -0.534  -0.506
 -0.479  -0.465  -0.452  -0.438  -0.437  -0.420  -0.417  -0.413
 -0.407  -0.405  -0.403  -0.400  -0.397  -0.386  -0.373  -0.371
 -0.360  -0.351  -0.350  -0.343  -0.340  -0.331  -0.313  -0.302
 -0.290  -0.288  -0.279  -0.272  -0.266  -0.252  -0.246  -0.235
 -0.227  -0.223  -0.174  -0.171  -0.152  -0.146  -0.143  -0.140
 -0.135
 -- Virtual --
  0.103   0.106   0.212   0.245   0.251   0.265   0.297   0.303
  0.309   0.318   0.338   0.342   0.350   0.354   0.362   0.375
  0.384   0.392   0.401   0.408   0.417   0.418   0.420   0.425
  0.427   0.430   0.430   0.433   0.435   0.437   0.438   0.440
  0.450   0.452   0.459   0.467   0.469   0.472   0.476   0.486
  0.496   0.513   0.548   0.553   0.647   0.663
 --------------------------------------------------------------
 
          Ground-State Mulliken Net Atomic Charges

     Atom                 Charge (a.u.)
  ----------------------------------------
      1 C                    -0.077273
      2 C                    -0.077157
      3 C                     0.206316
      4 C                     0.212883
      5 O                    -0.163818
      6 O                    -0.216150
      7 O                    -0.172107
      8 O                    -0.209351
      9 C                    -0.129211
     10 C                    -0.128252
     11 C                     0.100500
     12 C                    -0.144482
     13 C                    -0.143281
     14 C                     0.100654
     15 O                    -0.195214
     16 H                     0.092555
     17 H                     0.089521
     18 H                     0.088301
     19 H                     0.086179
     20 H                     0.075438
     21 H                     0.076796
     22 H                     0.075193
     23 H                     0.077517
     24 H                     0.088800
     25 H                     0.088702
     26 H                     0.087491
     27 H                     0.089350
     28 C                    -0.053125
     29 C                    -0.054485
     30 O                    -0.190088
     31 H                     0.069260
     32 H                     0.091797
     33 C                    -0.128173
     34 H                     0.080684
     35 H                     0.068345
     36 H                     0.075371
     37 O                    -0.186718
     38 H                     0.079320
     39 H                     0.071943
     40 C                    -0.127982
     41 H                     0.083534
     42 H                     0.070333
     43 H                     0.070087
  ----------------------------------------
  Sum of atomic charges =     0.000000

 -----------------------------------------------------------------
                    Cartesian Multipole Moments
 -----------------------------------------------------------------
    Charge (ESU x 10^10)
                 0.0000
    Dipole Moment (Debye)
         X      -0.7650      Y       0.3117      Z      -0.3722
       Tot       0.9060
    Quadrupole Moments (Debye-Ang)
        XX    -104.4163     XY      -0.4860     YY    -103.3185
        XZ      -2.7184     YZ      -1.6097     ZZ    -118.6884
    Octopole Moments (Debye-Ang^2)
       XXX     -12.2940    XXY       5.9634    XYY      -2.7025
       YYY      50.3212    XXZ      27.3245    XYZ      -6.3234
       YYZ       5.7143    XZZ       0.3801    YZZ      -1.4839
       ZZZ       3.6542
    Hexadecapole Moments (Debye-Ang^3)
      XXXX   -3877.8850   XXXY      55.3606   XXYY   -1070.8653
      XYYY      70.5020   YYYY   -2440.4704   XXXZ     -23.1449
      XXYZ     -45.0669   XYYZ      -7.7684   YYYZ     -26.4301
      XXZZ    -788.4712   XYZZ      18.1191   YYZZ    -540.5742
      XZZZ      -2.9861   YZZZ       0.2136   ZZZZ    -509.0691
 -----------------------------------------------------------------
 Calculating analytic gradient of the SCF energy
 Gradient of SCF Energy
            1           2           3           4           5           6
    1  -0.0003369  -0.0017222   0.0023502  -0.0003326  -0.0013205  -0.0005463
    2  -0.0021508   0.0022058   0.0011347   0.0009350  -0.0010049  -0.0002038
    3   0.0019494  -0.0004412  -0.0020720  -0.0032599  -0.0017581   0.0032379
            7           8           9          10          11          12
    1  -0.0006928   0.0008043   0.0007055   0.0006351  -0.0000154   0.0010979
    2  -0.0012169   0.0027451   0.0003343   0.0002328   0.0012953  -0.0002930
    3  -0.0006016   0.0022934   0.0004712   0.0006994  -0.0019031   0.0003785
           13          14          15          16          17          18
    1   0.0006344   0.0013932   0.0000509   0.0001501  -0.0018510   0.0002780
    2  -0.0004797  -0.0007643  -0.0007078   0.0010610  -0.0015866   0.0000899
    3  -0.0002378  -0.0008964   0.0018625  -0.0004681  -0.0005260  -0.0000241
           19          20          21          22          23          24
    1   0.0001669  -0.0006398   0.0002354  -0.0004464   0.0002755   0.0000837
    2   0.0002305  -0.0000962   0.0004726  -0.0002754  -0.0004786   0.0004135
    3   0.0000695  -0.0004351  -0.0002603   0.0004390  -0.0001203  -0.0000015
           25          26          27          28          29          30
    1  -0.0000712  -0.0002065  -0.0001830  -0.0004434   0.0000770   0.0002689
    2   0.0002892   0.0000890   0.0002755  -0.0004757  -0.0007053   0.0000575
    3   0.0002293   0.0002615  -0.0000890   0.0012729   0.0028583  -0.0016996
           31          32          33          34          35          36
    1  -0.0000195  -0.0005639   0.0004526   0.0004788  -0.0000212  -0.0001512
    2  -0.0005599  -0.0009943   0.0001868   0.0001473  -0.0001302   0.0000514
    3  -0.0002938  -0.0002602   0.0005444  -0.0000563  -0.0000243  -0.0000239
           37          38          39          40          41          42
    1  -0.0004047   0.0001110   0.0004081  -0.0003342  -0.0003709   0.0000373
    2  -0.0001071  -0.0002974  -0.0001516   0.0003472   0.0001328   0.0000231
    3  -0.0023228   0.0004751  -0.0000194   0.0007356  -0.0001025   0.0000786
           43
    1  -0.0000212
    2  -0.0000706
    3   0.0000408
 Max gradient component =       3.260E-03
 RMS gradient           =       9.709E-04
 Gradient time:  CPU 26.20 s  wall 1.10 s
 Geometry Optimization Parameters
   NAtoms,    NIC,     NZ,  NCons,   NDum,   NFix, NCnnct, MaxDiis
       43     325       0       2       0       0       0       0

 Cartesian Hessian Update
 Hessian Updated using BFGS Update


** CONSTRAINED OPTIMIZATION IN DELOCALIZED INTERNAL COORDINATES **
   Searching for a Minimum

   Optimization Cycle:   4

                       Coordinates (Angstroms)
     ATOM                X               Y               Z
      1  C        -0.7330604348    0.0479902851   -0.6868130948
      2  C         0.8474499698   -0.0826918744   -0.7602457517
      3  C        -1.1915614461    1.2587161774    0.1955525177
      4  C         1.5712914045    1.1777842128   -0.1594554518
      5  O        -1.9849624215    2.1299399931   -0.6219464158
      6  O        -0.9521920611    1.4666929143    1.4071866204
      7  O         1.2923667027    2.2711607403   -1.0477442445
      8  O         2.2332163756    1.3057250674    0.8939370661
      9  C         1.8906510484    3.5165907907   -0.5101500833
     10  C        -2.3990783491    3.3136429088    0.1692908570
     11  C        -1.1103642377   -1.3561595291   -0.0450540933
     12  C        -0.8123508019   -2.4654296401   -1.1425313093
     13  C         0.7455234924   -2.6256866492   -1.0152443842
     14  C         1.0890182976   -1.4682236197    0.0076503880
     15  O        -0.0421505932   -1.5509719085    0.9692323040
     16  H        -1.1761437721    0.1807122204   -1.6893432819
     17  H         1.1544581478   -0.1846216588   -1.8166936491
     18  H         2.9958522490    3.4448186484   -0.4450447991
     19  H        -1.5219897971    3.8953533632    0.5204784758
     20  H        -1.3465158590   -3.4002089508   -0.9087435453
     21  H        -1.1229216505   -2.1260456022   -2.1436113373
     22  H         1.0062715338   -3.5992381645   -0.5688771915
     23  H         1.2796806271   -2.5190759590   -1.9726787593
     24  H         1.6143073363    4.3202571284   -1.2177469551
     25  H         1.4943820076    3.7561813115    0.4982650727
     26  H        -3.0053051684    3.0253904819    1.0526949130
     27  H        -3.0087335058    3.9384299458   -0.5096229225
     28  C        -2.5150045947   -1.4260973917    0.6349075526
     29  C         2.4494875136   -1.6121970328    0.7597944849
     30  O         3.5109336915   -1.3103079382   -0.2243733066
     31  H         2.5437943961   -2.6475342846    1.1638893861
     32  H         2.4589911245   -0.8927437328    1.6075758703
     33  C         4.7724342461   -1.2167624738    0.5269394856
     34  H         5.5643380892   -0.9795222754   -0.2092366636
     35  H         5.0347168301   -2.1706436618    1.0363731749
     36  H         4.7422895113   -0.4109868465    1.2931866293
     37  O        -3.5060179555   -0.9936306882   -0.3725789620
     38  H        -2.5144500759   -0.7618050464    1.5300095603
     39  H        -2.7053198337   -2.4676279832    0.9841410736
     40  C        -4.8058819603   -0.9226757639    0.3141999547
     41  H        -5.5433755035   -0.5825713900   -0.4377881410
     42  H        -4.7964380566   -0.1987023641    1.1589040940
     43  H        -5.1307332899   -1.9101258771    0.7110088052
   Point Group: c1    Number of degrees of freedom:   123


   Energy is  -1059.454252265

              Constraints and their Current Values
                                        Value     Constraint
   Dihedral:        1   2   4   8      109.600      109.600
   Dihedral:        2   1   3   6      -59.700      -59.700
 Hessian Updated using BFGS Update

[...]
 O          0.000  0.000 -0.000   -0.001 -0.001  0.000   -0.000 -0.000  0.000
 C          0.000  0.000  0.000   -0.000 -0.000  0.000    0.000 -0.000 -0.000
 C          0.000  0.000  0.000   -0.000  0.000 -0.000    0.000  0.000  0.000
 C          0.001  0.000  0.001    0.000  0.000  0.000    0.001  0.000 -0.000
 C          0.022 -0.044 -0.004   -0.001 -0.001  0.002    0.013  0.012 -0.028
 C         -0.035 -0.020 -0.029   -0.001  0.003 -0.005   -0.014 -0.041  0.040
 C         -0.001  0.001  0.001   -0.001 -0.001 -0.000   -0.001 -0.001  0.000
 O          0.000  0.000  0.000    0.000  0.000  0.000    0.000 -0.000  0.000
 H          0.004 -0.001 -0.014   -0.002  0.001  0.006    0.055 -0.025 -0.191
 H         -0.027  0.012 -0.072   -0.015  0.006 -0.039    0.227 -0.107  0.617
 H          0.005 -0.001 -0.001    0.001 -0.000 -0.000   -0.004  0.001  0.001
 H          0.002 -0.004 -0.002    0.000 -0.000 -0.000    0.001 -0.001 -0.000
 H         -0.068  0.547 -0.244   -0.002  0.013 -0.005    0.017 -0.122  0.049
 H         -0.174 -0.031  0.292    0.012  0.001 -0.019   -0.173 -0.019  0.287
 H          0.288  0.402 -0.121   -0.011 -0.013  0.004    0.258  0.352 -0.091
 H          0.109 -0.171  0.453    0.015 -0.020  0.055   -0.101  0.134 -0.382
 H         -0.001 -0.003  0.002    0.000  0.001 -0.001    0.001  0.002 -0.002
 H         -0.004  0.000 -0.005    0.000  0.000  0.000    0.002  0.000  0.004
 H         -0.003  0.002 -0.003    0.000 -0.000  0.000   -0.002  0.001 -0.002
 H         -0.001 -0.001  0.002    0.000  0.000 -0.000   -0.000 -0.000  0.001
 C          0.000 -0.004 -0.001   -0.000 -0.000 -0.000    0.000  0.001  0.000
 C         -0.001  0.000  0.002   -0.003 -0.060 -0.063   -0.001 -0.005 -0.004
 O          0.000  0.000  0.000   -0.000  0.000 -0.000   -0.000 -0.000  0.000
 H          0.006  0.013 -0.004    0.057  0.173 -0.049    0.011  0.028 -0.008
 H          0.001 -0.016 -0.024    0.007  0.552  0.802    0.000  0.039  0.056
 C         -0.000 -0.001  0.000    0.002  0.003  0.002    0.000  0.000  0.000
 H         -0.001  0.001 -0.002   -0.009  0.008 -0.009   -0.001  0.001 -0.001
 H          0.002  0.004 -0.002   -0.012 -0.027  0.010   -0.001 -0.002  0.001
 H          0.000  0.002  0.003   -0.009 -0.014 -0.020   -0.001 -0.000 -0.001
 O         -0.000  0.000  0.000    0.000 -0.000  0.000   -0.000  0.000  0.000
 H          0.000  0.021  0.025    0.000  0.002  0.002   -0.001 -0.003 -0.003
 H         -0.001  0.031 -0.012   -0.000  0.001 -0.000    0.000 -0.006  0.002
 C         -0.000 -0.000  0.000   -0.000 -0.000 -0.000   -0.000 -0.000  0.000
 H          0.001  0.000 -0.001    0.000  0.000 -0.000    0.001  0.000 -0.001
 H          0.000  0.001  0.001    0.000  0.000  0.000    0.000  0.000  0.000
 H         -0.001  0.003 -0.001   -0.000  0.000 -0.000   -0.000  0.001 -0.000
 TransDip  -0.030 -0.175 -0.070   -0.002 -0.041 -0.074   -0.034 -0.030 -0.009

 Mode:               115                    116                    117
 Frequency:      3106.41                3113.63                3114.87
 Force Cnst:      6.2223                 6.2700                 6.2733
 Red. Mass:       1.0944                 1.0977                 1.0974
 IR Active:          YES                    YES                    YES
 IR Intens:        4.255                 27.574                 21.369
 Raman Active:       YES                    YES                    YES
               X      Y      Z        X      Y      Z        X      Y      Z
 C         -0.002  0.001  0.009    0.000 -0.000 -0.000   -0.000 -0.000  0.000
 C         -0.020  0.010 -0.054   -0.000  0.000 -0.000    0.000  0.000  0.000
 C          0.000  0.000  0.000    0.000  0.000 -0.000   -0.000 -0.000  0.000
 C          0.000  0.000 -0.001    0.000  0.000 -0.000   -0.000 -0.000  0.000
 O         -0.000 -0.000 -0.000   -0.000 -0.000  0.000    0.000  0.000 -0.000
 O         -0.000 -0.000 -0.000   -0.000 -0.000 -0.000   -0.000  0.000 -0.000
 O         -0.000  0.000  0.000   -0.000 -0.000  0.000    0.000  0.000 -0.000
 O         -0.000 -0.000  0.000   -0.000 -0.000  0.000    0.000  0.000 -0.000
 C          0.000 -0.000 -0.000    0.000 -0.000  0.000    0.000 -0.000  0.000
 C          0.001 -0.000  0.000    0.000 -0.000  0.000    0.009 -0.009  0.002
 C          0.000 -0.001  0.000    0.000 -0.000 -0.000    0.000 -0.000 -0.000
 C         -0.016 -0.018  0.038   -0.000 -0.001  0.001    0.000  0.001 -0.001
 C          0.005  0.030 -0.038   -0.000 -0.000  0.000    0.000  0.001 -0.001
 C         -0.000  0.000 -0.001    0.000 -0.000  0.000    0.000  0.000  0.000
 O          0.000 -0.000  0.000   -0.000  0.000  0.000   -0.000  0.000 -0.000
 H          0.030 -0.013 -0.108   -0.000  0.000  0.001    0.000 -0.000 -0.001
 H          0.237 -0.115  0.646    0.001 -0.000  0.002   -0.000  0.000 -0.001
 H         -0.006  0.001  0.002   -0.003  0.001  0.001   -0.004  0.001  0.001
 H         -0.002  0.003  0.002   -0.001  0.002  0.001   -0.050  0.072  0.042
 H         -0.027  0.195 -0.080   -0.001  0.007 -0.003    0.001 -0.007  0.003
 H          0.224  0.024 -0.371    0.005  0.001 -0.008   -0.005 -0.000  0.008
 H         -0.162 -0.220  0.056    0.003  0.004 -0.001   -0.004 -0.006  0.001
 H          0.101 -0.136  0.390   -0.001  0.001 -0.002    0.001 -0.002  0.006
 H          0.001  0.002 -0.002    0.000  0.000 -0.000   -0.000 -0.001  0.001
 H          0.001  0.000  0.002   -0.002  0.000 -0.004   -0.001  0.000 -0.002
 H         -0.004  0.002 -0.004   -0.002  0.001 -0.002   -0.058  0.036 -0.064
 H         -0.000 -0.000  0.001    0.000 -0.000 -0.000    0.001 -0.002  0.002
 C         -0.000 -0.001  0.000    0.000 -0.000 -0.000    0.001  0.001 -0.000
 C          0.000  0.002  0.000    0.001 -0.001 -0.000    0.000  0.000  0.000
 O         -0.000 -0.000  0.000   -0.000  0.000 -0.000   -0.000  0.000 -0.000
 H         -0.004 -0.011  0.004    0.002  0.003 -0.001   -0.000 -0.000  0.000
 H         -0.000 -0.008 -0.009    0.002  0.008  0.012   -0.000 -0.000 -0.000
 C          0.000 -0.000  0.000   -0.039  0.030 -0.076    0.001 -0.001  0.001
 H         -0.003  0.002 -0.004    0.524 -0.371  0.716   -0.011  0.007 -0.014
 H         -0.001 -0.002  0.001   -0.070 -0.131  0.033    0.001  0.002 -0.001
 H         -0.000  0.001  0.001    0.012  0.149  0.146   -0.000 -0.003 -0.003
 O         -0.000 -0.000 -0.000   -0.000  0.000 -0.000   -0.000 -0.000 -0.000
 H          0.001  0.003  0.003    0.000  0.000  0.000    0.002 -0.005 -0.006
 H         -0.000  0.008 -0.003    0.000  0.000 -0.000    0.001 -0.002  0.001
 C          0.000  0.000  0.000   -0.001 -0.000  0.001   -0.055 -0.014  0.069
 H         -0.000  0.000  0.000    0.014  0.003 -0.013    0.686  0.153 -0.647
 H         -0.000 -0.001 -0.001   -0.000 -0.003 -0.003   -0.013 -0.141 -0.120
 H         -0.000  0.001 -0.001   -0.001  0.003 -0.001   -0.026  0.151 -0.052
 TransDip  -0.044  0.046 -0.016   -0.112  0.051 -0.115   -0.105 -0.029  0.101

 Mode:               118                    119                    120
 Frequency:      3116.56                3118.20                3123.54
 Force Cnst:      6.3317                 6.3136                 6.3645
 Red. Mass:       1.1064                 1.1021                 1.1072
 IR Active:          YES                    YES                    YES
 IR Intens:       25.519                 21.601                 15.847
 Raman Active:       YES                    YES                    YES
               X      Y      Z        X      Y      Z        X      Y      Z
 C          0.000 -0.000  0.000   -0.010  0.005  0.036   -0.000  0.000  0.000
 C          0.000 -0.000  0.000    0.000  0.000 -0.000   -0.000  0.000 -0.000
 C         -0.000  0.000 -0.000   -0.001 -0.000  0.001   -0.000 -0.000 -0.000
 C         -0.000 -0.000  0.000    0.000 -0.000 -0.000    0.000 -0.000  0.000
 O         -0.000  0.000 -0.000    0.000  0.000 -0.000    0.000  0.000  0.000
 O         -0.000  0.000 -0.000    0.000  0.000 -0.000   -0.000  0.000  0.000
 O          0.000  0.000 -0.000   -0.000  0.000  0.000    0.000  0.000  0.000
 O          0.000  0.000 -0.000   -0.000  0.000  0.000    0.000 -0.000 -0.000
 C          0.004 -0.000  0.001   -0.000 -0.000 -0.000   -0.087  0.015 -0.035
 C          0.066 -0.065  0.014   -0.000  0.001 -0.000    0.003 -0.003  0.001
 C         -0.000 -0.000 -0.000    0.001  0.001 -0.001   -0.000 -0.000  0.000
 C          0.000  0.000 -0.001    0.021  0.032 -0.054   -0.000 -0.000  0.000
 C          0.000  0.000 -0.000    0.008  0.034 -0.039   -0.000 -0.000  0.000
 C          0.000 -0.000  0.000   -0.000  0.001 -0.001   -0.000 -0.000 -0.000
 O         -0.000  0.000 -0.000    0.000 -0.000  0.000    0.000  0.000 -0.000
 H          0.001 -0.001 -0.004    0.119 -0.057 -0.421    0.001 -0.000 -0.002
 H         -0.002  0.001 -0.006    0.001 -0.003  0.006    0.000 -0.000  0.001
 H         -0.031  0.006  0.008    0.002 -0.000 -0.000    0.684 -0.131 -0.176
 H         -0.360  0.513  0.299    0.004 -0.006 -0.004   -0.014  0.020  0.012
 H          0.000 -0.003  0.001    0.052 -0.357  0.148   -0.000  0.003 -0.001
 H         -0.004 -0.000  0.006   -0.302 -0.031  0.493    0.002  0.000 -0.004
 H         -0.001 -0.001  0.000   -0.203 -0.273  0.070    0.001  0.001 -0.000
 H          0.000 -0.000  0.000    0.106 -0.139  0.396   -0.000  0.000 -0.001
 H         -0.001 -0.003  0.003    0.000  0.000 -0.000   -0.025 -0.013  0.009
 H         -0.013  0.001 -0.020    0.002 -0.000  0.003    0.371 -0.034  0.578
 H         -0.435  0.267 -0.476    0.003 -0.002  0.003   -0.019  0.012 -0.020
 H          0.010 -0.015  0.008   -0.001 -0.000  0.001    0.003  0.001 -0.004
 C         -0.000  0.000  0.000   -0.000  0.002 -0.000   -0.000 -0.000 -0.000
 C         -0.000 -0.000 -0.000    0.000  0.001  0.000   -0.000  0.000  0.000
 O         -0.000  0.000 -0.000   -0.000 -0.000  0.000    0.000 -0.000  0.000
 H          0.000  0.000 -0.000   -0.006 -0.014  0.005   -0.000 -0.000  0.000
 H         -0.000  0.000  0.000    0.000 -0.005 -0.006    0.000 -0.000 -0.000
 C          0.000 -0.000  0.000   -0.000  0.000 -0.001   -0.000  0.000 -0.000
 H         -0.001  0.001 -0.001    0.007 -0.005  0.009    0.003 -0.002  0.004
 H          0.000  0.000 -0.000   -0.001 -0.002  0.001   -0.001 -0.001  0.000
 H         -0.000 -0.000 -0.000    0.000  0.002  0.002    0.000  0.000 -0.000
 O          0.000 -0.000  0.000    0.000 -0.000  0.000   -0.000  0.000 -0.000
 H         -0.000 -0.000 -0.000   -0.001 -0.004 -0.005    0.000  0.000  0.000
 H         -0.000 -0.001  0.000    0.001 -0.016  0.006   -0.000  0.001 -0.000
 C          0.008  0.002 -0.009    0.001  0.000 -0.001    0.000 -0.000 -0.000
 H         -0.095 -0.021  0.090   -0.009 -0.002  0.008   -0.001 -0.000  0.000
 H          0.002  0.017  0.014    0.000  0.002  0.002    0.000  0.000  0.000
 H          0.004 -0.023  0.008    0.001 -0.002  0.001   -0.000  0.000 -0.000
 TransDip   0.128 -0.099  0.008    0.030  0.112 -0.093   -0.117  0.036 -0.036

 Mode:               121                    122                    123
 Frequency:      3131.01                3152.76                3153.87
 Force Cnst:      6.2895                 6.4797                 6.4802
 Red. Mass:       1.0889                 1.1064                 1.1057
 IR Active:          YES                    YES                    YES
 IR Intens:       14.608                 13.441                 15.400
 Raman Active:       YES                    YES                    YES
               X      Y      Z        X      Y      Z        X      Y      Z
 C          0.020 -0.009 -0.070   -0.000  0.000  0.000    0.000 -0.000 -0.000
 C         -0.007  0.003 -0.019    0.000  0.000 -0.000   -0.000  0.000 -0.000
 C          0.001  0.001 -0.002   -0.000 -0.000  0.000   -0.000 -0.001 -0.001
 C         -0.000  0.000 -0.000   -0.000  0.001  0.001   -0.000 -0.000 -0.000
 O         -0.000 -0.000  0.000    0.000  0.000 -0.000   -0.000 -0.000  0.000
 O         -0.000  0.000  0.001    0.000 -0.000 -0.000    0.000  0.000  0.000
 O          0.000 -0.000  0.000    0.000  0.000 -0.000    0.000 -0.000  0.000
 O         -0.000 -0.000  0.000    0.000 -0.000 -0.000    0.000  0.000  0.000
 C         -0.000 -0.000  0.000   -0.038 -0.046  0.074    0.000  0.001 -0.001
 C         -0.000 -0.000  0.000    0.001 -0.000 -0.001    0.033  0.015 -0.087
 C          0.001  0.000 -0.001   -0.000  0.000  0.000   -0.000 -0.000 -0.000
 C          0.012  0.014 -0.029   -0.000 -0.000  0.000    0.000  0.000 -0.000
 C          0.002  0.012 -0.015    0.000 -0.000  0.000   -0.000  0.000 -0.000
 C         -0.001  0.000 -0.000   -0.000  0.000  0.000   -0.000 -0.000 -0.000
 O         -0.000 -0.000  0.001    0.000 -0.000 -0.000    0.000  0.000  0.000
 H         -0.236  0.108  0.826    0.001 -0.000 -0.002   -0.000  0.001  0.002
 H          0.085 -0.040  0.228   -0.000 -0.000 -0.000    0.000 -0.000  0.001
 H          0.003 -0.001 -0.001    0.309 -0.069 -0.059   -0.001  0.000  0.000
 H         -0.002  0.004  0.002   -0.005  0.008  0.004   -0.154  0.226  0.105
 H          0.023 -0.159  0.068   -0.000  0.000 -0.000    0.000  0.000  0.000
 H         -0.170 -0.017  0.281    0.001  0.000 -0.001   -0.000 -0.000  0.001
 H         -0.067 -0.090  0.023    0.000  0.000 -0.000    0.000  0.000 -0.000
 H          0.043 -0.056  0.160   -0.000  0.000 -0.000    0.000 -0.000  0.000
 H          0.001  0.002 -0.002    0.320  0.603 -0.571   -0.005 -0.010  0.009
 H          0.001  0.000  0.002   -0.184  0.009 -0.246    0.005 -0.000  0.007
 H          0.002 -0.001  0.002    0.001 -0.000  0.000    0.201 -0.121  0.187
 H          0.002  0.001 -0.004   -0.006 -0.004  0.011   -0.433 -0.275  0.743
 C          0.000 -0.000 -0.000   -0.000  0.000  0.000    0.000 -0.000 -0.000
 C          0.000  0.000 -0.000    0.000  0.000  0.000   -0.000 -0.000 -0.000
 O         -0.000 -0.000  0.000   -0.000 -0.000 -0.000    0.000 -0.000  0.000
 H         -0.001 -0.003  0.001   -0.000 -0.001  0.000    0.000  0.000 -0.000
 H         -0.000  0.002  0.003    0.000 -0.001 -0.001   -0.000  0.000  0.000
 C         -0.000  0.000 -0.000    0.000  0.000  0.000   -0.000  0.000 -0.000
 H          0.002 -0.001  0.003   -0.001  0.000 -0.001    0.000 -0.000  0.000
 H         -0.001 -0.001  0.000   -0.000 -0.000  0.000    0.000  0.000 -0.000
 H         -0.000  0.001  0.001   -0.000 -0.000 -0.001    0.000  0.000  0.000
 O          0.000 -0.000  0.000    0.000  0.000 -0.000   -0.000  0.000  0.000
 H          0.000  0.002  0.004   -0.000 -0.000 -0.000    0.000  0.000  0.001
 H         -0.000 -0.003  0.001    0.000  0.000 -0.000   -0.000  0.001 -0.000
 C          0.000  0.000 -0.000   -0.000 -0.000  0.000    0.000 -0.000 -0.000
 H         -0.004 -0.001  0.003    0.001  0.000 -0.000   -0.002 -0.000  0.001
 H          0.000  0.002  0.002   -0.000  0.000  0.000    0.000  0.001  0.001
 H          0.001 -0.002  0.001   -0.000  0.000 -0.000   -0.000  0.000 -0.000
 TransDip   0.033  0.027 -0.115   -0.048 -0.074  0.078    0.059  0.036 -0.105

 STANDARD THERMODYNAMIC QUANTITIES AT   298.15 K  AND     1.00 ATM

   This Molecule has  0 Imaginary Frequencies
   Zero point vibrational energy:      225.116 kcal/mol

   Atom    1 Element C  Has Mass   12.00000
   Atom    2 Element C  Has Mass   12.00000
   Atom    3 Element C  Has Mass   12.00000
   Atom    4 Element C  Has Mass   12.00000
   Atom    5 Element O  Has Mass   15.99491
   Atom    6 Element O  Has Mass   15.99491
   Atom    7 Element O  Has Mass   15.99491
   Atom    8 Element O  Has Mass   15.99491
   Atom    9 Element C  Has Mass   12.00000
   Atom   10 Element C  Has Mass   12.00000
   Atom   11 Element C  Has Mass   12.00000
   Atom   12 Element C  Has Mass   12.00000
   Atom   13 Element C  Has Mass   12.00000
   Atom   14 Element C  Has Mass   12.00000
   Atom   15 Element O  Has Mass   15.99491
   Atom   16 Element H  Has Mass    1.00783
   Atom   17 Element H  Has Mass    1.00783
   Atom   18 Element H  Has Mass    1.00783
   Atom   19 Element H  Has Mass    1.00783
   Atom   20 Element H  Has Mass    1.00783
   Atom   21 Element H  Has Mass    1.00783
   Atom   22 Element H  Has Mass    1.00783
   Atom   23 Element H  Has Mass    1.00783
   Atom   24 Element H  Has Mass    1.00783
   Atom   25 Element H  Has Mass    1.00783
   Atom   26 Element H  Has Mass    1.00783
   Atom   27 Element H  Has Mass    1.00783
   Atom   28 Element C  Has Mass   12.00000
   Atom   29 Element C  Has Mass   12.00000
   Atom   30 Element O  Has Mass   15.99491
   Atom   31 Element H  Has Mass    1.00783
   Atom   32 Element H  Has Mass    1.00783
   Atom   33 Element C  Has Mass   12.00000
   Atom   34 Element H  Has Mass    1.00783
   Atom   35 Element H  Has Mass    1.00783
   Atom   36 Element H  Has Mass    1.00783
   Atom   37 Element O  Has Mass   15.99491
   Atom   38 Element H  Has Mass    1.00783
   Atom   39 Element H  Has Mass    1.00783
   Atom   40 Element C  Has Mass   12.00000
   Atom   41 Element H  Has Mass    1.00783
   Atom   42 Element H  Has Mass    1.00783
   Atom   43 Element H  Has Mass    1.00783
   Molecular Mass:   302.136630 amu
   Principal axes and moments of inertia in amu*Bohr^2:
                             1           2           3
    Eigenvalues --     4081.36448  6657.28559  9487.62112
          X               0.99999     0.00428     0.00258
          Y              -0.00428     0.99999     0.00018
          Z              -0.00258    -0.00019     1.00000
   Rotational Symmetry Number is   1
   The Molecule is an Asymmetric Top
   Translational Enthalpy:        0.889 kcal/mol
   Rotational Enthalpy:           0.889 kcal/mol
   Vibrational Enthalpy:        237.415 kcal/mol
   gas constant (RT):             0.592 kcal/mol
   Translational Entropy:        43.014  cal/mol.K
   Rotational Entropy:           33.910  cal/mol.K
   Vibrational Entropy:          82.505  cal/mol.K

   Total Enthalpy:              239.785 kcal/mol
   Total Entropy:               159.429  cal/mol.K
Archival summary:
1\1\nid03294\FREQ\ProcedureUnspecified\BasisUnspecified\71422\junteng\ThuOct1904:37:542017ThuOct1904:37:542017\0\\#,FREQ,ProcedureUnspecified,BasisUnspecified,\\0,1\O\C,1,1.43422\C,1,1.43618,2,98.1903\C,2,1.51458,1,109.07,3,-177.755,0\H,4,1.0955,2,109.15,1,49.0407,0\H,4,1.09907,2,109.726,1,-69.9643,0\O,4,1.41912,2,107.488,1,169.422,0\C,7,1.41552,4,112.957,2,-172.408,0\H,8,1.09027,7,107.145,4,179.822,0\H,8,1.09833,7,111.043,4,60.4522,0\H,8,1.09872,7,111.434,4,-60.9789,0\C,3,1.51607,1,110.247,2,-176.049,0\H,12,1.09213,3,109.97,1,-49.7411,0\H,12,1.09973,3,109.219,1,69.9314,0\O,12,1.42096,3,107.031,1,-170.358,0\C,15,1.41535,12,112.758,3,171.64,0\H,16,1.09042,15,107.174,12,-179.642,0\H,16,1.09771,15,111.005,12,-60.3095,0\H,16,1.09915,15,111.41,12,61.2139,0\C,2,1.54296,1,102.026,3,57.5776,0\H,20,1.09013,2,112.809,1,-160.478,0\H,20,1.09175,2,109.394,1,78.9536,0\C,3,1.5519,1,101.801,2,58.4092,0\H,23,1.08972,3,111.481,1,-156.554,0\C,23,1.521,3,115.648,1,81.8968,0\O,25,1.20254,23,128.23,3,-4.39888,0\O,25,1.35554,23,108.75,3,175.323,0\C,27,1.43893,25,115.85,23,173.836,0\H,28,1.0881,27,105.463,25,179.358,0\H,28,1.09075,27,110.659,25,59.7763,0\H,28,1.09141,27,109.863,25,-61.1907,0\C,20,1.55395,2,100.745,1,-38.4285,0\H,32,1.09077,20,113.638,2,-114.897,0\H,32,1.09088,20,111.791,2,122.966,0\C,2,1.57452,1,103.889,3,-52.8261,0\H,35,1.08703,2,110.111,1,142.658,0\C,35,1.51215,2,114.138,1,-97.1889,0\O,37,1.20872,35,125.731,2,50.52,0\O,37,1.34753,35,110.934,2,-129.511,0\C,39,1.43691,37,115.84,35,179.88,0\H,40,1.08786,39,105.491,37,179.685,0\H,40,1.09129,39,110.497,37,-60.808,0\H,40,1.09146,39,110.544,37,60.1148,0\\\@

 Total job time:  28215.08s(wall), 197128.09s(cpu) 
 Thu Oct 19 04:37:54 2017

        *************************************************************
        *                                                           *
        *  Thank you very much for using Q-Chem.  Have a nice day.  *
        *                                                           *
        *************************************************************


