nid05661 10.128.22
Q-Chem Developer Version! Running on 10.128.22.*
                  Welcome to Q-Chem
     A Quantum Leap Into The Future Of Chemistry


 Q-Chem 5.0, Q-Chem, Inc., Pleasanton, CA (2017)

 Yihan Shao,  Zhengting Gan,  E. Epifanovsky,  A. T. B. Gilbert,  M. Wormit,  
 J. Kussmann,  A. W. Lange,  A. Behn,  Jia Deng,  Xintian Feng,  D. Ghosh,  
 M. Goldey,  P. R. Horn,  L. D. Jacobson,  I. Kaliman,  T. Kus,  A. Landau,  
 Jie Liu,  E. I. Proynov,  R. M. Richard,  R. P. Steele,  E. J. Sundstrom,  
 H. L. Woodcock III,  P. M. Zimmerman,  D. Zuev,  B. Albrecht,  E. Alguire,  
 S. A. Baeppler,  Z. Benda,  Y. A. Bernard,  E. J. Berquist,  K. B. Bravaya,  
 D. Casanova,  Chun-Min Chang,  Yunqing Chen,  A. Chien,  K. D. Closser,  
 M. P. Coons,  S. Dasgupta,  M. Diedenhofen,  Hainam Do,  R. G. Edgar,  
 Po-Tung Fang,  S. Fatehi,  Qingguo Feng,  Qinghui Ge,  A. Ghysels,  
 J. Gomes,  J. Gonthier,  A. Gunina,  M. W. D. Hanson-Heine,  
 P. H. P. Harbach,  A. W. Hauser,  J. E. Herr,  E. G. Hohenstein,  
 Z. C. Holden,  Kerwin Hui,  T.-C. Jagau,  Hyunjun Ji,  B. Kaduk,  
 K. Khistyaev,  Jaehoon Kim,  P. Klunzinger,  K. Koh,  D. Kosenkov,  
 T. Kowalczyk,  C. M. Krauter,  A. Kunitsa,  Ka Un Lao,  A. Laurent,  
 K. V. Lawler,  Joonho Lee,  D. Lefrancois,  S. Lehtola,  D. S. Levine,  
 Yi-Pei Li,  You-Sheng Lin,  Fenglai Liu,  E. Livshits,  A. Luenser,  
 P. Manohar,  E. Mansoor,  S. F. Manzer,  Shan-Ping Mao,  Yuezhi Mao,  
 N. Mardirossian,  A. V. Marenich,  L. A. Martinez-Martinez,  S. A. Maurer,  
 N. J. Mayhall,  S. C. McKenzie,  J.-M. Mewes,  A. F. Morrison,  K. Nanda,  
 T. S. Nguyen-Beck,  R. Olivares-Amaya,  J. A. Parkhill,  T. M. Perrine,  
 F. Plasser,  S. Prager,  A. Prociuk,  D. R. Rehn,  F. Rob,  M. Schneider,  
 N. Sergueev,  S. M. Sharada,  S. Sharma,  D. W. Small,  T. Stauch,  
 T. Stein,  Yu-Chuan Su,  A. J. W. Thom,  T. Tsuchimochi,  L. Vogt,  
 O. Vydrov,  M. A. Watson,  J. Wenzel,  M. de Wergifosse,  T. A. Wesolowski,  
 A. White,  J. Witte,  A. Yamada,  Jun Yang,  K. Yao,  S. Yeganeh,  
 S. R. Yost,  Zhi-Qiang You,  A. Zech,  Igor Ying Zhang,  Xing Zhang,  
 Yan Zhao,  Ying Zhu,  B. R. Brooks,  G. K. L. Chan,  C. J. Cramer,  
 M. S. Gordon,  W. J. Hehre,  A. Klamt,  M. W. Schmidt,  C. D. Sherrill,  
 D. G. Truhlar,  A. Aspuru-Guzik,  R. Baer,  A. T. Bell,  N. A. Besley,  
 Jeng-Da Chai,  A. Dreuw,  B. D. Dunietz,  T. R. Furlani,  Chao-Ping Hsu,  
 Yousung Jung,  Jing Kong,  D. S. Lambrecht,  WanZhen Liang,  C. Ochsenfeld,  
 V. A. Rassolov,  L. V. Slipchenko,  J. E. Subotnik,  T. Van Voorhis,  
 J. M. Herbert,  A. I. Krylov,  P. M. W. Gill,  M. Head-Gordon

 Contributors to earlier versions of Q-Chem not listed above: 
 R. D. Adamson,  B. Austin,  J. Baker,  G. J. O. Beran,  K. Brandhorst,  
 S. T. Brown,  E. F. C. Byrd,  A. K. Chakraborty,  C.-L. Cheng,  
 Siu Hung Chien,  D. M. Chipman,  D. L. Crittenden,  H. Dachsel,  
 R. A. DiStasio Jr.,  R. J. Doerksen,  A. D. Dutoi,  L. Fusti-Molnar,  
 W. A. Goddard III,  A. Golubeva-Zadorozhnaya,  S. R. Gwaltney,  G. Hawkins,  
 A. Heyden,  S. Hirata,  G. Kedziora,  F. J. Keil,  C. Kelley,  Jihan Kim,  
 R. A. King,  R. Z. Khaliullin,  P. P. Korambath,  W. Kurlancheek,  
 A. M. Lee,  M. S. Lee,  S. V. Levchenko,  Ching Yeh Lin,  D. Liotard,  
 R. C. Lochan,  I. Lotan,  P. E. Maslen,  N. Nair,  D. P. O'Neill,  
 D. Neuhauser,  E. Neuscamman,  C. M. Oana,  R. Olson,  B. Peters,  
 R. Peverati,  P. A. Pieniazek,  Y. M. Rhee,  J. Ritchie,  M. A. Rohrdanz,  
 E. Rosta,  N. J. Russ,  H. F. Schaefer III,  N. E. Schultz,  N. Shenvi,  
 A. C. Simmonett,  A. Sodt,  D. Stuck,  K. S. Thanthiriwatte,  V. Vanovschi,  
 Tao Wang,  A. Warshel,  C. F. Williams,  Q. Wu,  X. Xu,  W. Zhang

 Please cite Q-Chem as follows:
 Y. Shao et al., Mol. Phys. 113, 184-215 (2015)
 DOI: 10.1080/00268976.2014.952696

 Q-Chem 5.0.0 for Intel X86 EM64T Linux

 Parts of Q-Chem use Armadillo 5.200.1 (Boston Tea Smuggler).
 http://arma.sourceforge.net/

 Q-Chem begins on Thu Oct 19 19:13:40 2017  

Host: nid05661
0

     Scratch files written to /global/cscratch1/sd/junteng/scratch/17/opt_11d11.save//

Checking the input file for inconsistencies... 	...done.

--------------------------------------------------------------
User input:
--------------------------------------------------------------
$molecule
0  1
C          1.00100        0.54800       -0.44700
C         -0.58500        0.51700       -0.66900
C          1.58400       -0.68200        0.24700
C         -1.28900       -0.63000        0.05700
O          2.92935       -0.72311        0.09292
O          0.96847       -1.45282        0.94928
O         -0.90757       -1.82877       -0.44459
O         -2.14693       -0.53696        0.90949
C         -1.58236       -2.96656        0.11675
C          3.56634       -1.88974        0.63077
C          1.18700        1.83900        0.44000
C          0.50800        1.60700        1.78200
C         -0.81400        1.63700        1.57600
C         -1.03300        1.85800        0.08600
C          0.15900        2.78600       -0.22000
C          1.82300        0.68400       -1.75400
C         -1.01500        0.54200       -2.14600
H         -1.41709       -3.01541        1.19792
H          3.20214       -2.78088        0.11220
H         -1.59700        1.39300        2.28600
H         -1.15075       -3.83660       -0.37899
H         -2.65818       -2.90554       -0.07057
H          4.63450       -1.75171        0.45310
H          3.36394       -1.98548        1.70092
H         -2.02900        2.18500       -0.22000
H          2.22700        2.16700        0.48200
H         -0.57700        1.39100       -2.67500
H         -0.70800       -0.37300       -2.66300
H         -2.10200        0.62100       -2.22000
H          2.89100        0.67000       -1.50700
H          1.63100       -0.14300       -2.43900
H          1.62100        1.62400       -2.27400
H          0.08000        3.74500        0.29900
H          0.32400        2.97000       -1.28600
H          1.03300        1.34000        2.69000
$end


$opt
CONSTRAINT
tors    1    2    4    8    119.3
tors    2    1    3    6    -50.0
ENDCONSTRAINT
$end

$rem
JOBTYPE                   OPT
METHOD                    B3LYP
DFT_D                     D3_OP
BASIS                     STO-3G
GEOM_OPT_MAX_CYCLES       500
SYMMETRY                  False
THRESH                    12
SCF_CONVERGENCE           8
MAX_SUB_FILE_NUM          128
MEM_STATIC                400
MEM_TOTAL                 4000
$end

--------------------------------------------------------------
 Adding empirical dispersion correction 
 ----------------------------------------------------------------
 Doing -D3(op) with
 s6 =   1.00000
 s8 =   0.78311
 a1 =   0.30000
 a2 =   4.25000
 n  =  10.00000
 -D3 energy without 3body term =     -0.0467550811 hartrees
 ----------------------------------------------------------------
             Standard Nuclear Orientation (Angstroms)
    I     Atom           X                Y                Z
 ----------------------------------------------------------------
    1      C       0.3154877826    -0.8514042343     0.4621610803
    2      C      -1.0510796371    -0.0344650446     0.6375031689
    3      C       1.4756461600    -0.0563331528    -0.1347639692
    4      C      -1.0417763180     1.3385440729    -0.0355944551
    5      O       2.6487989865    -0.7046164433     0.0623109449
    6      O       1.3713726368     0.9465481263    -0.8052816975
    7      O      -0.1406108125     2.1611652570     0.5520499996
    8      O      -1.7796673786     1.7239609088    -0.9178700197
    9      C      -0.1202531418     3.5050343472     0.0435112523
   10      C       3.8147477705     0.0024288327    -0.3812145339
   11      C      -0.1196903513    -2.0242870948    -0.4985739442
   12      C      -0.5117825619    -1.4292474731    -1.8432004898
   13      C      -1.6800834529    -0.7973051786    -1.6796707844
   14      C      -2.0663253121    -0.9363221830    -0.2139308693
   15      C      -1.5201893686    -2.3496406725     0.0688241101
   16      C       0.8811900676    -1.4342563407     1.7822721918
   17      C      -1.5204744411     0.1024578708     2.0962610766
   18      H       0.1096002233     3.5064736411    -1.0269066209
   19      H       3.9169902745     0.9345075446     0.1813356680
   20      H      -2.1925873030    -0.1643859847    -2.3962446450
   21      H       0.6597799229     4.0189265807     0.6060751435
   22      H      -1.0904875515     3.9869333385     0.1939088840
   23      H       4.6574238152    -0.6617438081    -0.1803253050
   24      H       3.7500488094     0.2291065916    -1.4488212818
   25      H      -3.1078662068    -0.7288311709     0.0404724416
   26      H       0.6161775814    -2.8295693419    -0.5296687700
   27      H      -1.5986130839    -0.8716448183     2.5836052091
   28      H      -0.8267145801     0.7170827258     2.6790959956
   29      H      -2.5028043647     0.5789307885     2.1321425458
   30      H       1.8245620336    -1.9504447044     1.5691339572
   31      H       1.0902948876    -0.6508186888     2.5120109258
   32      H       0.2054252014    -2.1641451322     2.2354920036
   33      H      -2.0390520021    -3.1170084406    -0.5118748446
   34      H      -1.5317832538    -2.6334806243     1.1255821068
   35      H       0.1279549629    -1.4275737818    -2.7161902367
 ----------------------------------------------------------------
 Molecular Point Group                 C1    NOp =  1
 Largest Abelian Subgroup              C1    NOp =  1
 Nuclear Repulsion Energy =  1388.4883585293 hartrees
 There are       64 alpha and       64 beta electrons
 Requested basis set is STO-3G
 There are 52 shells and 103 basis functions

 Total QAlloc Memory Limit   4000 MB
 Mega-Array Size       392 MB
 MEM_STATIC part       400 MB
 A cutoff of  1.0D-12 yielded   1233 shell pairs
 There are      5256 function pairs
 
 -------------------------------------------------------
 OpenMP Integral Computing Module                       
 Release: version 1.0, May 2013, Q-Chem Inc. Pittsburgh 
 -------------------------------------------------------
 Integral Job Info:
 Integral job number is                      11
 Integral operator is                         1
 short-range coefficients                     0
 long-range coefficients              100000000
 Omega coefficients                           0
 if combine SR and LR in K                    0
 Integral screening is                        0
 Integral computing path is                   2
 max size of driver memory is            800000
 size of driver memory is                 45569
 size of scratch memory is               945100
 max col of scratch BK array                289
 max len of scratch array in speh3           22
 max len of scratch index in speh4            8
 max int batch size is                      520
 min int batch size is                       52
 fixed nKL is                                52
 max L of basis functions is                  1
 order of int derivative is                   0
 number of shells is                         52
 number of basis is                         103
 number of cartesian basis is               103
 number of contracted shell pairs          1233
 number of primitive shell pairs           6918
 maxK2 (contraction) of shell pair            9
 max number of K2 of shell pair               1
 max number of CS2 of shell pair            203
 max number of PS2 of shell pair            996
 mem total for path MDJ                   36938
 -------------------------------------------------------
 Smallest overlap matrix eigenvalue = 1.83E-01

 Scale SEOQF with 1.000000e-01/1.000000e-01/1.000000e-01

 Standard Electronic Orientation quadrupole field applied
 Nucleus-field energy     =     0.0000000209 hartrees
 Guess from superposition of atomic densities
 Warning:  Energy on first SCF cycle will be non-variational
 A restricted hybrid HF-DFT SCF calculation will be
 performed using Pulay DIIS extrapolation
 Exchange:     0.2000 Hartree-Fock + 0.0800 Slater + 0.7200 B88
 Correlation:  0.1900 VWN1RPA + 0.8100 LYP
 Using SG-1 standard quadrature grid
 Dispersion:   Grimme D3
 SCF converges when DIIS error is below 1.0E-08
 -------------------------------------------------------
 OpenMP Integral computing Module                
 Release: version 1.0, May 2013, Q-Chem Inc. Pittsburgh 
 -------------------------------------------------------
 -------------------------------------------------------
 OpenMP BLAS3 based DFT computing Module                
 Release: version 1.0, May 2013, Q-Chem Inc. Pittsburgh 
 -------------------------------------------------------
 ---------------------------------------
  Cycle       Energy         DIIS Error
 ---------------------------------------
    1    -795.9189415649      1.05E-01
    2    -796.5935053640      1.15E-02
    3    -795.7841745605      2.76E-02
    4    -796.8003105929      3.58E-03
    5    -796.8175345752      1.28E-03
    6    -796.8198690442      3.48E-04
    7    -796.8200424917      1.12E-04
    8    -796.8200605410      3.13E-05
    9    -796.8200615163      1.82E-05
   10    -796.8200620233      2.66E-06
   11    -796.8200620359      5.10E-07
   12    -796.8200620363      1.36E-07
   13    -796.8200620363      4.32E-08
   14    -796.8200620363      1.23E-08
   15    -796.8200620363      2.92E-09 Convergence criterion met
 ---------------------------------------
 SCF time:  CPU 84.22 s  wall 3.92 s
 SCF   energy in the final basis set = -796.8200620363
 Total energy in the final basis set = -796.8200620363
 
 --------------------------------------------------------------
 
                    Orbital Energies (a.u.)
 --------------------------------------------------------------
 
 Alpha MOs
 -- Occupied --
-18.939 -18.922 -18.862 -18.849 -10.102 -10.095 -10.074 -10.060
-10.032 -10.031 -10.020 -10.015 -10.010 -10.008 -10.000  -9.978
 -9.975  -1.045  -1.029  -0.952  -0.936  -0.842  -0.749  -0.727
 -0.678  -0.671  -0.659  -0.640  -0.624  -0.554  -0.530  -0.508
 -0.489  -0.472  -0.471  -0.456  -0.432  -0.419  -0.418  -0.404
 -0.390  -0.389  -0.370  -0.365  -0.362  -0.355  -0.346  -0.341
 -0.333  -0.317  -0.312  -0.309  -0.300  -0.284  -0.284  -0.271
 -0.257  -0.241  -0.228  -0.186  -0.174  -0.163  -0.136  -0.134
 -- Virtual --
  0.121   0.127   0.135   0.268   0.291   0.304   0.329   0.337
  0.377   0.380   0.384   0.400   0.408   0.419   0.424   0.433
  0.434   0.437   0.440   0.444   0.446   0.454   0.462   0.467
  0.471   0.480   0.486   0.498   0.509   0.526   0.528   0.529
  0.539   0.555   0.559   0.604   0.713   0.718   0.780
 --------------------------------------------------------------
 
          Ground-State Mulliken Net Atomic Charges

     Atom                 Charge (a.u.)
  ----------------------------------------
      1 C                     0.007478
      2 C                     0.008059
      3 C                     0.236465
      4 C                     0.244097
      5 O                    -0.192495
      6 O                    -0.234287
      7 O                    -0.190991
      8 O                    -0.241533
      9 C                    -0.123953
     10 C                    -0.125722
     11 C                    -0.060812
     12 C                    -0.098452
     13 C                    -0.083031
     14 C                    -0.057795
     15 C                    -0.131091
     16 C                    -0.226030
     17 C                    -0.224863
     18 H                     0.098011
     19 H                     0.092895
     20 H                     0.089234
     21 H                     0.092565
     22 H                     0.088689
     23 H                     0.097003
     24 H                     0.095507
     25 H                     0.074170
     26 H                     0.074841
     27 H                     0.078532
     28 H                     0.082564
     29 H                     0.078529
     30 H                     0.088261
     31 H                     0.075200
     32 H                     0.069748
     33 H                     0.076194
     34 H                     0.067678
     35 H                     0.075334
  ----------------------------------------
  Sum of atomic charges =    -0.000000

 -----------------------------------------------------------------
                    Cartesian Multipole Moments
 -----------------------------------------------------------------
    Charge (ESU x 10^10)
                 0.0000
    Dipole Moment (Debye)
         X       1.5933      Y      -0.2544      Z       1.3211
       Tot       2.0853
    Quadrupole Moments (Debye-Ang)
        XX     -87.8474     XY       1.5970     YY     -90.2952
        XZ      -3.5373     YZ       1.7047     ZZ     -93.6049
    Octopole Moments (Debye-Ang^2)
       XXX      45.2417    XXY       6.0233    XYY       5.8273
       YYY      42.9196    XXZ       0.2498    XYZ       0.5530
       YYZ       4.2172    XZZ       6.7863    YZZ       5.4576
       ZZZ      -6.9052
    Hexadecapole Moments (Debye-Ang^3)
      XXXX   -1547.7737   XXXY     -16.2918   XXYY    -543.6688
      XYYY     -17.2414   YYYY   -1450.1402   XXXZ     -20.6833
      XXYZ      10.9835   XYYZ      -7.7006   YYYZ      -2.0740
      XXZZ    -409.6324   XYZZ      -4.2618   YYZZ    -390.2519
      XZZZ      -3.1702   YZZZ      -9.8486   ZZZZ    -756.7817
 -----------------------------------------------------------------
 Calculating analytic gradient of the SCF energy
 Gradient of SCF Energy
            1           2           3           4           5           6
    1   0.0053376  -0.0028308   0.0308543  -0.0059449  -0.0330288  -0.0006644
    2   0.0095845   0.0264706   0.0119846   0.0124452   0.0556725  -0.0673012
    3  -0.0243311   0.0106688   0.0000725  -0.0151922  -0.0283468   0.0504565
            7           8           9          10          11          12
    1  -0.0445797   0.0510068   0.0052832  -0.0030244  -0.0058406   0.0017841
    2  -0.0116672  -0.0199592  -0.0023626  -0.0082504   0.0102874  -0.0052508
    3  -0.0619673   0.0597560   0.0088703   0.0056525  -0.0002072   0.0039900
           13          14          15          16          17          18
    1  -0.0050312   0.0060956   0.0073075   0.0017781   0.0003534  -0.0035962
    2  -0.0041060  -0.0038422   0.0122197   0.0141243  -0.0022649  -0.0033496
    3   0.0082800  -0.0115075  -0.0051232  -0.0107554  -0.0107362   0.0116750
           19          20          21          22          23          24
    1  -0.0061958   0.0063183  -0.0078096   0.0101869  -0.0107244  -0.0028807
    2  -0.0125840  -0.0026181  -0.0085964  -0.0097405   0.0045004  -0.0047332
    3  -0.0039787   0.0058300  -0.0044443  -0.0011088  -0.0008899   0.0132231
           25          26          27          28          29          30
    1   0.0082390  -0.0057585   0.0013230  -0.0031635   0.0061927  -0.0013358
    2  -0.0001562   0.0074960   0.0048350  -0.0030510  -0.0031261   0.0001333
    3  -0.0007836  -0.0000593  -0.0017363  -0.0010907   0.0007586   0.0016670
           31          32          33          34          35
    1  -0.0002381   0.0041234   0.0028258  -0.0008857  -0.0054770
    2  -0.0057373   0.0012887   0.0050991   0.0008498   0.0017057
    3  -0.0038261  -0.0028005   0.0038015  -0.0049144   0.0090977
 Max gradient component =       6.730E-02
 RMS gradient           =       1.710E-02
 Gradient time:  CPU 28.60 s  wall 1.75 s
 Geometry Optimization Parameters
   NAtoms,    NIC,     NZ,  NCons,   NDum,   NFix, NCnnct, MaxDiis
       35     275       0       2       0       0       0       0


** CONSTRAINED OPTIMIZATION IN DELOCALIZED INTERNAL COORDINATES **
   Searching for a Minimum

   Optimization Cycle:   1

                       Coordinates (Angstroms)
     ATOM                X               Y               Z
      1  C         0.3154877826   -0.8514042343    0.4621610803
      2  C        -1.0510796371   -0.0344650446    0.6375031689
      3  C         1.4756461600   -0.0563331528   -0.1347639692
      4  C        -1.0417763180    1.3385440729   -0.0355944551
      5  O         2.6487989865   -0.7046164433    0.0623109449
      6  O         1.3713726368    0.9465481263   -0.8052816975
      7  O        -0.1406108125    2.1611652570    0.5520499996
      8  O        -1.7796673786    1.7239609088   -0.9178700197
      9  C        -0.1202531418    3.5050343472    0.0435112523
     10  C         3.8147477705    0.0024288327   -0.3812145339
     11  C        -0.1196903513   -2.0242870948   -0.4985739442
     12  C        -0.5117825619   -1.4292474731   -1.8432004898
     13  C        -1.6800834529   -0.7973051786   -1.6796707844
     14  C        -2.0663253121   -0.9363221830   -0.2139308693
     15  C        -1.5201893686   -2.3496406725    0.0688241101
     16  C         0.8811900676   -1.4342563407    1.7822721918
     17  C        -1.5204744411    0.1024578708    2.0962610766
     18  H         0.1096002233    3.5064736411   -1.0269066209
     19  H         3.9169902745    0.9345075446    0.1813356680
     20  H        -2.1925873030   -0.1643859847   -2.3962446450
     21  H         0.6597799229    4.0189265807    0.6060751435
     22  H        -1.0904875515    3.9869333385    0.1939088840
     23  H         4.6574238152   -0.6617438081   -0.1803253050
     24  H         3.7500488094    0.2291065916   -1.4488212818
     25  H        -3.1078662068   -0.7288311709    0.0404724416
     26  H         0.6161775814   -2.8295693419   -0.5296687700
     27  H        -1.5986130839   -0.8716448183    2.5836052091
     28  H        -0.8267145801    0.7170827258    2.6790959956
     29  H        -2.5028043647    0.5789307885    2.1321425458
     30  H         1.8245620336   -1.9504447044    1.5691339572
     31  H         1.0902948876   -0.6508186888    2.5120109258
     32  H         0.2054252014   -2.1641451322    2.2354920036
     33  H        -2.0390520021   -3.1170084406   -0.5118748446
     34  H        -1.5317832538   -2.6334806243    1.1255821068
     35  H         0.1279549629   -1.4275737818   -2.7161902367
   Point Group: c1    Number of degrees of freedom:    99


   Energy is   -796.820062036

              Constraints and their Current Values
                                        Value     Constraint
   Dihedral:        1   2   4   8      119.347      119.300
   Dihedral:        2   1   3   6      -21.950      -50.000

 Attempting to Generate Delocalized Internal Coordinates
**WARNING** Constraint Gradient Reduced for constraint   2

   Using Lagrange Multiplier Algorithm


101 Hessian modes will be used to form the next step
  Hessian Eigenvalues:
    -0.977753   -0.977753    0.045000    0.045000    0.045000    0.045000
     0.045000    0.045000    0.045105    0.045134    0.045224    0.045278
     0.045818    0.052270    0.055554    0.065503    0.066877    0.072964
     0.074362    0.076591    0.076997    0.080167    0.081420    0.082160
     0.082530    0.082645    0.083538    0.084410    0.085203    0.090786
     0.092588    0.100744    0.104356    0.113619    0.114834    0.114937
     0.118187    0.118369    0.119163    0.134621    0.138338    0.150977
     0.156415    0.158468    0.160000    0.160000    0.160000    0.160000
     0.160000    0.160000    0.160000    0.160000    0.160000    0.160000
     0.160000    0.160000    0.171033    0.209841    0.215249    0.244499
     0.246156    0.248937    0.249503    0.250000    0.250000    0.250000
     0.250000    0.252188    0.272494    0.276531    0.286501    0.295020
     0.296198    0.297879    0.340969    0.342547    0.342616    0.343233
     0.343874    0.344142    0.344315    0.344352    0.344602    0.345395
     0.345764    0.345814    0.346287    0.346622    0.347112    0.347642
     0.354241    0.357176    0.399978    0.404343    0.509732    0.540192
     0.541164    0.985397    0.995394    1.022753    1.022753

 Minimum Search - Taking P-RFO Step
 Searching for Lamda that Maximizes Along the Constraint modes Only
 Value Taken    Lamda =   0.04288560
 Searching for Lamda that Minimizes Along All other modes
 Value Taken    Lamda =  -0.10254137
 Calculated Step too Large.  Step scaled by  0.628399
 Step Taken.  Stepsize is  0.300000

                             Maximum     Tolerance    Cnvgd?
         Gradient            0.300000       0.000300      NO
         Displacement        0.175957       0.001200      NO
         Energy change     *********       0.000001      NO


 New Cartesian Coordinates Obtained by Inverse Iteration

 Displacement from previous Coordinates is:  1.234418
 Adding empirical dispersion correction 
 ----------------------------------------------------------------
 Doing -D3(op) with
 s6 =   1.00000
 s8 =   0.78311
 a1 =   0.30000
 a2 =   4.25000
 n  =  10.00000
 -D3 energy without 3body term =     -0.0462088953 hartrees
 ----------------------------------------------------------------
             Standard Nuclear Orientation (Angstroms)
    I     Atom           X                Y                Z
 ----------------------------------------------------------------
    1      C       0.3168396357    -0.8580259425     0.4430052840
    2      C      -1.0517367934    -0.0282680549     0.6260217384
    3      C       1.5196303306    -0.0738982516    -0.1795219579
    4      C      -1.0552430550     1.3918563892    -0.0214043196
    5      O       2.7080906024    -0.7400387291     0.0930238052
    6      O       1.4532315444     0.8376814882    -1.0118888764
    7      O      -0.1683883189     2.2264274533     0.6485223369
    8      O      -1.8154793908     1.7967173922    -0.9102936423
    9      C      -0.1930147386     3.5987723322     0.1645425331
   10      C       3.8817278860    -0.0752501606    -0.4545670518
   11      C      -0.0943377121    -2.0616268358    -0.4959074458
   12      C      -0.4734693590    -1.4725894654    -1.8620895308
   13      C      -1.6542815762    -0.8339472162    -1.7135825271
   14      C      -2.0602641514    -0.9586302153    -0.2340646670
   15      C      -1.5090804363    -2.3807030055     0.0652945985
   16      C       0.8308428053    -1.3958893482     1.8182513135
   17      C      -1.5343505685     0.1224371044     2.0916813720
   18      H       0.0671786757     3.6444456250    -0.9073175395
   19      H       4.0092243402     0.9245999869    -0.0056036631
   20      H      -2.1691101750    -0.2102553684    -2.4456336944
   21      H       0.5551217414     4.1423664782     0.7587327337
   22      H      -1.1902718915     4.0523060520     0.2989612366
   23      H       4.7400523286    -0.7137611071    -0.1990280551
   24      H       3.8072670841     0.0365802168    -1.5499085519
   25      H      -3.1110684343    -0.7592471466     0.0144271478
   26      H       0.6429475066    -2.8756199189    -0.5025886960
   27      H      -1.6175231037    -0.8504870762     2.5890585522
   28      H      -0.8408446082     0.7454966696     2.6719179933
   29      H      -2.5212557405     0.6020780632     2.1134418856
   30      H       1.7769402648    -1.9287446893     1.6591179206
   31      H       1.0202275649    -0.5774672326     2.5219888810
   32      H       0.1270008224    -2.0993756143     2.2786121735
   33      H      -2.0201044647    -3.1620734152    -0.5134042217
   34      H      -1.5307692822    -2.6492280178     1.1297261412
   35      H       0.1779306617    -1.4820621270    -2.7359069680
 ----------------------------------------------------------------
 Molecular Point Group                 C1    NOp =  1
 Largest Abelian Subgroup              C1    NOp =  1
 Nuclear Repulsion Energy =  1365.8149684748 hartrees
 There are       64 alpha and       64 beta electrons
 Applying Cartesian multipole field
    Component          Value
    ---------          -----
     (2,0,0)        1.00000E-11
     (0,2,0)        2.00000E-11
     (0,0,2)       -3.00000E-11
 Nucleus-field energy     =     0.0000000214 hartrees
 Requested basis set is STO-3G
 There are 52 shells and 103 basis functions
 A cutoff of  1.0D-12 yielded   1233 shell pairs
 There are      5256 function pairs
 Smallest overlap matrix eigenvalue = 1.90E-01
 Guess MOs from SCF MO coefficient file
 Reading MOs from coefficient file
 Reading MOs from coefficient file
 A restricted hybrid HF-DFT SCF calculation will be
 performed using Pulay DIIS extrapolation
 Exchange:     0.2000 Hartree-Fock + 0.0800 Slater + 0.7200 B88
 Correlation:  0.1900 VWN1RPA + 0.8100 LYP
 Using SG-1 standard quadrature grid
 Dispersion:   Grimme D3
 SCF converges when DIIS error is below 1.0E-08
 Geometry optimization detected.  Setting ReadMinima to 0
 Setting SaveMinima to 0
 -------------------------------------------------------
 OpenMP Integral computing Module                
 Release: version 1.0, May 2013, Q-Chem Inc. Pittsburgh 
 -------------------------------------------------------
 -------------------------------------------------------
 OpenMP BLAS3 based DFT computing Module                
 Release: version 1.0, May 2013, Q-Chem Inc. Pittsburgh 
 -------------------------------------------------------
 ---------------------------------------
  Cycle       Energy         DIIS Error
 ---------------------------------------
    1    -796.6812977069      7.00E-03
    2    -796.8384777087      1.79E-03
    3    -796.8311301753      2.91E-03
    4    -796.8432322220      5.80E-04
    5    -796.8437588275      1.44E-04
    6    -796.8437920851      3.06E-05
    7    -796.8437926198      2.61E-05
    8    -796.8437936870      4.39E-06
    9    -796.8437937096      2.32E-06
   10    -796.8437937174      7.24E-07
   11    -796.8437937183      1.05E-07
   12    -796.8437937184      3.43E-08
   13    -796.8437937184      9.54E-09 Convergence criterion met
 ---------------------------------------
 SCF time:  CPU 72.51 s  wall 3.06 s
 SCF   energy in the final basis set = -796.8437937184
 Total energy in the final basis set = -796.8437937184
 
 --------------------------------------------------------------
 
                    Orbital Energies (a.u.)
 --------------------------------------------------------------
 
 Alpha MOs
 -- Occupied --
-18.936 -18.925 -18.862 -18.854 -10.096 -10.090 -10.069 -10.060
-10.035 -10.033 -10.023 -10.017 -10.010 -10.010 -10.000  -9.980
 -9.978  -1.025  -1.014  -0.938  -0.929  -0.835  -0.743  -0.719
 -0.671  -0.664  -0.656  -0.637  -0.621  -0.549  -0.527  -0.504
 -0.487  -0.467  -0.462  -0.449  -0.422  -0.414  -0.411  -0.399
 -0.389  -0.383  -0.368  -0.362  -0.361  -0.351  -0.344  -0.338
 -0.332  -0.312  -0.310  -0.307  -0.298  -0.283  -0.280  -0.267
 -0.256  -0.244  -0.233  -0.180  -0.172  -0.164  -0.142  -0.136
 -- Virtual --
  0.109   0.122   0.124   0.253   0.276   0.290   0.319   0.331
  0.362   0.365   0.371   0.386   0.391   0.408   0.410   0.421
  0.426   0.427   0.428   0.435   0.435   0.444   0.450   0.454
  0.457   0.460   0.467   0.477   0.501   0.512   0.515   0.522
  0.526   0.545   0.548   0.587   0.671   0.676   0.761
 --------------------------------------------------------------
 
          Ground-State Mulliken Net Atomic Charges

     Atom                 Charge (a.u.)
  ----------------------------------------
      1 C                     0.011559
      2 C                     0.009994
      3 C                     0.219395
      4 C                     0.224912
      5 O                    -0.182934
      6 O                    -0.225389
      7 O                    -0.184542
      8 O                    -0.228318
      9 C                    -0.123747
     10 C                    -0.124625
     11 C                    -0.060060
     12 C                    -0.094283
     13 C                    -0.082586
     14 C                    -0.056219
     15 C                    -0.129562
     16 C                    -0.223254
     17 C                    -0.222320
     18 H                     0.094903
     19 H                     0.089863
     20 H                     0.087108
     21 H                     0.090330
     22 H                     0.087290
     23 H                     0.093366
     24 H                     0.092726
     25 H                     0.073092
     26 H                     0.075653
     27 H                     0.077289
     28 H                     0.083071
     29 H                     0.077721
     30 H                     0.085409
     31 H                     0.075230
     32 H                     0.069517
     33 H                     0.075875
     34 H                     0.067283
     35 H                     0.076252
  ----------------------------------------
  Sum of atomic charges =     0.000000

 -----------------------------------------------------------------
                    Cartesian Multipole Moments
 -----------------------------------------------------------------
    Charge (ESU x 10^10)
                 0.0000
    Dipole Moment (Debye)
         X       1.3721      Y      -0.3007      Z       1.3666
       Tot       1.9598
    Quadrupole Moments (Debye-Ang)
        XX     -88.0361     XY       1.5631     YY     -89.4650
        XZ      -3.6424     YZ       2.0992     ZZ     -93.9300
    Octopole Moments (Debye-Ang^2)
       XXX      43.8703    XXY       5.6163    XYY       5.3693
       YYY      45.7411    XXZ      -0.2716    XYZ       0.9869
       YYZ       5.2654    XZZ       5.1632    YZZ       4.6707
       ZZZ      -5.2299
    Hexadecapole Moments (Debye-Ang^3)
      XXXX   -1578.5255   XXXY       1.4639   XXYY    -559.7440
      XYYY       1.7576   YYYY   -1493.7150   XXXZ      -9.9186
      XXYZ       6.5996   XYYZ      -3.5856   YYYZ     -16.1708
      XXZZ    -421.4704   XYZZ       0.6376   YYZZ    -404.7711
      XZZZ      12.6529   YZZZ     -25.9012   ZZZZ    -783.3352
 -----------------------------------------------------------------
 Calculating analytic gradient of the SCF energy
 Gradient of SCF Energy
            1           2           3           4           5           6
    1  -0.0083967   0.0006482   0.0227069   0.0044751  -0.0177015   0.0041530
    2  -0.0047012   0.0179504   0.0036333   0.0047949   0.0274993  -0.0303340
    3  -0.0324387   0.0214244   0.0177407   0.0012171  -0.0242244   0.0159177
            7           8           9          10          11          12
    1  -0.0253996   0.0155487   0.0038012  -0.0008910   0.0002930   0.0119710
    2   0.0002029  -0.0062835  -0.0026647  -0.0062808   0.0046593  -0.0082078
    3  -0.0308750   0.0215476   0.0077952   0.0053550   0.0019837  -0.0001351
           13          14          15          16          17          18
    1  -0.0134390   0.0015444   0.0055737  -0.0028171   0.0008096  -0.0017917
    2   0.0006543  -0.0056164   0.0058943   0.0098307   0.0004188  -0.0019514
    3   0.0019751  -0.0061306  -0.0034115  -0.0034833  -0.0072875   0.0043087
           19          20          21          22          23          24
    1  -0.0027400   0.0032684  -0.0028844   0.0037817  -0.0040185  -0.0009377
    2  -0.0047321  -0.0010129  -0.0036322  -0.0037083   0.0019612  -0.0010932
    3  -0.0008098   0.0026055  -0.0020163  -0.0007577  -0.0006598   0.0051717
           25          26          27          28          29          30
    1   0.0041054  -0.0029250   0.0014549  -0.0011298   0.0024629  -0.0016283
    2   0.0003082   0.0022939   0.0017644  -0.0016109  -0.0014108   0.0002088
    3   0.0014083  -0.0002979  -0.0005756   0.0003027   0.0012624   0.0005133
           31          32          33          34          35
    1  -0.0002335   0.0016526   0.0017148  -0.0011928  -0.0018388
    2  -0.0023039  -0.0002204   0.0014577   0.0005465   0.0016855
    3  -0.0008074  -0.0006113   0.0017961  -0.0019517   0.0041490
 Max gradient component =       3.244E-02
 RMS gradient           =       9.349E-03
 Gradient time:  CPU 20.91 s  wall 0.88 s
 Geometry Optimization Parameters
   NAtoms,    NIC,     NZ,  NCons,   NDum,   NFix, NCnnct, MaxDiis
       35     275       0       2       0       0       0       0

 Cartesian Hessian Update
 Hessian Updated using BFGS Update


** CONSTRAINED OPTIMIZATION IN DELOCALIZED INTERNAL COORDINATES **
   Searching for a Minimum

   Optimization Cycle:   2

                       Coordinates (Angstroms)
     ATOM                X               Y               Z
      1  C         0.3168396357   -0.8580259425    0.4430052840
      2  C        -1.0517367934   -0.0282680549    0.6260217384
      3  C         1.5196303306   -0.0738982516   -0.1795219579
      4  C        -1.0552430550    1.3918563892   -0.0214043196
      5  O         2.7080906024   -0.7400387291    0.0930238052
      6  O         1.4532315444    0.8376814882   -1.0118888764
      7  O        -0.1683883189    2.2264274533    0.6485223369
      8  O        -1.8154793908    1.7967173922   -0.9102936423
      9  C        -0.1930147386    3.5987723322    0.1645425331
     10  C         3.8817278860   -0.0752501606   -0.4545670518
     11  C        -0.0943377121   -2.0616268358   -0.4959074458
     12  C        -0.4734693590   -1.4725894654   -1.8620895308
     13  C        -1.6542815762   -0.8339472162   -1.7135825271
     14  C        -2.0602641514   -0.9586302153   -0.2340646670
     15  C        -1.5090804363   -2.3807030055    0.0652945985
     16  C         0.8308428053   -1.3958893482    1.8182513135
     17  C        -1.5343505685    0.1224371044    2.0916813720
     18  H         0.0671786757    3.6444456250   -0.9073175395
     19  H         4.0092243402    0.9245999869   -0.0056036631
     20  H        -2.1691101750   -0.2102553684   -2.4456336944
     21  H         0.5551217414    4.1423664782    0.7587327337
     22  H        -1.1902718915    4.0523060520    0.2989612366
     23  H         4.7400523286   -0.7137611071   -0.1990280551
     24  H         3.8072670841    0.0365802168   -1.5499085519
     25  H        -3.1110684343   -0.7592471466    0.0144271478
     26  H         0.6429475066   -2.8756199189   -0.5025886960
     27  H        -1.6175231037   -0.8504870762    2.5890585522
     28  H        -0.8408446082    0.7454966696    2.6719179933
     29  H        -2.5212557405    0.6020780632    2.1134418856
     30  H         1.7769402648   -1.9287446893    1.6591179206
     31  H         1.0202275649   -0.5774672326    2.5219888810
     32  H         0.1270008224   -2.0993756143    2.2786121735
     33  H        -2.0201044647   -3.1620734152   -0.5134042217
     34  H        -1.5307692822   -2.6492280178    1.1297261412
     35  H         0.1779306617   -1.4820621270   -2.7359069680
   Point Group: c1    Number of degrees of freedom:    99


   Energy is   -796.843793718

              Constraints and their Current Values
                                        Value     Constraint
   Dihedral:        1   2   4   8      119.323      119.300
   Dihedral:        2   1   3   6      -32.032      -50.000
 Hessian Updated using BFGS Update
**WARNING** Constraint Gradient Reduced for constraint   2

   Using Lagrange Multiplier Algorithm


 85 Hessian modes will be used to form the next step
  Hessian Eigenvalues:
    -0.977757   -0.966522    0.044694    0.045000    0.045100    0.045137
     0.045271    0.045631    0.047941    0.052642    0.055567    0.065337
     0.067443    0.072901    0.073769    0.076294    0.076969    0.081390
     0.081961    0.082219    0.082509    0.083534    0.084322    0.084489
     0.085462    0.090453    0.092619    0.101126    0.104588    0.114768
     0.114923    0.115567    0.118192    0.118369    0.118951    0.134604
     0.138193    0.151858    0.156424    0.158467    0.159856    0.161623
     0.177884    0.210517    0.215901    0.237976    0.244611    0.246256
     0.249461    0.249952    0.251302    0.254838    0.272462    0.276687
     0.286248    0.295229    0.297513    0.326391    0.340853    0.342551
     0.342839    0.343260    0.343972    0.344226    0.344343    0.344540
     0.345227    0.345575    0.345784    0.346033    0.346507    0.346989
     0.347438    0.353681    0.355971    0.361949    0.395183    0.404249
     0.488852    0.536073    0.544288    0.948628    0.990703    1.022752
     1.056835

 Minimum Search - Taking P-RFO Step
 Searching for Lamda that Maximizes Along the Constraint modes Only
 Value Taken    Lamda =   0.04957312


 ********************************************
 ** ERROR IN DETERMINING Lamda IN CONFormD **
 ********************************************


 ** Scaling Hessian by  2.218339 **


 85 Hessian modes will be used to form the next step
  Hessian Eigenvalues:
    -0.951341   -0.930358    0.099146    0.099826    0.100047    0.100130
     0.100426    0.101226    0.106339    0.116776    0.123267    0.144938
     0.149608    0.161718    0.163644    0.169247    0.170744    0.180551
     0.181816    0.182388    0.183032    0.185308    0.187047    0.187417
     0.189576    0.200651    0.205456    0.224327    0.232009    0.254594
     0.254939    0.256345    0.262190    0.262583    0.263874    0.298596
     0.306545    0.336864    0.347001    0.351534    0.354612    0.358503
     0.394493    0.466997    0.478940    0.527502    0.542630    0.546278
     0.553388    0.554477    0.557467    0.565147    0.604411    0.613730
     0.634951    0.654898    0.659984    0.721896    0.756091    0.759894
     0.760519    0.761460    0.763045    0.763610    0.763869    0.764286
     0.765829    0.766600    0.767056    0.767600    0.768661    0.769711
     0.770732    0.784101    0.788106    0.796176    0.871044    0.894563
     1.049822    1.051439    1.103514    1.197058    1.239685    2.143042
     2.200294

 Minimum Search - Taking P-RFO Step
 Searching for Lamda that Maximizes Along the Constraint modes Only
 Value Taken    Lamda =   0.05323337
 Searching for Lamda that Minimizes Along All other modes
 Value Taken    Lamda =  -0.04513160
 Calculated Step too Large.  Step scaled by  0.865003
 Step Taken.  Stepsize is  0.300000

                             Maximum     Tolerance    Cnvgd?
         Gradient            0.300000       0.000300      NO
         Displacement        0.246989       0.001200      NO
         Energy change     -0.023732       0.000001      NO


 New Cartesian Coordinates Obtained by Inverse Iteration

 Displacement from previous Coordinates is:  0.975429
 Adding empirical dispersion correction 
 ----------------------------------------------------------------
 Doing -D3(op) with
 s6 =   1.00000
 s8 =   0.78311
 a1 =   0.30000
 a2 =   4.25000
 n  =  10.00000
 -D3 energy without 3body term =     -0.0465181062 hartrees
 ----------------------------------------------------------------
             Standard Nuclear Orientation (Angstroms)
    I     Atom           X                Y                Z
 ----------------------------------------------------------------
    1      C       0.2898947727    -0.8732858809     0.4242101341
    2      C      -1.0620708098    -0.0538920380     0.6351190288
    3      C       1.4721728141    -0.0291796670    -0.1705595042
    4      C      -1.0308299713     1.3783979261    -0.0016782218
    5      O       2.6897018292    -0.6349997921     0.1822469611
    6      O       1.3893018626     0.7478671754    -1.1391877628
    7      O      -0.0896042686     2.1708397588     0.6745393362
    8      O      -1.7814730412     1.8178889246    -0.8911560833
    9      C      -0.0696686138     3.5441007993     0.1674638738
   10      C       3.8325192525     0.0324175354    -0.4439149404
   11      C      -0.0959342383    -2.0839792171    -0.5074646841
   12      C      -0.4821552756    -1.4818456813    -1.8725916378
   13      C      -1.6656922987    -0.8408995116    -1.7142383430
   14      C      -2.0757002878    -0.9782757955    -0.2306917017
   15      C      -1.5168732614    -2.4078650740     0.0584615279
   16      C       0.7978123740    -1.3835789205     1.8185675324
   17      C      -1.5463394735     0.0995329761     2.1057830883
   18      H       0.1847306211     3.5709424125    -0.9092020274
   19      H       3.9180682414     1.0809601951    -0.1021054676
   20      H      -2.1852995071    -0.2112138762    -2.4413407499
   21      H       0.7039273919     4.0716464714     0.7486164299
   22      H      -1.0493827714     4.0398587079     0.3050042174
   23      H       4.7244416737    -0.5355764709    -0.1321316186
   24      H       3.7504540669     0.0281760475    -1.5473402380
   25      H      -3.1294084562    -0.7816060638     0.0173754453
   26      H       0.6473133483    -2.8953483927    -0.5179510012
   27      H      -1.6455621822    -0.8726726640     2.6039990619
   28      H      -0.8458062456     0.7168004163     2.6852353228
   29      H      -2.5286456598     0.5925197214     2.1194777575
   30      H       1.7585916960    -1.8984576213     1.6806998663
   31      H       0.9600121027    -0.5482664945     2.5110161516
   32      H       0.1000556031    -2.0935754032     2.2792346439
   33      H      -2.0262885498    -3.1897178298    -0.5240752554
   34      H      -1.5355462096    -2.6787094985     1.1236014066
   35      H       0.1669434657    -1.4844268622    -2.7514063102
 ----------------------------------------------------------------
 Molecular Point Group                 C1    NOp =  1
 Largest Abelian Subgroup              C1    NOp =  1
 Nuclear Repulsion Energy =  1367.7416008494 hartrees
 There are       64 alpha and       64 beta electrons
 Applying Cartesian multipole field
    Component          Value
    ---------          -----
     (2,0,0)        1.00000E-11
     (0,2,0)        2.00000E-11
     (0,0,2)       -3.00000E-11
 Nucleus-field energy     =     0.0000000205 hartrees
 Requested basis set is STO-3G
 There are 52 shells and 103 basis functions
 A cutoff of  1.0D-12 yielded   1233 shell pairs
 There are      5256 function pairs
 Smallest overlap matrix eigenvalue = 1.93E-01
 Guess MOs from SCF MO coefficient file
 Reading MOs from coefficient file
 Reading MOs from coefficient file
 A restricted hybrid HF-DFT SCF calculation will be
 performed using Pulay DIIS extrapolation
 Exchange:     0.2000 Hartree-Fock + 0.0800 Slater + 0.7200 B88
 Correlation:  0.1900 VWN1RPA + 0.8100 LYP
 Using SG-1 standard quadrature grid
 Dispersion:   Grimme D3
 SCF converges when DIIS error is below 1.0E-08
 Geometry optimization detected.  Setting ReadMinima to 0
 Setting SaveMinima to 0
 -------------------------------------------------------
 OpenMP Integral computing Module                
 Release: version 1.0, May 2013, Q-Chem Inc. Pittsburgh 
 -------------------------------------------------------
 -------------------------------------------------------
 OpenMP BLAS3 based DFT computing Module                
 Release: version 1.0, May 2013, Q-Chem Inc. Pittsburgh 
 -------------------------------------------------------
 ---------------------------------------
  Cycle       Energy         DIIS Error
 ---------------------------------------
    1    -796.7646859793      5.96E-03
    2    -796.8412605385      9.92E-04
    3    -796.8383868949      1.77E-03
    4    -796.8429633909      3.46E-04
    5    -796.8431425153      1.08E-04
    6    -796.8431606184      2.75E-05
    7    -796.8431610819      2.37E-05
    8    -796.8431619280      4.82E-06
    9    -796.8431619616      1.56E-06
   10    -796.8431619650      8.31E-07
   11    -796.8431619662      1.05E-07
   12    -796.8431619663      3.88E-08
   13    -796.8431619663      8.25E-09 Convergence criterion met
 ---------------------------------------
 SCF time:  CPU 70.80 s  wall 2.98 s
 SCF   energy in the final basis set = -796.8431619663
 Total energy in the final basis set = -796.8431619663
 
 --------------------------------------------------------------
 
                    Orbital Energies (a.u.)
 --------------------------------------------------------------
 
 Alpha MOs
 -- Occupied --
-18.935 -18.925 -18.863 -18.857 -10.093 -10.088 -10.066 -10.060
-10.035 -10.032 -10.025 -10.017 -10.011 -10.011  -9.998  -9.980
 -9.979  -1.019  -1.009  -0.934  -0.927  -0.834  -0.742  -0.716
 -0.668  -0.661  -0.655  -0.636  -0.621  -0.546  -0.529  -0.503
 -0.487  -0.465  -0.459  -0.447  -0.420  -0.412  -0.410  -0.397
 -0.389  -0.381  -0.368  -0.362  -0.358  -0.349  -0.344  -0.337
 -0.332  -0.311  -0.310  -0.305  -0.296  -0.282  -0.279  -0.267
 -0.255  -0.246  -0.235  -0.180  -0.170  -0.165  -0.143  -0.137
 -- Virtual --
  0.098   0.121   0.122   0.252   0.272   0.289   0.315   0.334
  0.353   0.361   0.370   0.380   0.389   0.404   0.405   0.417
  0.425   0.426   0.426   0.431   0.432   0.443   0.444   0.448
  0.451   0.455   0.461   0.472   0.497   0.508   0.515   0.523
  0.524   0.542   0.546   0.583   0.655   0.665   0.754
 --------------------------------------------------------------
 
          Ground-State Mulliken Net Atomic Charges

     Atom                 Charge (a.u.)
  ----------------------------------------
      1 C                     0.011958
      2 C                     0.009782
      3 C                     0.213478
      4 C                     0.219237
      5 O                    -0.176806
      6 O                    -0.221610
      7 O                    -0.182367
      8 O                    -0.223077
      9 C                    -0.125035
     10 C                    -0.125929
     11 C                    -0.059898
     12 C                    -0.092252
     13 C                    -0.082675
     14 C                    -0.056131
     15 C                    -0.128312
     16 C                    -0.221426
     17 C                    -0.221054
     18 H                     0.094298
     19 H                     0.088519
     20 H                     0.086193
     21 H                     0.088703
     22 H                     0.087020
     23 H                     0.091479
     24 H                     0.091766
     25 H                     0.072726
     26 H                     0.076851
     27 H                     0.077223
     28 H                     0.082839
     29 H                     0.077420
     30 H                     0.083516
     31 H                     0.075044
     32 H                     0.068260
     33 H                     0.075872
     34 H                     0.067495
     35 H                     0.076893
  ----------------------------------------
  Sum of atomic charges =    -0.000000

 -----------------------------------------------------------------
                    Cartesian Multipole Moments
 -----------------------------------------------------------------
    Charge (ESU x 10^10)
                 0.0000
    Dipole Moment (Debye)
         X       1.3024      Y      -0.2488      Z       1.3601
       Tot       1.8995
    Quadrupole Moments (Debye-Ang)
        XX     -88.3645     XY       2.1290     YY     -89.1192
        XZ      -3.7397     YZ       2.1439     ZZ     -94.3823
    Octopole Moments (Debye-Ang^2)
       XXX      41.8087    XXY       6.9206    XYY       7.3298
       YYY      45.0310    XXZ      -0.9867    XYZ       1.0542
       YYZ       4.8175    XZZ       4.2812    YZZ       4.6261
       ZZZ      -5.1298
    Hexadecapole Moments (Debye-Ang^3)
      XXXX   -1557.1161   XXXY     -24.3585   XXYY    -549.8728
      XYYY     -24.1579   YYYY   -1478.0802   XXXZ      -9.5799
      XXYZ       5.1606   XYYZ      -4.6121   YYYZ     -16.2085
      XXZZ    -419.4093   XYZZ     -10.2795   YYZZ    -403.6446
      XZZZ      12.3135   YZZZ     -25.2981   ZZZZ    -795.7888
 -----------------------------------------------------------------
 Calculating analytic gradient of the SCF energy
 Gradient of SCF Energy
            1           2           3           4           5           6
    1  -0.0173490   0.0103160   0.0144330   0.0078213  -0.0145694   0.0041622
    2  -0.0111662   0.0132868   0.0195889   0.0028067   0.0100513  -0.0242251
    3  -0.0487116   0.0244836   0.0322538   0.0037644  -0.0213141   0.0060240
            7           8           9          10          11          12
    1  -0.0156599   0.0067727   0.0019786  -0.0018079   0.0062259   0.0156635
    2  -0.0006433  -0.0036344  -0.0026858  -0.0037248   0.0005395  -0.0086922
    3  -0.0198268   0.0106178   0.0050407   0.0040654   0.0051695  -0.0013223
           13          14          15          16          17          18
    1  -0.0154284  -0.0009755   0.0041555  -0.0062352   0.0015042  -0.0011607
    2   0.0032099  -0.0045221   0.0029208   0.0115467   0.0000570  -0.0007284
    3   0.0005510  -0.0031259  -0.0015481  -0.0005210  -0.0041028   0.0021715
           19          20          21          22          23          24
    1  -0.0016475   0.0019997  -0.0016105   0.0017682  -0.0023520  -0.0002301
    2  -0.0024888  -0.0001565  -0.0020672  -0.0021080   0.0007679  -0.0002779
    3  -0.0001169   0.0014857  -0.0010491  -0.0005396  -0.0003692   0.0026508
           25          26          27          28          29          30
    1   0.0024923  -0.0019350   0.0011335  -0.0002175   0.0012794  -0.0005381
    2   0.0009721   0.0006268   0.0009784  -0.0011500  -0.0009256   0.0002221
    3   0.0016977  -0.0008224  -0.0000449   0.0002569   0.0010054  -0.0003542
           31          32          33          34          35
    1  -0.0005358   0.0010821   0.0014145  -0.0013596  -0.0005906
    2  -0.0008764  -0.0002988   0.0004076   0.0007593   0.0016296
    3   0.0001880  -0.0002999   0.0011134  -0.0009971   0.0025265
 Max gradient component =       4.871E-02
 RMS gradient           =       9.084E-03
 Gradient time:  CPU 21.32 s  wall 0.90 s
 Geometry Optimization Parameters
   NAtoms,    NIC,     NZ,  NCons,   NDum,   NFix, NCnnct, MaxDiis
       35     275       0       2       0       0       0       0

 Cartesian Hessian Update
 Hessian Updated using BFGS Update


** CONSTRAINED OPTIMIZATION IN DELOCALIZED INTERNAL COORDINATES **
   Searching for a Minimum

   Optimization Cycle:   3

                       Coordinates (Angstroms)
     ATOM                X               Y               Z
      1  C         0.2898947727   -0.8732858809    0.4242101341
      2  C        -1.0620708098   -0.0538920380    0.6351190288
      3  C         1.4721728141   -0.0291796670   -0.1705595042
      4  C        -1.0308299713    1.3783979261   -0.0016782218
      5  O         2.6897018292   -0.6349997921    0.1822469611
      6  O         1.3893018626    0.7478671754   -1.1391877628
      7  O        -0.0896042686    2.1708397588    0.6745393362
      8  O        -1.7814730412    1.8178889246   -0.8911560833
      9  C        -0.0696686138    3.5441007993    0.1674638738
     10  C         3.8325192525    0.0324175354   -0.4439149404
     11  C        -0.0959342383   -2.0839792171   -0.5074646841
     12  C        -0.4821552756   -1.4818456813   -1.8725916378
     13  C        -1.6656922987   -0.8408995116   -1.7142383430
     14  C        -2.0757002878   -0.9782757955   -0.2306917017
     15  C        -1.5168732614   -2.4078650740    0.0584615279
     16  C         0.7978123740   -1.3835789205    1.8185675324
     17  C        -1.5463394735    0.0995329761    2.1057830883
     18  H         0.1847306211    3.5709424125   -0.9092020274
     19  H         3.9180682414    1.0809601951   -0.1021054676
     20  H        -2.1852995071   -0.2112138762   -2.4413407499
     21  H         0.7039273919    4.0716464714    0.7486164299
     22  H        -1.0493827714    4.0398587079    0.3050042174
     23  H         4.7244416737   -0.5355764709   -0.1321316186
     24  H         3.7504540669    0.0281760475   -1.5473402380
     25  H        -3.1294084562   -0.7816060638    0.0173754453
     26  H         0.6473133483   -2.8953483927   -0.5179510012
     27  H        -1.6455621822   -0.8726726640    2.6039990619
     28  H        -0.8458062456    0.7168004163    2.6852353228
     29  H        -2.5286456598    0.5925197214    2.1194777575
     30  H         1.7585916960   -1.8984576213    1.6806998663
     31  H         0.9600121027   -0.5482664945    2.5110161516
     32  H         0.1000556031   -2.0935754032    2.2792346439
     33  H        -2.0262885498   -3.1897178298   -0.5240752554
     34  H        -1.5355462096   -2.6787094985    1.1236014066
     35  H         0.1669434657   -1.4844268622   -2.7514063102
   Point Group: c1    Number of degrees of freedom:    99


   Energy is   -796.843161966

              Constraints and their Current Values
                                        Value     Constraint
   Dihedral:        1   2   4   8      119.304      119.300
   Dihedral:        2   1   3   6      -46.183      -50.000
 Hessian Updated using BFGS Update

   Using Lagrange Multiplier Algorithm


 88 Hessian modes will be used to form the next step
  Hessian Eigenvalues:
    -0.951325   -0.944922    0.088214    0.099826    0.099829    0.100114
     0.100306    0.100788    0.103085    0.106396    0.116679    0.123278
     0.136280    0.149439    0.157047    0.162285    0.168550    0.170741
     0.180641    0.182230    0.182916    0.183459    0.185301    0.187231
     0.188473    0.195891    0.198037    0.204955    0.223965    0.231990
     0.254414    0.254937    0.256168    0.262196    0.262580    0.264481
     0.299058    0.300591    0.325335    0.347001    0.351414    0.354471
     0.355324    0.358457    0.387268    0.457446    0.500886    0.513941
     0.542635    0.546618    0.553485    0.554567    0.556099    0.562282
     0.571619    0.604386    0.613736    0.635011    0.655163    0.662385
     0.726066    0.756049    0.759883    0.760519    0.761450    0.763045
     0.763609    0.763855    0.764223    0.765810    0.766612    0.767032
     0.767601    0.768670    0.769687    0.770705    0.784133    0.787206
     0.794316    0.857490    0.893866    1.040328    1.050983    1.053113
     1.197019    1.241742    2.125189    2.203080

 Minimum Search - Taking P-RFO Step
 Searching for Lamda that Maximizes Along the Constraint modes Only
 Value Taken    Lamda =   0.00120391
 Searching for Lamda that Minimizes Along All other modes
 Value Taken    Lamda =  -0.01917685
 Calculated Step too Large.  Step scaled by  0.879454
 Step Taken.  Stepsize is  0.300000

                             Maximum     Tolerance    Cnvgd?
         Gradient            0.066619       0.000300      NO
         Displacement        0.127755       0.001200      NO
         Energy change      0.000632       0.000001      NO


 New Cartesian Coordinates Obtained by Inverse Iteration

 Displacement from previous Coordinates is:  1.182717
 Adding empirical dispersion correction 
 ----------------------------------------------------------------
 Doing -D3(op) with
 s6 =   1.00000
 s8 =   0.78311
 a1 =   0.30000
 a2 =   4.25000
 n  =  10.00000
 -D3 energy without 3body term =     -0.0466065957 hartrees
 ----------------------------------------------------------------
             Standard Nuclear Orientation (Angstroms)
    I     Atom           X                Y                Z
 ----------------------------------------------------------------
    1      C       0.2818787659    -0.9084884392     0.4454550622
    2      C      -1.0789224661    -0.0804383676     0.6406654468
    3      C       1.4404461381    -0.0238671338    -0.1818216181
    4      C      -0.9952645406     1.3663025676     0.0018341995
    5      O       2.7120966205    -0.5222446159     0.2488006994
    6      O       1.3277050311     0.6981591848    -1.2076947489
    7      O      -0.0146937259     2.1205783334     0.7172049589
    8      O      -1.7132320478     1.8364891263    -0.9147119004
    9      C       0.0680733440     3.4890503418     0.1642614622
   10      C       3.7989208166     0.1995928457    -0.4481541094
   11      C      -0.1261138075    -2.1199116089    -0.4977083138
   12      C      -0.5152502717    -1.5045504686    -1.8661445037
   13      C      -1.6805115762    -0.8477959439    -1.7080544570
   14      C      -2.1007693683    -0.9878496880    -0.2250940472
   15      C      -1.5603934881    -2.4326051687     0.0687392645
   16      C       0.8131514887    -1.4431357989     1.8350584489
   17      C      -1.5984565430     0.0938424135     2.1061338369
   18      H       0.3539227984     3.4800532870    -0.9097128816
   19      H       3.7997220901     1.2830904243    -0.2019146720
   20      H      -2.1962334293    -0.2105538764    -2.4371110190
   21      H       0.8485840077     4.0120097347     0.7497394940
   22      H      -0.8965347039     4.0328059841     0.2624918162
   23      H       4.7443144748    -0.2576590091    -0.0981114175
   24      H       3.7193697344     0.0941933610    -1.5519543292
   25      H      -3.1585717893    -0.7782402856     0.0105238258
   26      H       0.6143757344    -2.9384817637    -0.5165653280
   27      H      -1.7340942688    -0.8721912891     2.6119596277
   28      H      -0.9009978600     0.7081564562     2.6950060591
   29      H      -2.5730243303     0.6077518680     2.0800498479
   30      H       1.7742850373    -1.9555276932     1.6804354428
   31      H       0.9835746809    -0.6122425566     2.5337341427
   32      H       0.1178212360    -2.1576382856     2.2952058949
   33      H      -2.0815273237    -3.2053103662    -0.5210337990
   34      H      -1.5811904744    -2.7098894921     1.1343959502
   35      H       0.1312000106    -1.5188777646    -2.7522920974
 ----------------------------------------------------------------
 Molecular Point Group                 C1    NOp =  1
 Largest Abelian Subgroup              C1    NOp =  1
 Nuclear Repulsion Energy =  1363.1889871398 hartrees
 There are       64 alpha and       64 beta electrons
 Applying Cartesian multipole field
    Component          Value
    ---------          -----
     (2,0,0)        1.00000E-11
     (0,2,0)        2.00000E-11
     (0,0,2)       -3.00000E-11
 Nucleus-field energy     =     0.0000000200 hartrees
 Requested basis set is STO-3G
 There are 52 shells and 103 basis functions
 A cutoff of  1.0D-12 yielded   1232 shell pairs
 There are      5258 function pairs
 Smallest overlap matrix eigenvalue = 1.91E-01
 Guess MOs from SCF MO coefficient file
 Reading MOs from coefficient file
 Reading MOs from coefficient file
 A restricted hybrid HF-DFT SCF calculation will be
 performed using Pulay DIIS extrapolation
 Exchange:     0.2000 Hartree-Fock + 0.0800 Slater + 0.7200 B88
 Correlation:  0.1900 VWN1RPA + 0.8100 LYP
 Using SG-1 standard quadrature grid
 Dispersion:   Grimme D3
 SCF converges when DIIS error is below 1.0E-08
 Geometry optimization detected.  Setting ReadMinima to 0
 Setting SaveMinima to 0
 -------------------------------------------------------
 OpenMP Integral computing Module                
 Release: version 1.0, May 2013, Q-Chem Inc. Pittsburgh 
 -------------------------------------------------------
 -------------------------------------------------------
 OpenMP BLAS3 based DFT computing Module                
 Release: version 1.0, May 2013, Q-Chem Inc. Pittsburgh 
 -------------------------------------------------------
 ---------------------------------------
  Cycle       Energy         DIIS Error
 ---------------------------------------
    1    -796.7533901074      4.63E-03
    2    -796.8469974058      1.22E-03
    3    -796.8414290729      2.33E-03
    4    -796.8492237291      3.49E-04
    5    -796.8494116866      1.07E-04
    6    -796.8494284291      3.67E-05
    7    -796.8494295747      2.61E-05
    8    -796.8494306458      3.43E-06
    9    -796.8494306671      9.69E-07
   10    -796.8494306686      6.72E-07
   11    -796.8494306694      1.19E-07
   12    -796.8494306695      7.10E-08
   13    -796.8494306695      1.03E-08
   14    -796.8494306696      3.69E-09 Convergence criterion met
 ---------------------------------------
 SCF time:  CPU 75.98 s  wall 3.20 s
 SCF   energy in the final basis set = -796.8494306696
 Total energy in the final basis set = -796.8494306696
 
 --------------------------------------------------------------
 
                    Orbital Energies (a.u.)
 --------------------------------------------------------------
 
 Alpha MOs
 -- Occupied --
-18.933 -18.925 -18.864 -18.861 -10.088 -10.085 -10.063 -10.057
-10.036 -10.033 -10.025 -10.018 -10.012 -10.011 -10.001  -9.980
 -9.979  -1.008  -0.999  -0.927  -0.923  -0.830  -0.738  -0.712
 -0.665  -0.657  -0.652  -0.635  -0.620  -0.543  -0.529  -0.499
 -0.485  -0.463  -0.454  -0.441  -0.416  -0.408  -0.404  -0.393
 -0.387  -0.376  -0.366  -0.363  -0.357  -0.350  -0.344  -0.334
 -0.334  -0.312  -0.308  -0.302  -0.294  -0.280  -0.275  -0.267
 -0.255  -0.248  -0.239  -0.180  -0.170  -0.165  -0.143  -0.138
 -- Virtual --
  0.092   0.116   0.124   0.244   0.265   0.287   0.308   0.325
  0.339   0.347   0.361   0.372   0.382   0.395   0.399   0.406
  0.416   0.421   0.423   0.426   0.428   0.434   0.437   0.440
  0.445   0.450   0.456   0.465   0.490   0.500   0.509   0.516
  0.516   0.533   0.538   0.584   0.633   0.648   0.759
 --------------------------------------------------------------
 
          Ground-State Mulliken Net Atomic Charges

     Atom                 Charge (a.u.)
  ----------------------------------------
      1 C                     0.013136
      2 C                     0.010595
      3 C                     0.203855
      4 C                     0.210597
      5 O                    -0.169338
      6 O                    -0.216149
      7 O                    -0.176655
      8 O                    -0.215068
      9 C                    -0.126397
     10 C                    -0.126545
     11 C                    -0.058585
     12 C                    -0.091273
     13 C                    -0.083078
     14 C                    -0.055808
     15 C                    -0.127357
     16 C                    -0.220621
     17 C                    -0.219880
     18 H                     0.092822
     19 H                     0.086915
     20 H                     0.085896
     21 H                     0.086065
     22 H                     0.085859
     23 H                     0.088957
     24 H                     0.089882
     25 H                     0.072170
     26 H                     0.075533
     27 H                     0.076319
     28 H                     0.082507
     29 H                     0.077165
     30 H                     0.083335
     31 H                     0.076318
     32 H                     0.069510
     33 H                     0.075616
     34 H                     0.067352
     35 H                     0.076349
  ----------------------------------------
  Sum of atomic charges =    -0.000000

 -----------------------------------------------------------------
                    Cartesian Multipole Moments
 -----------------------------------------------------------------
    Charge (ESU x 10^10)
                -0.0000
    Dipole Moment (Debye)
         X       1.1696      Y      -0.2496      Z       1.3183
       Tot       1.7799
    Quadrupole Moments (Debye-Ang)
        XX     -88.4509     XY       2.6273     YY     -88.9169
        XZ      -3.8596     YZ       1.8840     ZZ     -94.6634
    Octopole Moments (Debye-Ang^2)
       XXX      38.4857    XXY       9.2148    XYY       8.7282
       YYY      44.3495    XXZ      -2.2905    XYZ       0.7550
       YYZ       4.4251    XZZ       3.9537    YZZ       4.3221
       ZZZ      -5.6488
    Hexadecapole Moments (Debye-Ang^3)
      XXXX   -1558.9989   XXXY     -54.6996   XXYY    -547.2487
      XYYY     -56.7711   YYYY   -1480.7364   XXXZ     -11.0087
      XXYZ       4.7642   XYYZ      -5.4573   YYYZ     -11.2429
      XXZZ    -420.6363   XYZZ     -22.4715   YYZZ    -405.0479
      XZZZ      11.1405   YZZZ     -19.2590   ZZZZ    -804.9343
 -----------------------------------------------------------------
 Calculating analytic gradient of the SCF energy
 Gradient of SCF Energy
            1           2           3           4           5           6
    1  -0.0156182   0.0094618   0.0035414   0.0092773  -0.0020648   0.0021031
    2  -0.0107147   0.0065793   0.0206854  -0.0011996  -0.0066043  -0.0058669
    3  -0.0403362   0.0182391   0.0360386   0.0067191  -0.0080323  -0.0134634
            7           8           9          10          11          12
    1  -0.0001620  -0.0072332  -0.0004700  -0.0017117   0.0075399   0.0025728
    2  -0.0030661   0.0029512  -0.0023369  -0.0008856  -0.0030563  -0.0028769
    3  -0.0032410  -0.0071713   0.0015849   0.0023134   0.0054620  -0.0004764
           13          14          15          16          17          18
    1  -0.0048809  -0.0017410   0.0006328  -0.0027334  -0.0010470  -0.0000083
    2   0.0001540  -0.0024413  -0.0010044   0.0038072  -0.0000993   0.0008299
    3  -0.0002757  -0.0020125   0.0017252   0.0052304  -0.0006400  -0.0015216
           19          20          21          22          23          24
    1   0.0002921   0.0004115   0.0008130  -0.0013158   0.0010474   0.0002416
    2   0.0016060   0.0016449   0.0006017   0.0010704  -0.0002976   0.0001684
    3  -0.0000223  -0.0006633   0.0004099  -0.0003247   0.0001554  -0.0016639
           25          26          27          28          29          30
    1  -0.0004911   0.0004322  -0.0002163   0.0001728  -0.0007723   0.0003717
    2   0.0011868  -0.0008401   0.0004475   0.0000053   0.0001873  -0.0000614
    3   0.0012018  -0.0008213   0.0008911   0.0002122   0.0002116   0.0001549
           31          32          33          34          35
    1   0.0001421   0.0014165  -0.0001259  -0.0009706   0.0010926
    2  -0.0002041  -0.0007646  -0.0008108  -0.0003774   0.0015832
    3   0.0003513   0.0002372  -0.0000467   0.0001180  -0.0005435
 Max gradient component =       4.034E-02
 RMS gradient           =       6.929E-03
 Gradient time:  CPU 21.36 s  wall 0.90 s
 Geometry Optimization Parameters
   NAtoms,    NIC,     NZ,  NCons,   NDum,   NFix, NCnnct, MaxDiis
       35     275       0       2       0       0       0       0

 Cartesian Hessian Update
 Hessian Updated using BFGS Update


** CONSTRAINED OPTIMIZATION IN DELOCALIZED INTERNAL COORDINATES **
   Searching for a Minimum

   Optimization Cycle:   4

                       Coordinates (Angstroms)
     ATOM                X               Y               Z
      1  C         0.2818787659   -0.9084884392    0.4454550622
      2  C        -1.0789224661   -0.0804383676    0.6406654468
      3  C         1.4404461381   -0.0238671338   -0.1818216181
      4  C        -0.9952645406    1.3663025676    0.0018341995
      5  O         2.7120966205   -0.5222446159    0.2488006994
      6  O         1.3277050311    0.6981591848   -1.2076947489
      7  O        -0.0146937259    2.1205783334    0.7172049589
      8  O        -1.7132320478    1.8364891263   -0.9147119004
      9  C         0.0680733440    3.4890503418    0.1642614622
     10  C         3.7989208166    0.1995928457   -0.4481541094
     11  C        -0.1261138075   -2.1199116089   -0.4977083138
     12  C        -0.5152502717   -1.5045504686   -1.8661445037
     13  C        -1.6805115762   -0.8477959439   -1.7080544570
     14  C        -2.1007693683   -0.9878496880   -0.2250940472
     15  C        -1.5603934881   -2.4326051687    0.0687392645
     16  C         0.8131514887   -1.4431357989    1.8350584489
     17  C        -1.5984565430    0.0938424135    2.1061338369
     18  H         0.3539227984    3.4800532870   -0.9097128816
     19  H         3.7997220901    1.2830904243   -0.2019146720
     20  H        -2.1962334293   -0.2105538764   -2.4371110190
     21  H         0.8485840077    4.0120097347    0.7497394940
     22  H        -0.8965347039    4.0328059841    0.2624918162
     23  H         4.7443144748   -0.2576590091   -0.0981114175
     24  H         3.7193697344    0.0941933610   -1.5519543292
     25  H        -3.1585717893   -0.7782402856    0.0105238258
     26  H         0.6143757344   -2.9384817637   -0.5165653280
     27  H        -1.7340942688   -0.8721912891    2.6119596277
     28  H        -0.9009978600    0.7081564562    2.6950060591
     29  H        -2.5730243303    0.6077518680    2.0800498479
     30  H         1.7742850373   -1.9555276932    1.6804354428
     31  H         0.9835746809   -0.6122425566    2.5337341427
     32  H         0.1178212360   -2.1576382856    2.2952058949
     33  H        -2.0815273237   -3.2053103662   -0.5210337990
     34  H        -1.5811904744   -2.7098894921    1.1343959502
     35  H         0.1312000106   -1.5188777646   -2.7522920974
   Point Group: c1    Number of degrees of freedom:    99


   Energy is   -796.849430670

              Constraints and their Current Values
                                        Value     Constraint
   Dihedral:        1   2   4   8      119.301      119.300
   Dihedral:        2   1   3   6      -49.485      -50.000
 Hessian Updated using BFGS Update

   Using Lagrange Multiplier Algorithm


 91 Hessian modes will be used to form the next step
  Hessian Eigenvalues:
    -0.951393   -0.940233    0.065287    0.099825    0.099829    0.099839
     0.100111    0.100258    0.100686    0.102289    0.107130    0.116631
     0.123285    0.138519    0.150058    0.155541    0.162237    0.170435
     0.170744    0.180685    0.182230    0.182995    0.183781    0.185326
     0.187237    0.188413    0.194959    0.198752    0.204769    0.224857
     0.232234    0.254678    0.254969    0.256494    0.262197    0.262587
     0.265537    0.299835    0.306111    0.345599    0.347206    0.352039
     0.354384    0.355280    0.357708    0.358855    0.398419    0.460097
     0.503898    0.530608    0.542642    0.546627    0.553974    0.554581
     0.554732    0.558937    0.562273    0.571460    0.604628    0.619159
     0.636058    0.655112    0.662115    0.725751    0.756407    0.759923
     0.760540    0.761440    0.763050    0.763609    0.763861    0.764574
     0.765824    0.766610    0.767162    0.767620    0.768695    0.769957
     0.770740    0.784395    0.789788    0.805667    0.867409    0.894628
     1.035286    1.050674    1.068007    1.197591    1.241558    2.186397
     2.227867

 Minimum Search - Taking P-RFO Step
 Searching for Lamda that Maximizes Along the Constraint modes Only
 Value Taken    Lamda =   0.00002118
 Searching for Lamda that Minimizes Along All other modes
 Value Taken    Lamda =  -0.00461331
 Step Taken.  Stepsize is  0.241910

                             Maximum     Tolerance    Cnvgd?
         Gradient            0.009238       0.000300      NO
         Displacement        0.129996       0.001200      NO
         Energy change     -0.006269       0.000001      NO


 New Cartesian Coordinates Obtained by Inverse Iteration

 Displacement from previous Coordinates is:  0.764587
 Adding empirical dispersion correction 
 ----------------------------------------------------------------
 Doing -D3(op) with
 s6 =   1.00000
 s8 =   0.78311
 a1 =   0.30000
 a2 =   4.25000
 n  =  10.00000
 -D3 energy without 3body term =     -0.0467029715 hartrees
 ----------------------------------------------------------------
             Standard Nuclear Orientation (Angstroms)
    I     Atom           X                Y                Z
 ----------------------------------------------------------------
    1      C       0.2816810964    -0.9292661727     0.4589125665
    2      C      -1.0840420827    -0.0931578363     0.6337915956
    3      C       1.4226926974    -0.0482815115    -0.2143821454
    4      C      -0.9711081862     1.3610233526     0.0029104731
    5      O       2.7181374749    -0.4377089362     0.2878153115
    6      O       1.2924930612     0.6316901530    -1.2705221012
    7      O       0.0095946812     2.0976632005     0.7580728707
    8      O      -1.6599667089     1.8512210654    -0.9272051514
    9      C       0.1408775286     3.4610059182     0.1881296115
   10      C       3.7704998810     0.2986849999    -0.4570503310
   11      C      -0.1479106883    -2.1411443521    -0.4874147820
   12      C      -0.5303666840    -1.5274164068    -1.8611072044
   13      C      -1.6828096894    -0.8564555518    -1.7098886270
   14      C      -2.1103417617    -0.9871922167    -0.2284034066
   15      C      -1.5879610097    -2.4372648917     0.0756121105
   16      C       0.8203904915    -1.4673620902     1.8431520691
   17      C      -1.6136874893     0.0898172702     2.0965493547
   18      H       0.4677455721     3.4294219946    -0.8742455289
   19      H       3.6978866628     1.3972489455    -0.3030183898
   20      H      -2.1952954036    -0.2223568344    -2.4445658629
   21      H       0.9104578881     3.9779816435     0.7947773432
   22      H      -0.8149088657     4.0269517078     0.2441942544
   23      H       4.7383955789    -0.0641367924    -0.0587018746
   24      H       3.7171686110     0.0965376886    -1.5494968755
   25      H      -3.1689933917    -0.7690282620    -0.0020128265
   26      H       0.5851194420    -2.9672795979    -0.5043478645
   27      H      -1.7645661207    -0.8764323918     2.5992359115
   28      H      -0.9139881682     0.6984916027     2.6893437528
   29      H      -2.5823482919     0.6148933792     2.0577118089
   30      H       1.7758789728    -1.9890171716     1.6825416963
   31      H       1.0017512178    -0.6340615882     2.5375255451
   32      H       0.1156313785    -2.1714568513     2.3068030343
   33      H      -2.1170030674    -3.2047733329    -0.5148609222
   34      H      -1.6117975139    -2.7114563616     1.1426583453
   35      H       0.1143528812    -1.5628074588    -2.7488975230
 ----------------------------------------------------------------
 Molecular Point Group                 C1    NOp =  1
 Largest Abelian Subgroup              C1    NOp =  1
 Nuclear Repulsion Energy =  1362.1617250440 hartrees
 There are       64 alpha and       64 beta electrons
 Applying Cartesian multipole field
    Component          Value
    ---------          -----
     (2,0,0)        1.00000E-11
     (0,2,0)        2.00000E-11
     (0,0,2)       -3.00000E-11
 Nucleus-field energy     =     0.0000000197 hartrees
 Requested basis set is STO-3G
 There are 52 shells and 103 basis functions
 A cutoff of  1.0D-12 yielded   1232 shell pairs
 There are      5258 function pairs
 Smallest overlap matrix eigenvalue = 1.89E-01
 Guess MOs from SCF MO coefficient file
 Reading MOs from coefficient file
 Reading MOs from coefficient file
 A restricted hybrid HF-DFT SCF calculation will be
 performed using Pulay DIIS extrapolation
 Exchange:     0.2000 Hartree-Fock + 0.0800 Slater + 0.7200 B88
 Correlation:  0.1900 VWN1RPA + 0.8100 LYP
 Using SG-1 standard quadrature grid
 Dispersion:   Grimme D3
 SCF converges when DIIS error is below 1.0E-08
 Geometry optimization detected.  Setting ReadMinima to 0
 Setting SaveMinima to 0
 -------------------------------------------------------
 OpenMP Integral computing Module                
 Release: version 1.0, May 2013, Q-Chem Inc. Pittsburgh 
 -------------------------------------------------------
 -------------------------------------------------------
 OpenMP BLAS3 based DFT computing Module                
 Release: version 1.0, May 2013, Q-Chem Inc. Pittsburgh 
 -------------------------------------------------------
 ---------------------------------------
  Cycle       Energy         DIIS Error
 ---------------------------------------
    1    -796.8184512128      3.14E-03
    2    -796.8520812182      5.31E-04
    3    -796.8506248284      1.15E-03
    4    -796.8525662160      1.33E-04
    5    -796.8525921650      4.96E-05
    6    -796.8525948049      2.95E-05
    7    -796.8525960158      1.07E-05
    8    -796.8525961966      2.27E-06
    9    -796.8525962062      4.68E-07
   10    -796.8525962067      2.40E-07
   11    -796.8525962068      9.53E-08
   12    -796.8525962069      3.36E-08
   13    -796.8525962070      5.52E-09 Convergence criterion met
 ---------------------------------------
 SCF time:  CPU 74.06 s  wall 3.13 s
 SCF   energy in the final basis set = -796.8525962070
[...]
 C          0.000  0.001  0.000    0.008 -0.003  0.003   -0.012  0.004 -0.004
 C          0.000 -0.000 -0.000    0.000 -0.000 -0.000    0.001  0.000 -0.000
 C          0.000 -0.000 -0.000   -0.000 -0.000 -0.000    0.001 -0.000  0.000
 C         -0.001 -0.000  0.000   -0.008 -0.003  0.000   -0.011 -0.004 -0.001
 C         -0.001 -0.006  0.006    0.004  0.059 -0.028    0.005 -0.018 -0.027
 C         -0.001 -0.014 -0.046   -0.002 -0.007 -0.004    0.004  0.018  0.000
 C          0.023  0.003 -0.006    0.010 -0.005  0.003    0.056 -0.024  0.051
 H          0.003  0.001 -0.005    0.002  0.001 -0.002    0.001  0.000 -0.001
 H         -0.006  0.014  0.003   -0.001  0.001  0.000   -0.002  0.003  0.001
 H         -0.001  0.000 -0.001    0.000  0.002  0.000   -0.004  0.002 -0.005
 H          0.000  0.002  0.002    0.000  0.001  0.001   -0.000 -0.000 -0.000
 H         -0.004 -0.000 -0.001   -0.001 -0.000 -0.000    0.005  0.000  0.001
 H          0.011 -0.001  0.005    0.002 -0.000  0.001    0.001 -0.000  0.000
 H          0.001 -0.004 -0.019    0.000 -0.001 -0.005   -0.000  0.001  0.003
 H          0.012  0.002 -0.000    0.101  0.037  0.003    0.129  0.041  0.006
 H         -0.001 -0.001 -0.001   -0.103  0.036 -0.033    0.144 -0.045  0.044
 H          0.043 -0.139  0.070   -0.007  0.041 -0.022   -0.138  0.564 -0.274
 H          0.027  0.103  0.086    0.006  0.011  0.013   -0.044 -0.271 -0.213
 H         -0.341 -0.001 -0.085   -0.113 -0.002 -0.028   -0.494 -0.010 -0.117
 H          0.387 -0.029  0.015    0.047 -0.005  0.002   -0.023  0.006 -0.002
 H         -0.201  0.557  0.330   -0.029  0.076  0.047    0.040 -0.106 -0.066
 H         -0.184 -0.364  0.189    0.003  0.004 -0.004   -0.058 -0.109  0.062
 H         -0.006  0.053  0.034    0.060 -0.567 -0.353   -0.026  0.256  0.148
 H          0.016  0.018 -0.102   -0.109 -0.117  0.684   -0.029 -0.038  0.178
 H         -0.000 -0.000 -0.000   -0.000  0.002  0.000   -0.007 -0.002  0.006
 TransDip   0.035 -0.018 -0.144    0.033  0.142 -0.099    0.049 -0.062  0.035

 Mode:                88                     89                     90
 Frequency:      3112.55                3113.95                3118.03
 Force Cnst:      6.2408                 6.2734                 6.2399
 Red. Mass:       1.0933                 1.0981                 1.0894
 IR Active:          YES                    YES                    YES
 IR Intens:       22.175                 36.810                 19.624
 Raman Active:       YES                    YES                    YES
               X      Y      Z        X      Y      Z        X      Y      Z
 C         -0.000 -0.001 -0.000   -0.000  0.000 -0.000    0.001  0.000  0.000
 C         -0.000  0.000 -0.000    0.000 -0.001  0.000   -0.001  0.000  0.000
 C         -0.001  0.000 -0.000   -0.000 -0.000  0.000    0.000  0.000 -0.000
 C         -0.000 -0.000 -0.000   -0.000 -0.000  0.000   -0.000  0.000 -0.001
 O          0.000  0.000 -0.000    0.000 -0.000  0.000   -0.000 -0.000  0.000
 O          0.000 -0.000  0.000    0.000  0.000 -0.000   -0.000 -0.000  0.000
 O          0.000  0.000  0.000   -0.000  0.000  0.000    0.000 -0.000  0.000
 O          0.000  0.000  0.000    0.000  0.000 -0.000    0.000  0.000  0.000
 C          0.001  0.000  0.000    0.000 -0.000  0.000    0.002  0.000 -0.001
 C          0.000  0.000  0.000    0.001 -0.002 -0.002    0.000 -0.000 -0.001
 C         -0.056  0.017 -0.017   -0.043  0.014 -0.013    0.026 -0.007  0.008
 C          0.003  0.001 -0.002    0.003  0.000 -0.001   -0.001 -0.000  0.000
 C          0.001 -0.000  0.001    0.000 -0.000  0.001    0.002 -0.001  0.002
 C         -0.014 -0.005 -0.001   -0.018 -0.006 -0.000   -0.076 -0.024 -0.003
 C          0.003 -0.005 -0.018   -0.007  0.029  0.049   -0.001 -0.008  0.007
 C          0.015 -0.055 -0.001   -0.003  0.048 -0.002    0.002 -0.008  0.001
 C         -0.006  0.010 -0.004   -0.001 -0.003 -0.000   -0.006  0.006 -0.002
 H         -0.001 -0.000  0.002    0.000  0.000 -0.001   -0.008 -0.003  0.012
 H          0.001 -0.003 -0.000   -0.009  0.019  0.003   -0.002  0.004  0.001
 H         -0.005  0.003 -0.007   -0.006  0.002 -0.009   -0.021  0.009 -0.028
 H         -0.000 -0.001 -0.002    0.000  0.001  0.001    0.000 -0.001 -0.001
 H         -0.005 -0.000 -0.001   -0.002 -0.000 -0.000   -0.013 -0.001 -0.004
 H         -0.004  0.000 -0.002    0.001 -0.000 -0.000    0.001 -0.000  0.000
 H         -0.000 -0.000 -0.001   -0.000  0.004  0.019   -0.000  0.001  0.006
 H          0.176  0.059  0.009    0.216  0.071  0.009    0.879  0.289  0.042
 H          0.656 -0.206  0.199    0.505 -0.159  0.150   -0.288  0.090 -0.087
 H          0.027 -0.106  0.053   -0.006  0.020 -0.010    0.012 -0.050  0.025
 H         -0.007 -0.021 -0.021    0.004  0.016  0.013   -0.005 -0.021 -0.021
 H          0.056  0.004  0.013    0.012 -0.001  0.003    0.064  0.002  0.014
 H         -0.232  0.002 -0.013    0.106  0.005  0.006   -0.034  0.000 -0.002
 H         -0.121  0.332  0.208    0.098 -0.258 -0.162   -0.014  0.037  0.023
 H          0.172  0.316 -0.178   -0.166 -0.311  0.175    0.028  0.052 -0.030
 H         -0.011  0.096  0.054    0.040 -0.417 -0.240   -0.008  0.061  0.036
 H         -0.027 -0.031  0.163    0.054  0.069 -0.353    0.017  0.023 -0.114
 H         -0.034 -0.010  0.026   -0.024 -0.008  0.018    0.015  0.004 -0.012
 TransDip  -0.123 -0.047 -0.073   -0.131  0.134  0.051   -0.107 -0.085  0.038

 Mode:                91                     92                     93
 Frequency:      3119.53                3120.32                3124.21
 Force Cnst:      6.3012                 6.3494                 6.3670
 Red. Mass:       1.0990                 1.1068                 1.1071
 IR Active:          YES                    YES                    YES
 IR Intens:       39.762                 18.936                 16.381
 Raman Active:       YES                    YES                    YES
               X      Y      Z        X      Y      Z        X      Y      Z
 C         -0.000  0.001 -0.000    0.000 -0.000 -0.000    0.000  0.000 -0.000
 C         -0.000  0.000 -0.000    0.000  0.000 -0.000   -0.000 -0.000  0.000
 C         -0.000 -0.000  0.000    0.000  0.000  0.000    0.000 -0.000  0.000
 C         -0.000 -0.000 -0.000   -0.000 -0.000 -0.000    0.000  0.000 -0.000
 O          0.000 -0.000  0.000   -0.000  0.000  0.000   -0.000  0.000 -0.000
 O          0.000 -0.000  0.000   -0.000  0.000  0.000   -0.000  0.000 -0.000
 O          0.000 -0.000  0.000    0.000  0.000  0.000    0.000  0.000 -0.000
 O          0.000  0.000  0.000   -0.000  0.000  0.000    0.000 -0.000  0.000
 C         -0.000 -0.000  0.000    0.001  0.000 -0.000   -0.088 -0.018  0.030
 C          0.001 -0.001 -0.002    0.022 -0.064 -0.067    0.000 -0.001 -0.001
 C         -0.016  0.004 -0.006    0.001 -0.000  0.000    0.000 -0.000  0.000
 C          0.001  0.000 -0.000   -0.000 -0.000  0.000    0.000  0.000 -0.000
 C          0.001 -0.000  0.001   -0.000  0.000 -0.000    0.000 -0.000  0.000
 C         -0.010 -0.004 -0.001    0.001  0.000  0.000   -0.002 -0.000 -0.000
 C          0.009 -0.023 -0.058    0.000 -0.000 -0.000   -0.000 -0.000  0.000
 C         -0.025  0.042  0.000    0.001 -0.002 -0.000    0.001 -0.001 -0.000
 C         -0.026 -0.009 -0.029    0.000  0.001  0.000   -0.000 -0.000 -0.000
 H          0.002  0.001 -0.003   -0.004 -0.001  0.006    0.384  0.150 -0.566
 H         -0.006  0.013  0.002   -0.292  0.642  0.103   -0.003  0.007  0.001
 H         -0.003  0.002 -0.004    0.001 -0.000  0.001   -0.000  0.000 -0.000
 H         -0.000 -0.001 -0.001   -0.000 -0.001 -0.001   -0.015  0.003  0.012
 H          0.003  0.000  0.001   -0.009 -0.001 -0.002    0.676  0.066  0.196
 H          0.001 -0.000 -0.000    0.046 -0.016  0.006    0.002 -0.000  0.001
 H         -0.000  0.003  0.016   -0.012  0.126  0.680   -0.000  0.002  0.009
 H          0.123  0.041  0.007   -0.016 -0.005 -0.001    0.018  0.006  0.001
 H          0.183 -0.058  0.055   -0.016  0.005 -0.005   -0.004  0.001 -0.001
 H          0.036 -0.156  0.071    0.000 -0.001  0.001    0.000 -0.001  0.000
 H          0.051  0.256  0.213   -0.001 -0.006 -0.005    0.000  0.003  0.002
 H          0.228 -0.001  0.053   -0.004  0.000 -0.001    0.005  0.000  0.001
 H          0.333 -0.012  0.020   -0.010 -0.000 -0.001   -0.009  0.000 -0.001
 H          0.092 -0.257 -0.159   -0.006  0.015  0.010   -0.002  0.005  0.003
 H         -0.126 -0.227  0.130    0.007  0.014 -0.008    0.001  0.002 -0.001
 H         -0.037  0.378  0.215   -0.000  0.001  0.001    0.000 -0.001 -0.000
 H         -0.078 -0.095  0.484   -0.000 -0.000  0.002    0.001  0.001 -0.005
 H         -0.010 -0.002  0.009    0.003  0.001 -0.002   -0.000 -0.000  0.000
 TransDip  -0.088  0.030 -0.179    0.030 -0.099 -0.093   -0.123 -0.016  0.038

 Mode:                94                     95                     96
 Frequency:      3135.46                3142.97                3150.71
 Force Cnst:      6.3805                 6.4167                 6.4720
 Red. Mass:       1.1015                 1.1025                 1.1065
 IR Active:          YES                    YES                    YES
 IR Intens:       15.710                 21.825                 15.291
 Raman Active:       YES                    YES                    YES
               X      Y      Z        X      Y      Z        X      Y      Z
 C         -0.001 -0.000  0.000   -0.000 -0.000  0.000   -0.000 -0.000  0.000
 C          0.000  0.000  0.000    0.000 -0.001  0.000    0.000  0.000  0.000
 C         -0.001  0.000 -0.001   -0.000  0.000 -0.000   -0.000  0.000 -0.000
 C          0.000  0.000  0.000   -0.000 -0.000 -0.001   -0.001  0.001 -0.001
 O          0.000 -0.000  0.000    0.000 -0.000  0.000    0.000  0.000  0.000
 O          0.000 -0.000  0.000    0.000  0.000  0.000    0.000 -0.000  0.000
 O          0.000  0.000 -0.000   -0.000 -0.000  0.000    0.000  0.000  0.000
 O         -0.000 -0.000 -0.000    0.000  0.000  0.000    0.000 -0.000  0.000
 C         -0.001 -0.000  0.000    0.000 -0.000 -0.001   -0.018 -0.046 -0.081
 C         -0.000  0.001 -0.001   -0.000 -0.000 -0.000    0.000 -0.000  0.000
 C         -0.004  0.001 -0.001   -0.000  0.000  0.000   -0.000  0.000 -0.000
 C          0.000  0.000 -0.000    0.000  0.000 -0.000    0.000  0.000 -0.000
 C         -0.000 -0.000  0.000   -0.000  0.000 -0.000    0.000 -0.000  0.000
 C         -0.000 -0.000 -0.000   -0.002 -0.000  0.000   -0.000 -0.000 -0.000
 C         -0.001  0.002  0.009   -0.002  0.002  0.013    0.000 -0.000 -0.000
 C         -0.084 -0.021  0.019   -0.015 -0.022  0.004   -0.000 -0.000 -0.000
 C          0.009  0.020  0.013   -0.004 -0.085 -0.019   -0.000  0.001  0.000
 H          0.004  0.002 -0.006   -0.005 -0.002  0.007   -0.196 -0.081  0.252
 H          0.002 -0.006 -0.001   -0.000 -0.000 -0.000   -0.001  0.003  0.000
 H         -0.000  0.000 -0.001    0.000 -0.001  0.000   -0.000  0.000 -0.001
 H         -0.000 -0.001 -0.001    0.001  0.003  0.003    0.105  0.601  0.641
 H          0.003  0.000  0.001    0.003  0.000  0.001    0.307  0.023  0.066
 H          0.005 -0.000  0.002    0.003 -0.000  0.001   -0.003  0.000 -0.001
 H         -0.001  0.001  0.007   -0.000  0.001  0.004    0.000  0.000  0.000
 H          0.003  0.001 -0.000    0.024  0.008  0.002    0.001  0.000  0.000
 H          0.049 -0.017  0.013    0.002 -0.001  0.000    0.002 -0.001  0.000
 H          0.015 -0.042  0.026   -0.140  0.501 -0.263    0.001 -0.005  0.003
 H         -0.041 -0.196 -0.167    0.124  0.544  0.475   -0.001 -0.004 -0.004
 H         -0.079  0.004 -0.019    0.056 -0.018  0.011    0.000  0.000 -0.000
 H          0.787 -0.056  0.048    0.119 -0.012  0.008    0.001 -0.000  0.000
 H          0.019 -0.106 -0.056   -0.035  0.081  0.052   -0.000  0.000  0.000
 H          0.198  0.414 -0.223    0.103  0.199 -0.110   -0.000 -0.000  0.000
 H          0.004 -0.045 -0.026    0.005 -0.055 -0.031   -0.000  0.000  0.000
 H          0.014  0.018 -0.085    0.021  0.026 -0.136   -0.000 -0.000  0.002
 H         -0.002 -0.001  0.002   -0.001 -0.001  0.001   -0.000 -0.000  0.000
 TransDip  -0.114 -0.002  0.055   -0.021 -0.148  0.011   -0.019 -0.080 -0.095

 Mode:                97                     98                     99
 Frequency:      3154.37                3199.37                3240.01
 Force Cnst:      6.4856                 6.5778                 6.8168
 Red. Mass:       1.1063                 1.0907                 1.1021
 IR Active:          YES                    YES                    YES
 IR Intens:       14.960                  6.771                  3.970
 Raman Active:       YES                    YES                    YES
               X      Y      Z        X      Y      Z        X      Y      Z
 C          0.000 -0.000  0.000    0.000 -0.000 -0.000    0.000 -0.000  0.000
 C          0.000  0.000 -0.000    0.000  0.000 -0.000    0.000  0.000  0.000
 C          0.000  0.001 -0.001   -0.000 -0.000  0.000   -0.000  0.000 -0.000
 C          0.000  0.000 -0.000   -0.000 -0.000 -0.000   -0.000  0.000 -0.000
 O          0.000 -0.000  0.000    0.000  0.000 -0.000    0.000 -0.000  0.000
 O          0.000 -0.000  0.000    0.000  0.000 -0.000    0.000 -0.000  0.000
 O         -0.000 -0.000  0.000    0.000  0.000  0.000    0.000  0.000  0.000
 O         -0.000 -0.000 -0.000    0.000  0.000  0.000    0.000  0.000  0.000
 C          0.000 -0.000 -0.000   -0.000 -0.000 -0.000    0.000 -0.000 -0.000
 C         -0.077  0.025 -0.049    0.000  0.000  0.000   -0.000 -0.000 -0.000
 C         -0.000  0.000 -0.000   -0.005  0.002 -0.003    0.001 -0.000  0.002
 C         -0.000 -0.000  0.000   -0.062 -0.019  0.053    0.026  0.006 -0.016
 C          0.000 -0.000  0.000   -0.008  0.006 -0.020   -0.046  0.019 -0.071
 C          0.000  0.000  0.000   -0.001 -0.000 -0.000   -0.004 -0.001  0.002
 C          0.000  0.000 -0.000    0.001  0.001 -0.001    0.000 -0.001  0.001
 C          0.001  0.000 -0.000   -0.000 -0.000 -0.000   -0.000  0.000 -0.000
 C         -0.000  0.000 -0.000   -0.000 -0.000  0.000   -0.000  0.000  0.000
 H         -0.001 -0.001  0.002    0.000  0.000 -0.000   -0.000 -0.000  0.000
 H          0.123 -0.299 -0.067    0.001 -0.001 -0.000   -0.000  0.000  0.000
 H          0.000  0.000  0.000    0.143 -0.074  0.253    0.463 -0.230  0.798
 H          0.000  0.002  0.002    0.000  0.000  0.000    0.000  0.000  0.000
 H         -0.001 -0.000 -0.000    0.000  0.000  0.000   -0.000 -0.000 -0.000
 H          0.813 -0.066  0.371   -0.001  0.000 -0.000    0.000 -0.000  0.000
 H         -0.023  0.065  0.274    0.000 -0.000 -0.002   -0.000  0.000  0.000
 H         -0.001 -0.000 -0.000    0.011  0.004  0.001    0.035  0.011 -0.003
 H          0.003 -0.001  0.001    0.050 -0.016  0.020   -0.012  0.003 -0.006
 H          0.000 -0.002  0.001   -0.000  0.001 -0.001    0.000 -0.001  0.001
 H         -0.000 -0.000 -0.000    0.000  0.001  0.000   -0.000 -0.001 -0.002
 H          0.000  0.000  0.000    0.000 -0.000 -0.000    0.000  0.000  0.000
 H         -0.008  0.000 -0.000    0.001 -0.000  0.000    0.000  0.000 -0.000
 H         -0.000  0.002  0.001   -0.000  0.001  0.001    0.000 -0.001 -0.000
 H         -0.002 -0.004  0.002    0.000  0.000 -0.000   -0.000 -0.001  0.000
 H         -0.000  0.000 -0.000   -0.000 -0.002 -0.001   -0.001  0.003  0.002
 H         -0.000 -0.000  0.002   -0.002 -0.001  0.004    0.000  0.001 -0.004
 H          0.001  0.000 -0.001    0.684  0.223 -0.618   -0.213 -0.069  0.188
 TransDip  -0.112  0.014 -0.052   -0.068 -0.013  0.047    0.008  0.006 -0.063

 STANDARD THERMODYNAMIC QUANTITIES AT   298.15 K  AND     1.00 ATM

   This Molecule has  0 Imaginary Frequencies
   Zero point vibrational energy:      183.910 kcal/mol

   Atom    1 Element C  Has Mass   12.00000
   Atom    2 Element C  Has Mass   12.00000
   Atom    3 Element C  Has Mass   12.00000
   Atom    4 Element C  Has Mass   12.00000
   Atom    5 Element O  Has Mass   15.99491
   Atom    6 Element O  Has Mass   15.99491
   Atom    7 Element O  Has Mass   15.99491
   Atom    8 Element O  Has Mass   15.99491
   Atom    9 Element C  Has Mass   12.00000
   Atom   10 Element C  Has Mass   12.00000
   Atom   11 Element C  Has Mass   12.00000
   Atom   12 Element C  Has Mass   12.00000
   Atom   13 Element C  Has Mass   12.00000
   Atom   14 Element C  Has Mass   12.00000
   Atom   15 Element C  Has Mass   12.00000
   Atom   16 Element C  Has Mass   12.00000
   Atom   17 Element C  Has Mass   12.00000
   Atom   18 Element H  Has Mass    1.00783
   Atom   19 Element H  Has Mass    1.00783
   Atom   20 Element H  Has Mass    1.00783
   Atom   21 Element H  Has Mass    1.00783
   Atom   22 Element H  Has Mass    1.00783
   Atom   23 Element H  Has Mass    1.00783
   Atom   24 Element H  Has Mass    1.00783
   Atom   25 Element H  Has Mass    1.00783
   Atom   26 Element H  Has Mass    1.00783
   Atom   27 Element H  Has Mass    1.00783
   Atom   28 Element H  Has Mass    1.00783
   Atom   29 Element H  Has Mass    1.00783
   Atom   30 Element H  Has Mass    1.00783
   Atom   31 Element H  Has Mass    1.00783
   Atom   32 Element H  Has Mass    1.00783
   Atom   33 Element H  Has Mass    1.00783
   Atom   34 Element H  Has Mass    1.00783
   Atom   35 Element H  Has Mass    1.00783
   Molecular Mass:   238.120580 amu
   Principal axes and moments of inertia in amu*Bohr^2:
                             1           2           3
    Eigenvalues --     3075.20943  3316.98583  4466.11929
          X               0.99836     0.05421    -0.01866
          Y              -0.05462     0.99827    -0.02198
          Z               0.01743     0.02296     0.99958
   Rotational Symmetry Number is   1
   The Molecule is an Asymmetric Top
   Translational Enthalpy:        0.889 kcal/mol
   Rotational Enthalpy:           0.889 kcal/mol
   Vibrational Enthalpy:        192.676 kcal/mol
   gas constant (RT):             0.592 kcal/mol
   Translational Entropy:        42.304  cal/mol.K
   Rotational Entropy:           32.188  cal/mol.K
   Vibrational Entropy:          54.568  cal/mol.K

   Total Enthalpy:              195.046 kcal/mol
   Total Entropy:               129.060  cal/mol.K
Archival summary:
1\1\nid05661\FREQ\ProcedureUnspecified\BasisUnspecified\41318\junteng\FriOct2000:24:322017FriOct2000:24:322017\0\\#,FREQ,ProcedureUnspecified,BasisUnspecified,\\0,1\O\C,1,1.206\O,2,1.35414,1,122.052\C,3,1.43837,2,115.959,1,-0.709213,0\H,4,1.08796,3,105.391,2,179.657,0\H,4,1.09087,3,110.562,2,60.0621,0\H,4,1.09133,3,110.516,2,-60.8145,0\C,2,1.52887,1,126.891,3,-174.926,0\C,8,1.53745,2,110.002,1,-143.191,0\H,9,1.08914,8,110.042,2,-56.4961,0\H,9,1.0892,8,111.154,2,-176.424,0\H,9,1.09248,8,111.381,2,63.0729,0\C,8,1.6014,2,113.976,1,-13.4265,0\C,13,1.53051,8,115.679,2,-9.41291,0\O,14,1.20591,13,125.205,8,120.217,0\O,14,1.35103,13,111.147,8,-66.3845,0\C,16,1.43688,14,115.5,13,176.007,0\H,17,1.08818,16,105.61,14,178.48,0\H,17,1.09081,16,110.663,14,58.6297,0\H,17,1.09127,16,109.635,14,-62.2848,0\C,13,1.54927,8,114.006,2,-130.85,0\H,21,1.08881,13,111.633,8,60.3473,0\H,21,1.08898,13,112.063,8,-61.7998,0\H,21,1.09335,13,108.94,8,179.472,0\C,13,1.57911,8,102.204,2,111.268,0\H,25,1.08878,13,112.394,8,165.143,0\C,25,1.51938,13,108.686,8,-65.2433,0\H,27,1.0795,25,124.469,13,-101.91,0\C,27,1.33604,25,107.562,13,71.5999,0\H,29,1.08212,27,127.25,25,-172.962,0\C,29,1.52057,27,107.337,25,-0.933254,0\H,31,1.08933,29,116.64,27,163.261,0\C,31,1.5407,29,99.7793,27,34.8523,0\H,33,1.09079,31,111.907,29,64.2757,0\H,33,1.0908,31,114.435,29,-170.863,0\\\@

 Total job time:  14929.89s(wall), 89709.83s(cpu) 
 Fri Oct 20 00:24:32 2017

        *************************************************************
        *                                                           *
        *  Thank you very much for using Q-Chem.  Have a nice day.  *
        *                                                           *
        *************************************************************


