                  Welcome to Q-Chem
     A Quantum Leap Into The Future Of Chemistry


 Q-Chem 4.4, Q-Chem, Inc., Pleasanton, CA (2016)

 Y. Shao,  Z. Gan,  E. Epifanovsky,  A. T. B. Gilbert,  M. Wormit,  
 J. Kussmann,  A. W. Lange,  A. Behn,  J. Deng,  X. Feng,  D. Ghosh,  
 M. Goldey,  P. R. Horn,  L. D. Jacobson,  I. Kaliman,  R. Z. Khaliullin,  
 T. Kus,  A. Landau,  J. Liu,  E. I. Proynov,  Y. M. Rhee,  R. M. Richard,  
 M. A. Rohrdanz,  R. P. Steele,  E. J. Sundstrom,  H. L. Woodcock III,  
 P. M. Zimmerman,  D. Zuev,  B. Albrecht,  E. Alguire,  B. Austin,  
 S. A. Baeppler,  G. J. O. Beran,  Y. A. Bernard,  E. Berquist,  
 K. Brandhorst,  K. B. Bravaya,  S. T. Brown,  D. Casanova,  C.-M. Chang,  
 Y. Chen,  S. H. Chien,  K. D. Closser,  M. P. Coons,  D. L. Crittenden,  
 S. Dasgupta,  M. Diedenhofen,  R. A. DiStasio Jr.,  H. Do,  A. D. Dutoi,  
 R. G. Edgar,  P.-T. Fang,  S. Fatehi,  Q. Feng,  L. Fusti-Molnar,  
 A. Ghysels,  A. Golubeva-Zadorozhnaya,  J. Gomes,  A. Gunina,  
 M. W. D. Hanson-Heine,  P. H. P. Harbach,  A. W. Hauser,  E. G. Hohenstein,  
 Z. C. Holden,  K. Hui,  T.-C. Jagau,  H. Ji,  B. Kaduk,  K. Khistyaev,  
 Jaehoon Kim,  Jihan Kim,  R. A. King,  P. Klunzinger,  D. Kosenkov,  
 T. Kowalczyk,  C. M. Krauter,  A. Kunitsa,  K. U. Lao,  A. Laurent,  
 K. V. Lawler,  D. Lefrancois,  S. Lehtola,  S. V. Levchenko,  C. Y. Lin,  
 Y.-S. Lin,  F. Liu,  E. Livshits,  R. C. Lochan,  A. Luenser,  P. Manohar,  
 S. F. Manzer,  S.-P. Mao,  Y. Mao,  N. Mardirossian,  A. V. Marenich,  
 L. A. Martinez-Martinez,  S. A. Maurer,  N. J. Mayhall,  J.-M. Mewes,  
 A. F. Morrison,  K. Nanda,  C. M. Oana,  R. Olivares-Amaya,  D. P. O'Neill,  
 J. A. Parkhill,  T. M. Perrine,  R. Peverati,  P. A. Pieniazek,  F. Plasser,  
 A. Prociuk,  D. R. Rehn,  E. Rosta,  N. J. Russ,  N. Sergueev,  
 S. M. Sharada,  S. Sharma,  D. W. Small,  A. Sodt,  T. Stauch,  T. Stein,  
 D. Stuck,  Y.-C. Su,  A. J. W. Thom,  T. Tsuchimochi,  L. Vogt,  O. Vydrov,  
 T. Wang,  M. A. Watson,  J. Wenzel,  A. White,  C. F. Williams,  
 V. Vanovschi,  S. Yeganeh,  S. R. Yost,  Z.-Q. You,  I. Y. Zhang,  X. Zhang,  
 Y. Zhao,  B. R. Brooks,  G. K. L. Chan,  D. M. Chipman,  C. J. Cramer,  
 W. A. Goddard III,  M. S. Gordon,  W. J. Hehre,  A. Klamt,  
 H. F. Schaefer III,  M. W. Schmidt,  C. D. Sherrill,  D. G. Truhlar,  
 A. Warshel,  X. Xu,  A. Aspuru-Guzik,  R. Baer,  A. T. Bell,  N. A. Besley,  
 J.-D. Chai,  A. Dreuw,  B. D. Dunietz,  T. R. Furlani,  S. R. Gwaltney,  
 C.-P. Hsu,  Y. Jung,  J. Kong,  D. S. Lambrecht,  W. Liang,  C. Ochsenfeld,  
 V. A. Rassolov,  L. V. Slipchenko,  J. E. Subotnik,  T. Van Voorhis,  
 J. M. Herbert,  A. I. Krylov,  P. M. W. Gill,  M. Head-Gordon

 Contributors to earlier versions of Q-Chem not listed above: 
 R. D. Adamson,  J. Baker,  E. F. C. Byrd,  A. K. Chakraborty,  C.-L. Cheng,  
 H. Dachsel,  R. J. Doerksen,  G. Hawkins,  A. Heyden,  S. Hirata,  
 G. Kedziora,  F. J. Keil,  C. Kelley,  P. P. Korambath,  W. Kurlancheek,  
 A. M. Lee,  M. S. Lee,  D. Liotard,  I. Lotan,  P. E. Maslen,  N. Nair,  
 D. Neuhauser,  R. Olson,  B. Peters,  J. Ritchie,  N. E. Schultz,  
 N. Shenvi,  A. C. Simmonett,  K. S. Thanthiriwatte,  Q. Wu,  W. Zhang

 Please cite Q-Chem as follows:
 Y. Shao et al., Mol. Phys. 113, 184-215 (2015)
 DOI: 10.1080/00268976.2014.952696

 Q-Chem 4.3.0 for Intel X86 EM64T Linux

 Parts of Q-Chem use Armadillo 5.200.1 (Boston Tea Smuggler).
 http://arma.sourceforge.net/

 Q-Chem begins on Mon Oct  2 23:34:39 2017  

Host: nid06079
0

     Scratch files written to /global/cscratch1/sd/junteng/scratch/17/opt_11n01.save//

Checking the input file for inconsistencies... 	...done.

--------------------------------------------------------------
User input:
--------------------------------------------------------------
$molecule
0  1
C    0.469  -2.369   0.246
C   -0.100  -2.666   1.497
C    0.820  -0.970  -0.128
C   -0.250  -1.617   2.525
O    1.710  -0.973  -1.154
O    0.353   0.027   0.395
O    0.994  -1.244   2.918
O   -1.315  -1.271   3.005
C    0.990  -0.231   3.923
C    2.104   0.331  -1.586
C    0.633  -3.406  -0.690
C    0.237  -4.708  -0.384
C   -0.335  -4.993   0.854
C   -0.510  -3.982   1.810
H    0.475   0.666   3.564
H    1.246   0.871  -1.997
H   -0.645  -6.015   1.070
H    0.524  -0.605   4.840
H    2.028   0.031   4.144
H    2.851   0.214  -2.376
H    2.557   0.890  -0.761
H    0.365  -5.501  -1.118
H    1.053  -3.209  -1.674
C   -1.128  -4.326   3.139
H   -2.093  -3.824   3.253
H   -0.462  -4.036   3.958
H   -1.304  -5.403   3.231
$end


$opt
CONSTRAINT
tors    2    1    3    5    163.6
tors    1    2    4    7    -67.3
ENDCONSTRAINT
$end

$rem
JOBTYPE                   OPT
METHOD                    B3LYP
DFT_D                     EMPIRICAL_GRIMME3
BASIS                     6-31G*
GEOM_OPT_MAX_CYCLES       500
GEOM_OPT_TOL_GRADIENT     5
GEOM_OPT_TOL_DISPLACEMENT 5
GEOM_OPT_TOL_ENERGY       5
SYMMETRY                  False
THRESH                    12
SCF_CONVERGENCE           8
MAX_SUB_FILE_NUM          128
MEM_STATIC                400
MEM_TOTAL                 4000
$end

--------------------------------------------------------------
 ----------------------------------------------------------------
             Standard Nuclear Orientation (Angstroms)
    I     Atom           X                Y                Z
 ----------------------------------------------------------------
    1      C       0.4276448099    -0.8415736243    -0.0588692333
    2      C      -0.8060843738    -0.1694900882    -0.1153229467
    3      C       1.7108516923    -0.1157460900    -0.2752773829
    4      C      -0.8586766063     1.2982395328    -0.2659510208
    5      O       2.7440659004    -0.8386462100     0.2293698371
    6      O       1.8151246914     0.9559824043    -0.8463747267
    7      O      -0.3462610882     1.8472865541     0.8641338013
    8      O      -1.3960448180     1.8760408395    -1.1942408759
    9      C      -0.3453536797     3.2741738433     0.8499267384
   10      C       4.0219453492    -0.2207266872     0.0636122501
   11      C       0.4347697576    -2.2356355990     0.1279500539
   12      C      -0.7617862935    -2.9413211965     0.2541144457
   13      C      -1.9807647890    -2.2699771573     0.1874690522
   14      C      -2.0220088454    -0.8801964136     0.0044651935
   15      H       0.2409006342     3.6507951732     0.0054285126
   16      H       4.2682047510    -0.1351699828    -0.9988007380
   17      H      -2.9041102496    -2.8410186193     0.2801232975
   18      H      -1.3703322120     3.6561049330     0.8116037554
   19      H       0.1193667722     3.6218521173     1.7762548225
   20      H       4.7702630880    -0.8580083794     0.5428727289
   21      H       4.0413877155     0.7607414868     0.5480265539
   22      H      -0.7435362013    -4.0202578732     0.3939414170
   23      H       1.3701157423    -2.7903072772     0.1584823066
   24      C      -3.3565948521    -0.1864117253    -0.0591272334
   25      H      -3.5169381685     0.2431909134    -1.0520807034
   26      H      -3.4152264497     0.6020259728     0.6980684692
   27      H      -4.1788259208    -0.8832659350     0.1350357913
 ----------------------------------------------------------------
 Molecular Point Group                 C1    NOp =  1
 Largest Abelian Subgroup              C1    NOp =  1
 Nuclear Repulsion Energy =  1009.1930544058 hartrees
 There are       55 alpha and       55 beta electrons
 Requested basis set is 6-31G(d)
 There are 84 shells and 249 basis functions

 Total QAlloc Memory Limit   4000 MB
 Mega-Array Size       392 MB
 MEM_STATIC part       400 MB
 A cutoff of  1.0D-12 yielded   2775 shell pairs
 There are     26687 function pairs
 
 -------------------------------------------------------
 OpenMP Integral Computing Module                       
 Release: version 1.0, May 2013, Q-Chem Inc. Pittsburgh 
 -------------------------------------------------------
 Integral Job Info:
 Integral job number is                      11
 Integral operator is                         1
 short-range coefficients                     0
 long-range coefficients              100000000
 Omega coefficients                           0
 if combine SR and LR in K                    0
 Integral screening is                        0
 Integral computing path is                   2
 max size of driver memory is            800000
 size of driver memory is                593474
 size of scratch memory is              2260544
 max col of scratch BK array               1296
 max len of scratch array in speh3          155
 max len of scratch index in speh4           18
 max int batch size is                      520
 min int batch size is                       52
 fixed nKL is                                52
 max L of basis functions is                  2
 order of int derivative is                   0
 number of shells is                         84
 number of basis is                         249
 number of cartesian basis is               249
 number of contracted shell pairs          2775
 number of primitive shell pairs           9859
 maxK2 (contraction) of shell pair           36
 max number of K2 of shell pair               1
 max number of CS2 of shell pair            321
 max number of PS2 of shell pair           1668
 mem total for path MDJ                   77992
 -------------------------------------------------------
 Smallest overlap matrix eigenvalue = 3.26E-04

 Scale SEOQF with 1.000000e-01/1.000000e-01/1.000000e-01

 Standard Electronic Orientation quadrupole field applied
 Nucleus-field energy     =     0.0000000367 hartrees
 Guess from superposition of atomic densities
 Warning:  Energy on first SCF cycle will be non-variational
 A restricted hybrid HF-DFT SCF calculation will be
 performed using Pulay DIIS extrapolation
 Exchange:     0.2000 Hartree-Fock + 0.0800 Slater + 0.7200 B88
 Correlation:  0.1900 VWN1RPA + 0.8100 LYP
 Using SG-1 standard quadrature grid
 Dispersion:   Grimme D3
 SCF converges when DIIS error is below 1.0E-08
 using 24 threads for integral computing 
 -------------------------------------------------------
 OpenMP BLAS3 based DFT computing Module                
 Release: version 1.0, May 2013, Q-Chem Inc. Pittsburgh 
 -------------------------------------------------------
 ---------------------------------------
  Cycle       Energy         DIIS Error
 ---------------------------------------
    1    -730.4008777258      5.07E-02
    2    -727.0585715490      6.43E-03
    3    -726.5352254080      1.15E-02
    4    -727.2870438196      2.58E-03
    5    -727.3300483587      6.71E-04
    6    -727.3322926293      2.63E-04
    7    -727.3327198012      6.24E-05
    8    -727.3327433798      2.58E-05
    9    -727.3327484797      6.40E-06
   10    -727.3327487811      1.47E-06
   11    -727.3327487963      5.37E-07
   12    -727.3327487978      3.04E-07
   13    -727.3327487983      8.87E-08
   14    -727.3327487984      1.76E-08
   15    -727.3327487984      9.66E-09 Convergence criterion met
 ---------------------------------------
 SCF time:  CPU 213.14 s  wall 10.96 s
 SCF   energy in the final basis set = -727.3327487984
 Total energy in the final basis set = -727.3327487984
 
 --------------------------------------------------------------
 
                    Orbital Energies (a.u.)
 --------------------------------------------------------------
 
 Alpha MOs
 -- Occupied --
-19.199 -19.191 -19.141 -19.135 -10.321 -10.313 -10.243 -10.233
-10.214 -10.212 -10.210 -10.201 -10.201 -10.200 -10.184  -1.106
 -1.096  -1.018  -1.012  -0.872  -0.790  -0.781  -0.739  -0.715
 -0.689  -0.643  -0.614  -0.571  -0.562  -0.530  -0.507  -0.493
 -0.484  -0.477  -0.469  -0.467  -0.453  -0.433  -0.427  -0.417
 -0.410  -0.404  -0.389  -0.383  -0.368  -0.361  -0.357  -0.354
 -0.348  -0.309  -0.296  -0.281  -0.275  -0.257  -0.248
 -- Virtual --
 -0.049  -0.020   0.025   0.050   0.093   0.110   0.112   0.124
  0.134   0.136   0.152   0.153   0.159   0.164   0.170   0.174
  0.182   0.188   0.200   0.226   0.249   0.263   0.284   0.288
  0.313   0.340   0.361   0.386   0.397   0.418   0.487   0.500
  0.506   0.513   0.523   0.526   0.542   0.545   0.552   0.558
  0.559   0.573   0.575   0.589   0.601   0.608   0.619   0.631
  0.642   0.646   0.665   0.687   0.703   0.721   0.730   0.740
  0.751   0.771   0.783   0.812   0.820   0.821   0.839   0.845
  0.855   0.857   0.867   0.875   0.891   0.904   0.907   0.914
  0.930   0.939   0.949   0.954   0.969   0.981   0.993   1.001
  1.028   1.059   1.068   1.092   1.107   1.117   1.145   1.159
  1.186   1.203   1.228   1.242   1.243   1.293   1.314   1.322
  1.362   1.387   1.389   1.407   1.427   1.456   1.462   1.472
  1.482   1.516   1.525   1.533   1.600   1.635   1.655   1.675
  1.699   1.716   1.754   1.771   1.792   1.809   1.817   1.832
  1.847   1.857   1.885   1.890   1.903   1.923   1.947   1.970
  1.985   2.001   2.022   2.026   2.033   2.058   2.065   2.084
  2.098   2.111   2.120   2.142   2.164   2.184   2.201   2.223
  2.265   2.281   2.290   2.295   2.313   2.323   2.331   2.344
  2.380   2.412   2.438   2.466   2.522   2.543   2.584   2.603
  2.623   2.642   2.674   2.682   2.707   2.727   2.765   2.812
  2.823   2.854   2.891   2.948   2.964   2.984   3.071   3.122
  3.167   3.252   3.436   3.976   4.022   4.081   4.099   4.116
  4.218   4.248   4.251   4.271   4.301   4.386   4.430   4.461
  4.605   4.801
 --------------------------------------------------------------
 
          Ground-State Mulliken Net Atomic Charges

     Atom                 Charge (a.u.)
  ----------------------------------------
      1 C                     0.059282
      2 C                     0.033673
      3 C                     0.589449
      4 C                     0.538976
      5 O                    -0.456540
      6 O                    -0.490886
      7 O                    -0.435926
      8 O                    -0.479741
      9 C                    -0.224199
     10 C                    -0.220213
     11 C                    -0.176796
     12 C                    -0.118380
     13 C                    -0.178981
     14 C                     0.136760
     15 H                     0.180744
     16 H                     0.171510
     17 H                     0.135439
     18 H                     0.163681
     19 H                     0.160598
     20 H                     0.164960
     21 H                     0.171728
     22 H                     0.137153
     23 H                     0.156029
     24 C                    -0.529563
     25 H                     0.194578
     26 H                     0.164778
     27 H                     0.151885
  ----------------------------------------
  Sum of atomic charges =    -0.000000

 -----------------------------------------------------------------
                    Cartesian Multipole Moments
 -----------------------------------------------------------------
    Charge (ESU x 10^10)
                 0.0000
    Dipole Moment (Debye)
         X       0.8599      Y      -1.6857      Z       2.2939
       Tot       2.9737
    Quadrupole Moments (Debye-Ang)
        XX     -71.8634     XY       1.8906     YY     -77.4921
        XZ      -1.4810     YZ       6.3485     ZZ     -91.0839
    Octopole Moments (Debye-Ang^2)
       XXX      51.8671    XXY      -8.8686    XYY       0.3397
       YYY      20.8655    XXZ       6.1855    XYZ      -0.9345
       YYZ      19.2291    XZZ       9.6984    YZZ       6.4155
       ZZZ      -0.0386
    Hexadecapole Moments (Debye-Ang^3)
      XXXX   -1892.5836   XXXY      -5.5597   XXYY    -635.0801
      XYYY       5.3302   YYYY   -1468.7140   XXXZ       5.8086
      XXYZ      13.7411   XYYZ     -13.8111   YYYZ      29.0323
      XXZZ    -411.0740   XYZZ      -4.6020   YYZZ    -329.1909
      XZZZ      -0.2434   YZZZ      11.0036   ZZZZ    -240.5931
 -----------------------------------------------------------------
 Calculating analytic gradient of the SCF energy
 Gradient of SCF Energy
            1           2           3           4           5           6
    1   0.0039956   0.0022373   0.0066994   0.0087682  -0.0011777  -0.0047080
    2   0.0109861   0.0170864   0.0015822  -0.0026331  -0.0085641   0.0074296
    3  -0.0004984   0.0025889   0.0010728   0.0028005   0.0021436  -0.0065654
            7           8           9          10          11          12
    1   0.0032239  -0.0094019  -0.0027729  -0.0097597   0.0006580  -0.0024945
    2  -0.0077980  -0.0016280  -0.0121369  -0.0002342   0.0043397  -0.0013971
    3   0.0099451  -0.0155478  -0.0040029  -0.0004951  -0.0004153   0.0009038
           13          14          15          16          17          18
    1  -0.0044019  -0.0021106   0.0031521   0.0009320  -0.0002249  -0.0003799
    2  -0.0014393   0.0052343   0.0008463  -0.0038982  -0.0032001  -0.0002943
    3  -0.0002135   0.0007431   0.0013881  -0.0000220   0.0001197   0.0036021
           19          20          21          22          23          24
    1  -0.0003674   0.0046904   0.0010749  -0.0004786   0.0008590   0.0021353
    2   0.0051934   0.0031389  -0.0009688  -0.0010544  -0.0045502   0.0006207
    3  -0.0010690  -0.0009666   0.0036600   0.0002227   0.0000058   0.0000453
           25          26          27
    1  -0.0000171   0.0013959  -0.0015268
    2  -0.0042756  -0.0034887   0.0011035
    3  -0.0016288   0.0026475  -0.0004644
 Max gradient component =       1.709E-02
 RMS gradient           =       4.759E-03
 Gradient time:  CPU 63.99 s  wall 4.14 s
 Geometry Optimization Parameters
   NAtoms,    NIC,     NZ,  NCons,   NDum,   NFix, NCnnct, MaxDiis
       27     173       0       2       0       0       0       0


** CONSTRAINED OPTIMIZATION IN DELOCALIZED INTERNAL COORDINATES **
   Searching for a Minimum

   Optimization Cycle:   1

                       Coordinates (Angstroms)
     ATOM                X               Y               Z
      1  C         0.4276448099   -0.8415736243   -0.0588692333
      2  C        -0.8060843738   -0.1694900882   -0.1153229467
      3  C         1.7108516923   -0.1157460900   -0.2752773829
      4  C        -0.8586766063    1.2982395328   -0.2659510208
      5  O         2.7440659004   -0.8386462100    0.2293698371
      6  O         1.8151246914    0.9559824043   -0.8463747267
      7  O        -0.3462610882    1.8472865541    0.8641338013
      8  O        -1.3960448180    1.8760408395   -1.1942408759
      9  C        -0.3453536797    3.2741738433    0.8499267384
     10  C         4.0219453492   -0.2207266872    0.0636122501
     11  C         0.4347697576   -2.2356355990    0.1279500539
     12  C        -0.7617862935   -2.9413211965    0.2541144457
     13  C        -1.9807647890   -2.2699771573    0.1874690522
     14  C        -2.0220088454   -0.8801964136    0.0044651935
     15  H         0.2409006342    3.6507951732    0.0054285126
     16  H         4.2682047510   -0.1351699828   -0.9988007380
     17  H        -2.9041102496   -2.8410186193    0.2801232975
     18  H        -1.3703322120    3.6561049330    0.8116037554
     19  H         0.1193667722    3.6218521173    1.7762548225
     20  H         4.7702630880   -0.8580083794    0.5428727289
     21  H         4.0413877155    0.7607414868    0.5480265539
     22  H        -0.7435362013   -4.0202578732    0.3939414170
     23  H         1.3701157423   -2.7903072772    0.1584823066
     24  C        -3.3565948521   -0.1864117253   -0.0591272334
     25  H        -3.5169381685    0.2431909134   -1.0520807034
     26  H        -3.4152264497    0.6020259728    0.6980684692
     27  H        -4.1788259208   -0.8832659350    0.1350357913
   Point Group: c1    Number of degrees of freedom:    75


   Energy is   -727.332748798

              Constraints and their Current Values
                                        Value     Constraint
   Dihedral:        2   1   3   5      160.883      163.600
   Dihedral:        1   2   4   7      -66.511      -67.300

 Attempting to Generate Delocalized Internal Coordinates

   Using Lagrange Multiplier Algorithm


 77 Hessian modes will be used to form the next step
  Hessian Eigenvalues:
    -0.977753   -0.977753    0.045000    0.045000    0.045000    0.045000
     0.045000    0.045000    0.045000    0.045000    0.045000    0.045001
     0.045002    0.045007    0.045012    0.045014    0.045073    0.045391
     0.094103    0.094233    0.113874    0.113890    0.116885    0.116948
     0.159973    0.159992    0.160000    0.160000    0.160000    0.160000
     0.160000    0.160000    0.160000    0.160000    0.160000    0.160000
     0.220831    0.234483    0.248788    0.249003    0.249488    0.249924
     0.249954    0.250000    0.250000    0.250000    0.250000    0.250000
     0.318081    0.334430    0.342234    0.342572    0.342726    0.342778
     0.342982    0.343623    0.343862    0.344084    0.344536    0.348583
     0.349879    0.350317    0.350597    0.408825    0.411215    0.413739
     0.414295    0.441969    0.449403    0.456885    0.464260    0.533072
     0.535839    0.958888    0.961246    1.022753    1.022753

 Minimum Search - Taking P-RFO Step
 Searching for Lamda that Maximizes Along the Constraint modes Only
 Value Taken    Lamda =   0.00132444
 Searching for Lamda that Minimizes Along All other modes
 Value Taken    Lamda =  -0.00993099
 Step Taken.  Stepsize is  0.209131

                             Maximum     Tolerance    Cnvgd?
         Gradient            0.047425       0.000005      NO
         Displacement        0.063155       0.000005      NO
         Energy change     *********       0.000000      NO


 New Cartesian Coordinates Obtained by Inverse Iteration

 Displacement from previous Coordinates is:  0.672203
 ----------------------------------------------------------------
             Standard Nuclear Orientation (Angstroms)
    I     Atom           X                Y                Z
 ----------------------------------------------------------------
    1      C       0.4177915813    -0.9037284537    -0.0045694161
    2      C      -0.8083152231    -0.2149354143    -0.0627333113
    3      C       1.6939238072    -0.1520744965    -0.1998081992
    4      C      -0.8537999198     1.2805178553    -0.2067766659
    5      O       2.7774200834    -0.8446900400     0.2251801579
    6      O       1.7831063783     0.9411163021    -0.7197786273
    7      O      -0.3751196944     1.8996862512     0.8974194925
    8      O      -1.3422339768     1.8766846187    -1.1396320917
    9      C      -0.3394523941     3.3320483025     0.8191042816
   10      C       4.0348366937    -0.1842462139     0.0283660772
   11      C       0.4249322499    -2.2972685074     0.1430101024
   12      C      -0.7765470909    -2.9912140888     0.2353582020
   13      C      -1.9877650153    -2.3019210472     0.1698151952
   14      C      -2.0261105550    -0.9115614132     0.0165719730
   15      H       0.2809093990     3.6520871737    -0.0226213178
   16      H       4.2361334025    -0.0364735591    -1.0368051378
   17      H      -2.9223569501    -2.8528436977     0.2349286704
   18      H      -1.3485584128     3.7410674097     0.7100897468
   19      H       0.1015556134     3.6721053773     1.7587168138
   20      H       4.7860963793    -0.8479252814     0.4617492867
   21      H       4.0492329706     0.7822104025     0.5397327581
   22      H      -0.7691529300    -4.0718552183     0.3482283897
   23      H       1.3649977182    -2.8350649169     0.1704818609
   24      C      -3.3503312202    -0.1840596731    -0.0610477768
   25      H      -3.4837830910     0.2866236167    -1.0395733444
   26      H      -3.4238397429     0.6021651883     0.6988115126
   27      H      -4.1814737047    -0.8777695648     0.1006155335
 ----------------------------------------------------------------
 Molecular Point Group                 C1    NOp =  1
 Largest Abelian Subgroup              C1    NOp =  1
 Nuclear Repulsion Energy =  1007.4897954497 hartrees
 There are       55 alpha and       55 beta electrons
 Applying Cartesian multipole field
    Component          Value
    ---------          -----
     (2,0,0)        1.00000E-11
     (0,2,0)        2.00000E-11
     (0,0,2)       -3.00000E-11
 Nucleus-field energy     =     0.0000000378 hartrees
 Requested basis set is 6-31G(d)
 There are 84 shells and 249 basis functions
 A cutoff of  1.0D-12 yielded   2764 shell pairs
 There are     26511 function pairs
 Smallest overlap matrix eigenvalue = 3.22E-04
 Guess MOs from SCF MO coefficient file
 Reading MOs from coefficient file
 Reading MOs from coefficient file
 A restricted hybrid HF-DFT SCF calculation will be
 performed using Pulay DIIS extrapolation
 Exchange:     0.2000 Hartree-Fock + 0.0800 Slater + 0.7200 B88
 Correlation:  0.1900 VWN1RPA + 0.8100 LYP
 Using SG-1 standard quadrature grid
 Dispersion:   Grimme D3
 SCF converges when DIIS error is below 1.0E-08
 Geometry optimization detected.  Setting ReadMinima to 0
 Setting SaveMinima to 0
 using 24 threads for integral computing 
 -------------------------------------------------------
 OpenMP BLAS3 based DFT computing Module                
 Release: version 1.0, May 2013, Q-Chem Inc. Pittsburgh 
 -------------------------------------------------------
 ---------------------------------------
  Cycle       Energy         DIIS Error
 ---------------------------------------
    1    -727.3388254808      1.87E-03
    2    -727.3364317298      2.23E-04
    3    -727.3361735057      3.19E-04
    4    -727.3368670340      4.94E-05
    5    -727.3368739122      3.66E-05
    6    -727.3368816692      9.29E-06
    7    -727.3368821583      3.13E-06
    8    -727.3368822252      6.14E-07
    9    -727.3368822275      3.15E-07
   10    -727.3368822283      8.46E-08
   11    -727.3368822284      3.20E-08
   12    -727.3368822283      1.42E-08
   13    -727.3368822284      5.06E-09 Convergence criterion met
 ---------------------------------------
 SCF time:  CPU 182.48 s  wall 9.38 s
 SCF   energy in the final basis set = -727.3368822284
 Total energy in the final basis set = -727.3368822284
 
 --------------------------------------------------------------
 
                    Orbital Energies (a.u.)
 --------------------------------------------------------------
 
 Alpha MOs
 -- Occupied --
-19.196 -19.183 -19.138 -19.129 -10.319 -10.311 -10.243 -10.231
-10.216 -10.214 -10.213 -10.203 -10.203 -10.202 -10.185  -1.106
 -1.094  -1.016  -1.006  -0.874  -0.791  -0.780  -0.736  -0.715
 -0.691  -0.643  -0.614  -0.570  -0.561  -0.531  -0.507  -0.491
 -0.482  -0.475  -0.469  -0.462  -0.451  -0.434  -0.425  -0.418
 -0.412  -0.404  -0.392  -0.381  -0.371  -0.361  -0.358  -0.355
 -0.345  -0.306  -0.291  -0.279  -0.273  -0.258  -0.251
 -- Virtual --
 -0.049  -0.020   0.029   0.051   0.092   0.112   0.114   0.124
  0.133   0.135   0.152   0.153   0.158   0.166   0.172   0.174
  0.184   0.188   0.199   0.221   0.248   0.267   0.286   0.299
  0.314   0.339   0.358   0.383   0.395   0.417   0.487   0.499
  0.507   0.515   0.524   0.525   0.541   0.544   0.552   0.557
  0.562   0.574   0.580   0.592   0.601   0.608   0.616   0.633
  0.644   0.646   0.665   0.684   0.702   0.718   0.725   0.743
  0.750   0.773   0.787   0.810   0.820   0.821   0.841   0.845
  0.856   0.858   0.869   0.876   0.893   0.904   0.906   0.914
  0.929   0.941   0.950   0.955   0.974   0.985   0.994   1.003
  1.033   1.057   1.065   1.091   1.104   1.114   1.143   1.154
  1.182   1.202   1.236   1.241   1.244   1.293   1.317   1.330
  1.359   1.379   1.390   1.414   1.432   1.455   1.459   1.478
  1.485   1.514   1.530   1.549   1.614   1.642   1.660   1.677
  1.693   1.726   1.736   1.775   1.791   1.797   1.822   1.825
  1.851   1.859   1.881   1.885   1.903   1.926   1.951   1.973
  1.979   2.017   2.025   2.031   2.035   2.060   2.068   2.086
  2.099   2.116   2.121   2.141   2.159   2.185   2.206   2.226
  2.265   2.278   2.287   2.291   2.311   2.323   2.324   2.340
  2.383   2.408   2.458   2.474   2.509   2.541   2.566   2.603
  2.620   2.639   2.671   2.679   2.706   2.728   2.769   2.812
  2.821   2.853   2.897   2.955   2.970   2.985   3.063   3.129
  3.160   3.245   3.441   3.978   4.019   4.081   4.100   4.113
  4.221   4.242   4.247   4.277   4.303   4.367   4.435   4.464
  4.591   4.802
 --------------------------------------------------------------
 
          Ground-State Mulliken Net Atomic Charges

     Atom                 Charge (a.u.)
  ----------------------------------------
      1 C                     0.061456
      2 C                     0.026251
      3 C                     0.583758
      4 C                     0.538082
      5 O                    -0.462220
      6 O                    -0.487978
      7 O                    -0.442202
      8 O                    -0.475542
      9 C                    -0.217475
     10 C                    -0.216730
     11 C                    -0.178092
     12 C                    -0.119548
     13 C                    -0.180325
     14 C                     0.142825
     15 H                     0.180771
     16 H                     0.171954
     17 H                     0.134907
     18 H                     0.163640
     19 H                     0.159282
     20 H                     0.164438
     21 H                     0.172877
     22 H                     0.139130
     23 H                     0.157894
     24 C                    -0.532069
     25 H                     0.196251
     26 H                     0.167322
     27 H                     0.151344
  ----------------------------------------
  Sum of atomic charges =     0.000000

 -----------------------------------------------------------------
                    Cartesian Multipole Moments
 -----------------------------------------------------------------
    Charge (ESU x 10^10)
                -0.0000
    Dipole Moment (Debye)
         X       0.7736      Y      -1.7950      Z       2.0151
       Tot       2.8073
    Quadrupole Moments (Debye-Ang)
        XX     -71.6759     XY       2.1316     YY     -77.1073
        XZ      -1.6288     YZ       5.8008     ZZ     -90.9022
    Octopole Moments (Debye-Ang^2)
       XXX      50.4584    XXY      -5.7169    XYY      -0.1314
       YYY      23.4157    XXZ       2.4236    XYZ      -1.1666
       YYZ      15.8812    XZZ      10.3659    YZZ       7.7519
       ZZZ      -6.0694
    Hexadecapole Moments (Debye-Ang^3)
      XXXX   -1891.6408   XXXY      -7.0956   XXYY    -640.7316
      XYYY      -1.3510   YYYY   -1504.9787   XXXZ       1.4668
      XXYZ       9.4909   XYYZ     -12.1452   YYYZ      22.9098
      XXZZ    -408.1826   XYZZ      -5.6216   YYZZ    -335.8827
      XZZZ      -1.0062   YZZZ       4.0762   ZZZZ    -225.6886
 -----------------------------------------------------------------
 Calculating analytic gradient of the SCF energy
 Gradient of SCF Energy
            1           2           3           4           5           6
    1  -0.0007657  -0.0023271  -0.0026624  -0.0000940   0.0034799   0.0014793
    2   0.0005470  -0.0013792   0.0029753  -0.0072256   0.0010629  -0.0031923
    3   0.0002732   0.0001709   0.0016347  -0.0042564  -0.0014150  -0.0001836
            7           8           9          10          11          12
    1  -0.0002292   0.0018542  -0.0011105  -0.0034685  -0.0001683   0.0010230
    2   0.0048956   0.0026606  -0.0020438   0.0013779  -0.0001631  -0.0003374
    3   0.0002984   0.0030578  -0.0014858  -0.0009200  -0.0004920   0.0003852
           13          14          15          16          17          18
    1  -0.0012471   0.0010925   0.0008673   0.0011344   0.0003950  -0.0001998
    2   0.0005886  -0.0008213   0.0006703  -0.0010368  -0.0001386   0.0005402
    3  -0.0000115   0.0002513   0.0007444  -0.0000408  -0.0002236   0.0013313
           19          20          21          22          23          24
    1   0.0002898   0.0009859   0.0007351   0.0003821  -0.0010723   0.0010590
    2   0.0014886   0.0001553  -0.0004087  -0.0000710  -0.0011581   0.0026792
    3   0.0001693   0.0001572   0.0010064   0.0000441  -0.0003461  -0.0003932
           25          26          27
    1  -0.0008206  -0.0004967  -0.0001151
    2  -0.0011062  -0.0007293   0.0001699
    3  -0.0003912   0.0006897  -0.0000545
 Max gradient component =       7.226E-03
 RMS gradient           =       1.659E-03
 Gradient time:  CPU 62.89 s  wall 3.77 s
 Geometry Optimization Parameters
   NAtoms,    NIC,     NZ,  NCons,   NDum,   NFix, NCnnct, MaxDiis
       27     173       0       2       0       0       0       0

 Cartesian Hessian Update
 Hessian Updated using BFGS Update


** CONSTRAINED OPTIMIZATION IN DELOCALIZED INTERNAL COORDINATES **
   Searching for a Minimum

   Optimization Cycle:   2

                       Coordinates (Angstroms)
     ATOM                X               Y               Z
      1  C         0.4177915813   -0.9037284537   -0.0045694161
      2  C        -0.8083152231   -0.2149354143   -0.0627333113
      3  C         1.6939238072   -0.1520744965   -0.1998081992
      4  C        -0.8537999198    1.2805178553   -0.2067766659
      5  O         2.7774200834   -0.8446900400    0.2251801579
      6  O         1.7831063783    0.9411163021   -0.7197786273
      7  O        -0.3751196944    1.8996862512    0.8974194925
      8  O        -1.3422339768    1.8766846187   -1.1396320917
      9  C        -0.3394523941    3.3320483025    0.8191042816
     10  C         4.0348366937   -0.1842462139    0.0283660772
     11  C         0.4249322499   -2.2972685074    0.1430101024
     12  C        -0.7765470909   -2.9912140888    0.2353582020
     13  C        -1.9877650153   -2.3019210472    0.1698151952
     14  C        -2.0261105550   -0.9115614132    0.0165719730
     15  H         0.2809093990    3.6520871737   -0.0226213178
     16  H         4.2361334025   -0.0364735591   -1.0368051378
     17  H        -2.9223569501   -2.8528436977    0.2349286704
     18  H        -1.3485584128    3.7410674097    0.7100897468
     19  H         0.1015556134    3.6721053773    1.7587168138
     20  H         4.7860963793   -0.8479252814    0.4617492867
     21  H         4.0492329706    0.7822104025    0.5397327581
     22  H        -0.7691529300   -4.0718552183    0.3482283897
     23  H         1.3649977182   -2.8350649169    0.1704818609
     24  C        -3.3503312202   -0.1840596731   -0.0610477768
     25  H        -3.4837830910    0.2866236167   -1.0395733444
     26  H        -3.4238397429    0.6021651883    0.6988115126
     27  H        -4.1814737047   -0.8777695648    0.1006155335
   Point Group: c1    Number of degrees of freedom:    75


   Energy is   -727.336882228

              Constraints and their Current Values
                                        Value     Constraint
   Dihedral:        2   1   3   5      163.585      163.600
   Dihedral:        1   2   4   7      -67.297      -67.300
 Hessian Updated using BFGS Update

   Using Lagrange Multiplier Algorithm


 65 Hessian modes will be used to form the next step
  Hessian Eigenvalues:
    -0.978072   -0.977571    0.043580    0.045000    0.045000    0.045000
     0.045000    0.045000    0.045002    0.045003    0.045007    0.045009
     0.045046    0.045079    0.045618    0.092708    0.094225    0.111419
     0.113886    0.116874    0.116952    0.150624    0.159980    0.159994
     0.160000    0.161190    0.220810    0.233172    0.247190    0.249060
     0.249385    0.249646    0.249957    0.249963    0.250000    0.306866
     0.320656    0.335813    0.342237    0.342539    0.342715    0.342753
     0.342954    0.343613    0.343762    0.343866    0.344393    0.348588
     0.350304    0.350540    0.364003    0.409453    0.410705    0.413502
     0.415826    0.441529    0.449018    0.456970    0.465929    0.531899
     0.536035    0.959359    0.970543    1.022612    1.023366

 Minimum Search - Taking P-RFO Step
 Searching for Lamda that Maximizes Along the Constraint modes Only
 Value Taken    Lamda =   0.00000328
 Searching for Lamda that Minimizes Along All other modes
 Value Taken    Lamda =  -0.00068121
 Step Taken.  Stepsize is  0.076215

                             Maximum     Tolerance    Cnvgd?
         Gradient            0.003812       0.000005      NO
         Displacement        0.025301       0.000005      NO
         Energy change     -0.004133       0.000000      NO


 New Cartesian Coordinates Obtained by Inverse Iteration

 Displacement from previous Coordinates is:  0.182620
 ----------------------------------------------------------------
             Standard Nuclear Orientation (Angstroms)
    I     Atom           X                Y                Z
 ----------------------------------------------------------------
    1      C       0.4167440456    -0.8931190026    -0.0084774940
    2      C      -0.8113309550    -0.2077056610    -0.0598992415
    3      C       1.6903627330    -0.1411248804    -0.1994580461
    4      C      -0.8693971704     1.2877253076    -0.2046516362
    5      O       2.7646078506    -0.8469202054     0.2227267740
    6      O       1.7778312609     0.9651428204    -0.6938448496
    7      O      -0.3877141778     1.8999937238     0.8981751949
    8      O      -1.3654696170     1.8693500590    -1.1431147732
    9      C      -0.3317119188     3.3310368629     0.8112783512
   10      C       4.0304531956    -0.1982090643     0.0344500308
   11      C       0.4329973312    -2.2851518066     0.1364481070
   12      C      -0.7651756218    -2.9856681244     0.2278484246
   13      C      -1.9786966262    -2.3013650357     0.1677579210
   14      C      -2.0254411618    -0.9108989408     0.0194335464
   15      H       0.2966813340     3.6305560251    -0.0317299782
   16      H       4.2258531069    -0.0363851070    -1.0296278431
   17      H      -2.9122137075    -2.8542560884     0.2351363541
   18      H      -1.3339577784     3.7501327928     0.6828421841
   19      H       0.1057421933     3.6617986535     1.7546039756
   20      H       4.7702384072    -0.8770205542     0.4615698910
   21      H       4.0487586461     0.7656494209     0.5500131905
   22      H      -0.7549407726    -4.0662661705     0.3388209353
   23      H       1.3818182394    -2.8077166458     0.1646709620
   24      C      -3.3528820676    -0.1903369177    -0.0535453481
   25      H      -3.4833354424     0.2900656359    -1.0278086605
   26      H      -3.4258838270     0.5966316023     0.7057446055
   27      H      -4.1818411437    -0.8872577876     0.1054715884
 ----------------------------------------------------------------
 Molecular Point Group                 C1    NOp =  1
 Largest Abelian Subgroup              C1    NOp =  1
 Nuclear Repulsion Energy =  1008.3627634725 hartrees
 There are       55 alpha and       55 beta electrons
 Applying Cartesian multipole field
    Component          Value
    ---------          -----
     (2,0,0)        1.00000E-11
     (0,2,0)        2.00000E-11
     (0,0,2)       -3.00000E-11
 Nucleus-field energy     =     0.0000000378 hartrees
 Requested basis set is 6-31G(d)
 There are 84 shells and 249 basis functions
 A cutoff of  1.0D-12 yielded   2767 shell pairs
 There are     26554 function pairs
 Smallest overlap matrix eigenvalue = 3.22E-04
 Guess MOs from SCF MO coefficient file
 Reading MOs from coefficient file
 Reading MOs from coefficient file
 A restricted hybrid HF-DFT SCF calculation will be
 performed using Pulay DIIS extrapolation
 Exchange:     0.2000 Hartree-Fock + 0.0800 Slater + 0.7200 B88
 Correlation:  0.1900 VWN1RPA + 0.8100 LYP
 Using SG-1 standard quadrature grid
 Dispersion:   Grimme D3
 SCF converges when DIIS error is below 1.0E-08
 Geometry optimization detected.  Setting ReadMinima to 0
 Setting SaveMinima to 0
 using 24 threads for integral computing 
 -------------------------------------------------------
 OpenMP BLAS3 based DFT computing Module                
 Release: version 1.0, May 2013, Q-Chem Inc. Pittsburgh 
 -------------------------------------------------------
 ---------------------------------------
  Cycle       Energy         DIIS Error
 ---------------------------------------
    1    -727.3404070409      5.19E-04
    2    -727.3372267370      5.12E-05
    3    -727.3372072875      7.88E-05
    4    -727.3372502606      1.56E-05
    5    -727.3372517257      7.05E-06
    6    -727.3372520024      3.28E-06
    7    -727.3372520612      1.05E-06
    8    -727.3372520685      2.61E-07
    9    -727.3372520690      7.06E-08
   10    -727.3372520690      2.28E-08
   11    -727.3372520690      7.36E-09 Convergence criterion met
 ---------------------------------------
 SCF time:  CPU 156.07 s  wall 8.10 s
 SCF   energy in the final basis set = -727.3372520690
 Total energy in the final basis set = -727.3372520690
 
 --------------------------------------------------------------
 
                    Orbital Energies (a.u.)
 --------------------------------------------------------------
 
 Alpha MOs
 -- Occupied --
-19.196 -19.185 -19.138 -19.130 -10.319 -10.311 -10.243 -10.231
-10.214 -10.213 -10.212 -10.202 -10.202 -10.201 -10.185  -1.106
 -1.095  -1.016  -1.008  -0.874  -0.791  -0.779  -0.737  -0.715
 -0.690  -0.643  -0.614  -0.570  -0.561  -0.531  -0.507  -0.491
 -0.482  -0.475  -0.469  -0.463  -0.451  -0.434  -0.424  -0.418
 -0.412  -0.403  -0.392  -0.381  -0.371  -0.360  -0.358  -0.354
 -0.346  -0.307  -0.291  -0.279  -0.274  -0.258  -0.250
 -- Virtual --
 -0.049  -0.019   0.029   0.052   0.093   0.112   0.114   0.124
  0.134   0.136   0.153   0.154   0.158   0.166   0.172   0.174
  0.184   0.188   0.200   0.222   0.250   0.268   0.287   0.297
  0.315   0.340   0.359   0.384   0.396   0.417   0.488   0.499
  0.507   0.515   0.524   0.525   0.542   0.545   0.551   0.556
  0.562   0.575   0.580   0.592   0.602   0.608   0.616   0.634
  0.644   0.646   0.665   0.683   0.702   0.717   0.725   0.743
  0.750   0.770   0.787   0.810   0.820   0.822   0.842   0.846
  0.856   0.859   0.869   0.875   0.893   0.906   0.907   0.915
  0.930   0.942   0.950   0.956   0.976   0.985   0.995   1.004
  1.032   1.057   1.064   1.091   1.105   1.115   1.144   1.154
  1.183   1.203   1.239   1.243   1.247   1.297   1.319   1.332
  1.360   1.379   1.389   1.412   1.433   1.457   1.459   1.479
  1.486   1.516   1.530   1.551   1.614   1.643   1.660   1.677
  1.694   1.725   1.737   1.776   1.791   1.798   1.823   1.827
  1.850   1.860   1.884   1.887   1.904   1.926   1.950   1.973
  1.979   2.015   2.023   2.031   2.034   2.061   2.072   2.089
  2.100   2.118   2.123   2.142   2.160   2.186   2.207   2.227
  2.265   2.277   2.288   2.291   2.308   2.323   2.324   2.342
  2.384   2.412   2.457   2.473   2.510   2.542   2.570   2.607
  2.621   2.639   2.672   2.684   2.708   2.731   2.771   2.812
  2.823   2.855   2.897   2.956   2.970   2.985   3.065   3.130
  3.162   3.249   3.444   3.978   4.021   4.082   4.100   4.114
  4.224   4.244   4.248   4.279   4.304   4.370   4.433   4.466
  4.602   4.803
 --------------------------------------------------------------
 
          Ground-State Mulliken Net Atomic Charges

     Atom                 Charge (a.u.)
  ----------------------------------------
      1 C                     0.058990
      2 C                     0.025326
      3 C                     0.586519
      4 C                     0.538341
      5 O                    -0.461886
      6 O                    -0.491280
      7 O                    -0.439811
      8 O                    -0.475892
      9 C                    -0.218726
     10 C                    -0.217078
     11 C                    -0.176820
     12 C                    -0.120872
     13 C                    -0.179939
     14 C                     0.143207
     15 H                     0.181620
     16 H                     0.172097
     17 H                     0.134215
     18 H                     0.164550
     19 H                     0.159980
     20 H                     0.165234
     21 H                     0.173349
     22 H                     0.138685
     23 H                     0.158284
     24 C                    -0.532710
     25 H                     0.196549
     26 H                     0.166825
     27 H                     0.151245
  ----------------------------------------
  Sum of atomic charges =     0.000000

 -----------------------------------------------------------------
                    Cartesian Multipole Moments
 -----------------------------------------------------------------
    Charge (ESU x 10^10)
                -0.0000
    Dipole Moment (Debye)
         X       0.8659      Y      -1.7515      Z       2.0012
       Tot       2.7969
    Quadrupole Moments (Debye-Ang)
        XX     -71.7357     XY       1.9965     YY     -77.2098
        XZ      -1.6735     YZ       5.7359     ZZ     -90.8192
    Octopole Moments (Debye-Ang^2)
       XXX      51.8284    XXY      -6.5583    XYY       0.2000
       YYY      23.2951    XXZ       2.6017    XYZ      -1.2869
       YYZ      15.6067    XZZ      10.9093    YZZ       7.6450
       ZZZ      -6.1770
    Hexadecapole Moments (Debye-Ang^3)
      XXXX   -1890.7420   XXXY      -7.3040   XXYY    -639.6243
      XYYY      -0.2036   YYYY   -1504.6056   XXXZ       0.5063
      XXYZ       8.9080   XYYZ     -12.1207   YYYZ      22.2750
      XXZZ    -407.5420   XYZZ      -4.6244   YYZZ    -334.9325
      XZZZ      -2.4119   YZZZ       3.9846   ZZZZ    -223.5407
 -----------------------------------------------------------------
 Calculating analytic gradient of the SCF energy
 Gradient of SCF Energy
            1           2           3           4           5           6
    1   0.0002660  -0.0009355  -0.0003921  -0.0006317   0.0010620  -0.0004287
    2  -0.0007171  -0.0006426   0.0010058  -0.0011447  -0.0003568  -0.0009592
    3   0.0006879   0.0008824  -0.0004213  -0.0029296  -0.0001288   0.0000192
            7           8           9          10          11          12
    1   0.0006523   0.0006878  -0.0006216  -0.0012409   0.0004013   0.0002202
    2   0.0025721   0.0001251  -0.0012556   0.0005728   0.0007282   0.0000720
    3   0.0016739   0.0009025  -0.0009060  -0.0001406  -0.0004679   0.0000459
           13          14          15          16          17          18
    1  -0.0001622   0.0004061  -0.0000391   0.0001824   0.0001206  -0.0000466
    2   0.0003250  -0.0005436   0.0000990  -0.0002850   0.0001760   0.0000387
    3  -0.0000512   0.0001030   0.0001077   0.0000536  -0.0001288   0.0002858
           19          20          21          22          23          24
    1   0.0002366   0.0000458   0.0000862   0.0001602  -0.0000510   0.0005764
    2  -0.0002166  -0.0002904  -0.0001617   0.0000928  -0.0000828   0.0014902
    3   0.0003260   0.0002620   0.0000700   0.0000439  -0.0001939  -0.0001612
           25          26          27
    1  -0.0002727  -0.0001809  -0.0001012
    2  -0.0003034  -0.0001969  -0.0001414
    3  -0.0000744   0.0000639   0.0000761
 Max gradient component =       2.930E-03
 RMS gradient           =       6.864E-04
 Gradient time:  CPU 63.30 s  wall 3.82 s
 Geometry Optimization Parameters
   NAtoms,    NIC,     NZ,  NCons,   NDum,   NFix, NCnnct, MaxDiis
       27     173       0       2       0       0       0       0

 Cartesian Hessian Update
 Hessian Updated using BFGS Update


** CONSTRAINED OPTIMIZATION IN DELOCALIZED INTERNAL COORDINATES **
   Searching for a Minimum

   Optimization Cycle:   3

                       Coordinates (Angstroms)
     ATOM                X               Y               Z
      1  C         0.4167440456   -0.8931190026   -0.0084774940
      2  C        -0.8113309550   -0.2077056610   -0.0598992415
      3  C         1.6903627330   -0.1411248804   -0.1994580461
      4  C        -0.8693971704    1.2877253076   -0.2046516362
      5  O         2.7646078506   -0.8469202054    0.2227267740
      6  O         1.7778312609    0.9651428204   -0.6938448496
      7  O        -0.3877141778    1.8999937238    0.8981751949
      8  O        -1.3654696170    1.8693500590   -1.1431147732
      9  C        -0.3317119188    3.3310368629    0.8112783512
     10  C         4.0304531956   -0.1982090643    0.0344500308
     11  C         0.4329973312   -2.2851518066    0.1364481070
     12  C        -0.7651756218   -2.9856681244    0.2278484246
     13  C        -1.9786966262   -2.3013650357    0.1677579210
     14  C        -2.0254411618   -0.9108989408    0.0194335464
     15  H         0.2966813340    3.6305560251   -0.0317299782
     16  H         4.2258531069   -0.0363851070   -1.0296278431
     17  H        -2.9122137075   -2.8542560884    0.2351363541
     18  H        -1.3339577784    3.7501327928    0.6828421841
     19  H         0.1057421933    3.6617986535    1.7546039756
     20  H         4.7702384072   -0.8770205542    0.4615698910
     21  H         4.0487586461    0.7656494209    0.5500131905
     22  H        -0.7549407726   -4.0662661705    0.3388209353
     23  H         1.3818182394   -2.8077166458    0.1646709620
     24  C        -3.3528820676   -0.1903369177   -0.0535453481
     25  H        -3.4833354424    0.2900656359   -1.0278086605
     26  H        -3.4258838270    0.5966316023    0.7057446055
     27  H        -4.1818411437   -0.8872577876    0.1054715884
   Point Group: c1    Number of degrees of freedom:    75


   Energy is   -727.337252069

              Constraints and their Current Values
                                        Value     Constraint
   Dihedral:        2   1   3   5      163.600      163.600
   Dihedral:        1   2   4   7      -67.300      -67.300
 Hessian Updated using BFGS Update

 59 Hessian modes will be used to form the next step
  Hessian Eigenvalues:
     0.035174    0.045000    0.045000    0.045001    0.045002    0.045005
     0.045007    0.045037    0.045063    0.045575    0.045976    0.090002
     0.094225    0.108569    0.113891    0.116869    0.116951    0.156423
     0.159982    0.159996    0.160588    0.161442    0.220578    0.234439
     0.244355    0.249034    0.249487    0.249845    0.249962    0.249989
     0.250797    0.306480    0.318162    0.340833    0.342468    0.342541
     0.342738    0.342887    0.343009    0.343596    0.343863    0.344331
     0.344958    0.348577    0.350300    0.350529    0.363859    0.408478
     0.410865    0.413700    0.431777    0.444601    0.456770    0.461169
     0.469990    0.522016    0.533865    0.958881    0.961697

 Minimum Search - Taking Simple RFO Step
 Searching for Lamda that Minimizes Along All modes
 Value Taken    Lamda =  -0.00011651
 Step Taken.  Stepsize is  0.046165

                             Maximum     Tolerance    Cnvgd?
         Gradient           0.001291      0.000005      NO
         Displacement       0.020953      0.000005      NO
         Energy change     -0.000370      0.000000      NO


 New Cartesian Coordinates Obtained by Inverse Iteration

 Displacement from previous Coordinates is:  0.141199
 ----------------------------------------------------------------
             Standard Nuclear Orientation (Angstroms)
    I     Atom           X                Y                Z
 ----------------------------------------------------------------
    1      C       0.4128980605    -0.8899192877    -0.0102422400
    2      C      -0.8161670984    -0.2060642052    -0.0590364721
    3      C       1.6873717813    -0.1353482595    -0.1939137996
    4      C      -0.8766558882     1.2894808618    -0.2009275032
    5      O       2.7612663848    -0.8422884039     0.2249736264
    6      O       1.7765445412     0.9764471971    -0.6771191183
    7      O      -0.3951986971     1.8972601258     0.9012903922
    8      O      -1.3722277247     1.8683668976    -1.1420544727
    9      C      -0.3134274560     3.3287783176     0.8083151179
   10      C       4.0281643027    -0.1926356632     0.0352165285
   11      C       0.4304522437    -2.2830152817     0.1355746545
   12      C      -0.7662529932    -2.9866861636     0.2247378089
   13      C      -1.9801612476    -2.3044677797     0.1648220111
   14      C      -2.0295169458    -0.9134772219     0.0187745259
   15      H       0.3311753781     3.6094369913    -0.0290694213
   16      H       4.2151326131    -0.0219917970    -1.0290990329
   17      H      -2.9130001856    -2.8591275970     0.2328565462
   18      H      -1.3062148572     3.7627399450     0.6585041284
   19      H       0.1149897825     3.6602602126     1.7546997152
   20      H       4.7712091473    -0.8721807097     0.4536035540
   21      H       4.0461751924     0.7696044503     0.5540718712
   22      H      -0.7556151017    -4.0673980253     0.3355753497
   23      H       1.3813372317    -2.8015500863     0.1677767862
   24      C      -3.3600485657    -0.2000127920    -0.0522340376
   25      H      -3.4887145134     0.2858012296    -1.0241314540
   26      H      -3.4342871869     0.5860025823     0.7082063514
   27      H      -4.1871318420    -0.8993346254     0.1036627501
 ----------------------------------------------------------------
 Molecular Point Group                 C1    NOp =  1
 Largest Abelian Subgroup              C1    NOp =  1
 Nuclear Repulsion Energy =  1008.3411780101 hartrees
 There are       55 alpha and       55 beta electrons
 Applying Cartesian multipole field
    Component          Value
    ---------          -----
     (2,0,0)        1.00000E-11
     (0,2,0)        2.00000E-11
     (0,0,2)       -3.00000E-11
 Nucleus-field energy     =     0.0000000378 hartrees
 Requested basis set is 6-31G(d)
 There are 84 shells and 249 basis functions
 A cutoff of  1.0D-12 yielded   2768 shell pairs
 There are     26558 function pairs
 Smallest overlap matrix eigenvalue = 3.22E-04
 Guess MOs from SCF MO coefficient file
 Reading MOs from coefficient file
 Reading MOs from coefficient file
 A restricted hybrid HF-DFT SCF calculation will be
 performed using Pulay DIIS extrapolation
 Exchange:     0.2000 Hartree-Fock + 0.0800 Slater + 0.7200 B88
 Correlation:  0.1900 VWN1RPA + 0.8100 LYP
 Using SG-1 standard quadrature grid
 Dispersion:   Grimme D3
 SCF converges when DIIS error is below 1.0E-08
 Geometry optimization detected.  Setting ReadMinima to 0
 Setting SaveMinima to 0
 using 24 threads for integral computing 
 -------------------------------------------------------
 OpenMP BLAS3 based DFT computing Module                
 Release: version 1.0, May 2013, Q-Chem Inc. Pittsburgh 
 -------------------------------------------------------
 ---------------------------------------
  Cycle       Energy         DIIS Error
 ---------------------------------------
    1    -727.3347339255      2.90E-04
    2    -727.3373064854      3.64E-05
    3    -727.3372957724      5.83E-05
    4    -727.3373176900      1.20E-05
    5    -727.3373184913      4.36E-06
    6    -727.3373185911      2.23E-06
    7    -727.3373186255      6.20E-07
    8    -727.3373186283      1.49E-07
    9    -727.3373186285      2.98E-08
   10    -727.3373186285      1.36E-08
   11    -727.3373186285      5.21E-09 Convergence criterion met
 ---------------------------------------
 SCF time:  CPU 153.31 s  wall 7.95 s
 SCF   energy in the final basis set = -727.3373186285
 Total energy in the final basis set = -727.3373186285
 
 --------------------------------------------------------------
 
                    Orbital Energies (a.u.)
 --------------------------------------------------------------
 
 Alpha MOs
 -- Occupied --
-19.196 -19.185 -19.138 -19.130 -10.319 -10.311 -10.243 -10.232
-10.214 -10.213 -10.212 -10.202 -10.202 -10.201 -10.184  -1.106
 -1.095  -1.016  -1.008  -0.873  -0.791  -0.779  -0.737  -0.715
 -0.690  -0.642  -0.613  -0.570  -0.561  -0.531  -0.507  -0.490
 -0.482  -0.476  -0.469  -0.463  -0.451  -0.434  -0.424  -0.419
 -0.412  -0.403  -0.392  -0.381  -0.371  -0.360  -0.358  -0.354
 -0.346  -0.307  -0.292  -0.279  -0.274  -0.258  -0.249
 -- Virtual --
 -0.049  -0.019   0.029   0.052   0.093   0.112   0.115   0.124
  0.133   0.135   0.153   0.154   0.158   0.166   0.172   0.174
  0.184   0.188   0.200   0.223   0.249   0.268   0.286   0.298
  0.315   0.340   0.359   0.384   0.397   0.417   0.487   0.499
  0.508   0.515   0.524   0.525   0.542   0.545   0.550   0.556
  0.561   0.575   0.580   0.592   0.602   0.608   0.616   0.634
  0.644   0.646   0.665   0.682   0.704   0.718   0.725   0.743
  0.750   0.768   0.788   0.810   0.820   0.822   0.842   0.846
  0.855   0.859   0.869   0.875   0.893   0.906   0.907   0.916
  0.930   0.942   0.950   0.957   0.976   0.986   0.995   1.005
  1.033   1.058   1.065   1.091   1.106   1.115   1.145   1.153
  1.184   1.202   1.239   1.245   1.249   1.298   1.320   1.332
  1.359   1.379   1.388   1.412   1.432   1.456   1.459   1.480
  1.485   1.516   1.530   1.552   1.613   1.643   1.661   1.676
  1.694   1.724   1.737   1.775   1.791   1.799   1.822   1.827
  1.850   1.861   1.884   1.888   1.903   1.926   1.951   1.973
  1.979   2.014   2.022   2.029   2.034   2.061   2.072   2.089
  2.100   2.118   2.122   2.141   2.160   2.185   2.206   2.226
  2.266   2.278   2.287   2.291   2.308   2.322   2.323   2.342
  2.383   2.413   2.458   2.474   2.510   2.542   2.570   2.608
  2.620   2.638   2.672   2.685   2.708   2.732   2.770   2.813
  2.823   2.855   2.897   2.956   2.969   2.985   3.065   3.129
  3.163   3.248   3.443   3.978   4.021   4.081   4.099   4.114
  4.225   4.244   4.248   4.280   4.305   4.370   4.432   4.466
  4.603   4.803
 --------------------------------------------------------------
 
          Ground-State Mulliken Net Atomic Charges

     Atom                 Charge (a.u.)
  ----------------------------------------
      1 C                     0.058367
      2 C                     0.024734
      3 C                     0.587526
      4 C                     0.538064
      5 O                    -0.461928
      6 O                    -0.492683
      7 O                    -0.438939
      8 O                    -0.476384
      9 C                    -0.219729
     10 C                    -0.217122
     11 C                    -0.177071
     12 C                    -0.120739
     13 C                    -0.179801
     14 C                     0.143470
     15 H                     0.182314
     16 H                     0.172278
     17 H                     0.134120
     18 H                     0.165477
     19 H                     0.160467
     20 H                     0.165583
     21 H                     0.173525
     22 H                     0.138688
     23 H                     0.158134
     24 C                    -0.533034
     25 H                     0.196426
     26 H                     0.166693
     27 H                     0.151562
  ----------------------------------------
  Sum of atomic charges =     0.000000

 -----------------------------------------------------------------
                    Cartesian Multipole Moments
 -----------------------------------------------------------------
    Charge (ESU x 10^10)
                -0.0000
    Dipole Moment (Debye)
         X       0.9018      Y      -1.7333      Z       1.9914
       Tot       2.7899
    Quadrupole Moments (Debye-Ang)
        XX     -71.7489     XY       2.0955     YY     -77.1930
        XZ      -1.6988     YZ       5.7179     ZZ     -90.7989
    Octopole Moments (Debye-Ang^2)
       XXX      52.5023    XXY      -6.7600    XYY       0.4694
       YYY      23.3624    XXZ       2.4618    XYZ      -1.2873
       YYZ      15.5586    XZZ      11.2186    YZZ       7.6642
       ZZZ      -6.4703
    Hexadecapole Moments (Debye-Ang^3)
      XXXX   -1891.4081   XXXY     -10.2022   XXYY    -639.9122
      XYYY      -2.9383   YYYY   -1503.5672   XXXZ      -0.7264
      XXYZ       8.5689   XYYZ     -12.1986   YYYZ      22.2643
      XXZZ    -407.7816   XYZZ      -5.5351   YYZZ    -334.6493
      XZZZ      -3.6238   YZZZ       3.7714   ZZZZ    -222.3019
 -----------------------------------------------------------------
 Calculating analytic gradient of the SCF energy
 Gradient of SCF Energy
            1           2           3           4           5           6
    1   0.0001044   0.0001764  -0.0000705   0.0000576  -0.0000318   0.0001027
    2  -0.0002228   0.0002691   0.0000908   0.0004334   0.0001200  -0.0001207
    3   0.0001149   0.0009641  -0.0005132  -0.0012269  -0.0000803   0.0000890
            7           8           9          10          11          12
    1  -0.0000363   0.0002100   0.0001074   0.0001274   0.0000671  -0.0004139
    2   0.0001883  -0.0003323  -0.0004346  -0.0002556   0.0000652   0.0000400
    3   0.0006579   0.0000713   0.0002725   0.0003368  -0.0002097  -0.0000643
           13          14          15          16          17          18
    1   0.0002688  -0.0002267  -0.0002630  -0.0000463  -0.0000644   0.0000041
    2  -0.0002015   0.0000472   0.0000999   0.0000098   0.0000159   0.0000071
    3  -0.0000436   0.0000103  -0.0001516  -0.0000059  -0.0000158  -0.0000558
           19          20          21          22          23          24
    1   0.0000813   0.0000123  -0.0001016  -0.0000848   0.0000401  -0.0000392
    2  -0.0000157   0.0000675   0.0000807   0.0000091   0.0001427   0.0000344
    3  -0.0000402   0.0000445  -0.0001893   0.0000364  -0.0000397  -0.0000187
           25          26          27
    1   0.0000332   0.0000667  -0.0000809
    2  -0.0000664   0.0000047  -0.0000762
    3   0.0000494  -0.0000908   0.0000989
 Max gradient component =       1.227E-03
 RMS gradient           =       2.457E-04
 Gradient time:  CPU 62.50 s  wall 3.79 s
 Geometry Optimization Parameters
   NAtoms,    NIC,     NZ,  NCons,   NDum,   NFix, NCnnct, MaxDiis
       27     173       0       2       0       0       0       0

 Cartesian Hessian Update
 Hessian Updated using BFGS Update


** CONSTRAINED OPTIMIZATION IN DELOCALIZED INTERNAL COORDINATES **
   Searching for a Minimum

   Optimization Cycle:   4

                       Coordinates (Angstroms)
     ATOM                X               Y               Z
      1  C         0.4128980605   -0.8899192877   -0.0102422400
      2  C        -0.8161670984   -0.2060642052   -0.0590364721
      3  C         1.6873717813   -0.1353482595   -0.1939137996
      4  C        -0.8766558882    1.2894808618   -0.2009275032
      5  O         2.7612663848   -0.8422884039    0.2249736264
      6  O         1.7765445412    0.9764471971   -0.6771191183
      7  O        -0.3951986971    1.8972601258    0.9012903922
      8  O        -1.3722277247    1.8683668976   -1.1420544727
      9  C        -0.3134274560    3.3287783176    0.8083151179
     10  C         4.0281643027   -0.1926356632    0.0352165285
     11  C         0.4304522437   -2.2830152817    0.1355746545
     12  C        -0.7662529932   -2.9866861636    0.2247378089
     13  C        -1.9801612476   -2.3044677797    0.1648220111
     14  C        -2.0295169458   -0.9134772219    0.0187745259
     15  H         0.3311753781    3.6094369913   -0.0290694213
     16  H         4.2151326131   -0.0219917970   -1.0290990329
     17  H        -2.9130001856   -2.8591275970    0.2328565462
     18  H        -1.3062148572    3.7627399450    0.6585041284
     19  H         0.1149897825    3.6602602126    1.7546997152
     20  H         4.7712091473   -0.8721807097    0.4536035540
     21  H         4.0461751924    0.7696044503    0.5540718712
     22  H        -0.7556151017   -4.0673980253    0.3355753497
     23  H         1.3813372317   -2.8015500863    0.1677767862
     24  C        -3.3600485657   -0.2000127920   -0.0522340376
     25  H        -3.4887145134    0.2858012296   -1.0241314540
     26  H        -3.4342871869    0.5860025823    0.7082063514
     27  H        -4.1871318420   -0.8993346254    0.1036627501
   Point Group: c1    Number of degrees of freedom:    75


   Energy is   -727.337318628

              Constraints and their Current Values
                                        Value     Constraint
   Dihedral:        2   1   3   5      163.600      163.600
   Dihedral:        1   2   4   7      -67.300      -67.300
 Hessian Updated using BFGS Update

 62 Hessian modes will be used to form the next step
  Hessian Eigenvalues:
     0.023079    0.045000    0.045000    0.045001    0.045002    0.045003
     0.045007    0.045031    0.045058    0.045184    0.045585    0.045902
     0.092464    0.094225    0.113834    0.114508    0.116933    0.117067
     0.156390    0.159229    0.159984    0.159999    0.160783    0.164285
     0.220979    0.234469    0.245620    0.248912    0.249152    0.249523
     0.249929    0.249966    0.249992    0.272653    0.312673    0.321312
     0.340830    0.342438    0.342540    0.342725    0.342906    0.342947
     0.343606    0.343809    0.344334    0.345907    0.349058    0.350340
     0.350728    0.366072    0.410106    0.410537    0.416462    0.428670
     0.447036    0.457013    0.461487    0.475686    0.515423    0.533184
     0.957667    0.959630

 Minimum Search - Taking Simple RFO Step
 Searching for Lamda that Minimizes Along All modes
 Value Taken    Lamda =  -0.00002803
 Step Taken.  Stepsize is  0.030945

                             Maximum     Tolerance    Cnvgd?
         Gradient           0.000545      0.000005      NO
         Displacement       0.018922      0.000005      NO
         Energy change     -0.000067      0.000000      NO


 New Cartesian Coordinates Obtained by Inverse Iteration

 Displacement from previous Coordinates is:  0.093470
 ----------------------------------------------------------------
             Standard Nuclear Orientation (Angstroms)
    I     Atom           X                Y                Z
 ----------------------------------------------------------------
    1      C       0.4104523904    -0.8883402729    -0.0118272020
    2      C      -0.8195642153    -0.2061351381    -0.0585255145
    3      C       1.6843631955    -0.1315954553    -0.1903164063
    4      C      -0.8820674051     1.2896446874    -0.1973872646
    5      O       2.7583990177    -0.8393570389     0.2262168257
    6      O       1.7724275649     0.9823965024    -0.6693550940
    7      O      -0.4015643776     1.8971214055     0.9039210402
    8      O      -1.3777228025     1.8687480592    -1.1387677306
    9      C      -0.3036690783     3.3281772928     0.8048339731
   10      C       4.0255079228    -0.1894777845     0.0352445993
   11      C       0.4303873341    -2.2816209351     0.1348248647
   12      C      -0.7648578866    -2.9872466222     0.2232614901
   13      C      -1.9800101822    -2.3067423240     0.1632616010
   14      C      -2.0315832277    -0.9156364525     0.0184556246
   15      H       0.3560491857     3.5956817037    -0.0251180051
   16      H       4.2083416632    -0.0123619827    -1.0287535586
   17      H      -2.9118684474    -2.8630156571     0.2316332422
   18      H      -1.2894851729     3.7719606461     0.6390848427
   19      H       0.1156389692     3.6597606783     1.7550435903
   20      H       4.7687827586    -0.8728944253     0.4464489843
   21      H       4.0468141164     0.7694585949     0.5601249615
   22      H      -0.7522842265    -4.0679719100     0.3339664492
   23      H       1.3821117349    -2.7986335629     0.1689183204
   24      C      -3.3631077448    -0.2041184101    -0.0513510306
   25      H      -3.4913219983     0.2851651431    -1.0217456211
   26      H      -3.4386548385     0.5802020643     0.7109668144
   27      H      -4.1894178937    -0.9044878942     0.1017743697
 ----------------------------------------------------------------
 Molecular Point Group                 C1    NOp =  1
 Largest Abelian Subgroup              C1    NOp =  1
 Nuclear Repulsion Energy =  1008.4337237007 hartrees
 There are       55 alpha and       55 beta electrons
 Applying Cartesian multipole field
    Component          Value
    ---------          -----
     (2,0,0)        1.00000E-11
     (0,2,0)        2.00000E-11
     (0,0,2)       -3.00000E-11
 Nucleus-field energy     =     0.0000000379 hartrees
 Requested basis set is 6-31G(d)
 There are 84 shells and 249 basis functions
 A cutoff of  1.0D-12 yielded   2768 shell pairs
 There are     26556 function pairs
 Smallest overlap matrix eigenvalue = 3.22E-04
 Guess MOs from SCF MO coefficient file
 Reading MOs from coefficient file
 Reading MOs from coefficient file
 A restricted hybrid HF-DFT SCF calculation will be
 performed using Pulay DIIS extrapolation
 Exchange:     0.2000 Hartree-Fock + 0.0800 Slater + 0.7200 B88
 Correlation:  0.1900 VWN1RPA + 0.8100 LYP
 Using SG-1 standard quadrature grid
 Dispersion:   Grimme D3
 SCF converges when DIIS error is below 1.0E-08
 Geometry optimization detected.  Setting ReadMinima to 0
 Setting SaveMinima to 0
 using 24 threads for integral computing 
 -------------------------------------------------------
 OpenMP BLAS3 based DFT computing Module                
 Release: version 1.0, May 2013, Q-Chem Inc. Pittsburgh 
 -------------------------------------------------------
 ---------------------------------------
  Cycle       Energy         DIIS Error
 ---------------------------------------
    1    -727.3367947619      1.64E-04
    2    -727.3373378591      1.77E-05
    3    -727.3373354789      3.02E-05
    4    -727.3373407399      5.79E-06
    5    -727.3373409146      2.04E-06
    6    -727.3373409385      1.04E-06
    7    -727.3373409468      2.59E-07
    8    -727.3373409473      6.48E-08
    9    -727.3373409474      1.77E-08
   10    -727.3373409473      7.30E-09 Convergence criterion met
 ---------------------------------------
 SCF time:  CPU 139.11 s  wall 7.16 s
 SCF   energy in the final basis set = -727.3373409473
 Total energy in the final basis set = -727.3373409473
 
 --------------------------------------------------------------
 
                    Orbital Energies (a.u.)
 --------------------------------------------------------------
 
 Alpha MOs
 -- Occupied --
-19.196 -19.185 -19.138 -19.130 -10.319 -10.311 -10.243 -10.232
-10.214 -10.213 -10.212 -10.202 -10.202 -10.201 -10.184  -1.106
 -1.095  -1.016  -1.008  -0.873  -0.791  -0.779  -0.737  -0.716
 -0.690  -0.642  -0.613  -0.570  -0.561  -0.531  -0.507  -0.490
 -0.482  -0.476  -0.469  -0.463  -0.451  -0.434  -0.424  -0.419
 -0.412  -0.403  -0.392  -0.381  -0.371  -0.360  -0.358  -0.354
 -0.346  -0.307  -0.291  -0.279  -0.273  -0.258  -0.249
 -- Virtual --
 -0.049  -0.019   0.029   0.052   0.093   0.112   0.115   0.124
  0.133   0.135   0.153   0.154   0.158   0.166   0.172   0.174
  0.184   0.188   0.200   0.223   0.250   0.268   0.286   0.298
  0.315   0.341   0.359   0.384   0.397   0.417   0.488   0.499
  0.508   0.515   0.524   0.525   0.542   0.545   0.550   0.556
  0.561   0.575   0.580   0.592   0.602   0.608   0.616   0.634
  0.644   0.646   0.665   0.682   0.705   0.718   0.725   0.743
  0.750   0.767   0.788   0.810   0.819   0.822   0.842   0.846
  0.855   0.860   0.869   0.874   0.893   0.905   0.907   0.916
  0.930   0.942   0.949   0.957   0.976   0.986   0.995   1.005
  1.034   1.058   1.065   1.091   1.105   1.115   1.145   1.153
  1.184   1.202   1.239   1.245   1.251   1.298   1.321   1.332
  1.359   1.379   1.388   1.411   1.433   1.456   1.459   1.480
  1.485   1.515   1.530   1.554   1.613   1.643   1.661   1.675
  1.694   1.725   1.736   1.775   1.791   1.799   1.822   1.828
  1.850   1.861   1.885   1.888   1.903   1.926   1.951   1.973
  1.979   2.014   2.022   2.028   2.033   2.061   2.072   2.090
  2.099   2.118   2.122   2.141   2.160   2.185   2.206   2.227
  2.266   2.278   2.287   2.291   2.308   2.321   2.323   2.343
  2.383   2.413   2.459   2.474   2.509   2.542   2.570   2.609
  2.620   2.637   2.672   2.685   2.707   2.732   2.770   2.813
  2.823   2.856   2.897   2.957   2.969   2.985   3.065   3.129
  3.163   3.247   3.443   3.978   4.021   4.081   4.099   4.114
  4.226   4.244   4.247   4.280   4.306   4.369   4.432   4.466
  4.603   4.803
 --------------------------------------------------------------
 
          Ground-State Mulliken Net Atomic Charges

     Atom                 Charge (a.u.)
  ----------------------------------------
      1 C                     0.057797
      2 C                     0.025001
      3 C                     0.588119
      4 C                     0.537535
      5 O                    -0.462027
      6 O                    -0.493169
      7 O                    -0.438776
      8 O                    -0.476683
      9 C                    -0.220063
     10 C                    -0.217178
     11 C                    -0.176847
     12 C                    -0.120786
     13 C                    -0.179889
     14 C                     0.143688
     15 H                     0.182601
     16 H                     0.172454
     17 H                     0.134095
     18 H                     0.166100
     19 H                     0.160444
     20 H                     0.165668
     21 H                     0.173513
     22 H                     0.138680
     23 H                     0.158124
     24 C                    -0.533213
     25 H                     0.196443
     26 H                     0.166750
     27 H                     0.151621
  ----------------------------------------
  Sum of atomic charges =    -0.000000

 -----------------------------------------------------------------
                    Cartesian Multipole Moments
 -----------------------------------------------------------------
    Charge (ESU x 10^10)
                -0.0000
    Dipole Moment (Debye)
         X       0.9311      Y      -1.7369      Z       1.9818
       Tot       2.7949
    Quadrupole Moments (Debye-Ang)
        XX     -71.7531     XY       2.1538     YY     -77.2013
        XZ      -1.7124     YZ       5.6939     ZZ     -90.7881
    Octopole Moments (Debye-Ang^2)
       XXX      52.9582    XXY      -6.8479    XYY       0.7347
       YYY      23.2329    XXZ       2.3461    XYZ      -1.2885
       YYZ      15.4734    XZZ      11.4109    YZZ       7.6419
       ZZZ      -6.6820
    Hexadecapole Moments (Debye-Ang^3)
      XXXX   -1891.1747   XXXY     -11.3481   XXYY    -639.9081
      XYYY      -4.1876   YYYY   -1503.6066   XXXZ      -1.4537
      XXYZ       8.4312   XYYZ     -12.2233   YYYZ      22.0826
      XXZZ    -407.6179   XYZZ      -5.9015   YYZZ    -334.6268
      XZZZ      -4.1940   YZZZ       3.5609   ZZZZ    -221.4149
 -----------------------------------------------------------------
 Calculating analytic gradient of the SCF energy
 Gradient of SCF Energy
            1           2           3           4           5           6
    1  -0.0000707   0.0001538   0.0002149   0.0004646  -0.0002873  -0.0000537
    2  -0.0000795   0.0002397  -0.0001405   0.0004064  -0.0001226   0.0001753
    3  -0.0004858   0.0009105  -0.0001497  -0.0002280   0.0000742  -0.0000703
            7           8           9          10          11          12
    1  -0.0005572   0.0000418   0.0002648   0.0003302  -0.0000700  -0.0001120
    2  -0.0003864  -0.0001335   0.0000251  -0.0001793  -0.0001411   0.0000048
    3   0.0000216  -0.0000152   0.0003217   0.0002630  -0.0000573  -0.0000575
           13          14          15          16          17          18
    1   0.0001743  -0.0001020  -0.0001808  -0.0000195  -0.0000511  -0.0000313
    2  -0.0001504   0.0002545   0.0000724   0.0000400  -0.0000066   0.0000335
    3  -0.0000718  -0.0000137  -0.0001735  -0.0000361   0.0000270  -0.0000493
           19          20          21          22          23          24
    1   0.0000451  -0.0001148  -0.0000722  -0.0000461   0.0000747  -0.0001601
    2  -0.0000292   0.0000627   0.0001146  -0.0000090   0.0000787  -0.0003650
    3  -0.0001368   0.0000130  -0.0001871   0.0000156   0.0000455   0.0000562
           25          26          27
    1   0.0000458   0.0000778   0.0000410
    2   0.0000594   0.0001302   0.0000456
    3   0.0000050  -0.0000899   0.0000688
 Max gradient component =       9.105E-04
 RMS gradient           =       2.005E-04
 Gradient time:  CPU 62.88 s  wall 3.73 s
 Geometry Optimization Parameters
   NAtoms,    NIC,     NZ,  NCons,   NDum,   NFix, NCnnct, MaxDiis
       27     173       0       2       0       0       0       0

 Cartesian Hessian Update
 Hessian Updated using BFGS Update


** CONSTRAINED OPTIMIZATION IN DELOCALIZED INTERNAL COORDINATES **
   Searching for a Minimum

   Optimization Cycle:   5

                       Coordinates (Angstroms)
     ATOM                X               Y               Z
      1  C         0.4104523904   -0.8883402729   -0.0118272020
      2  C        -0.8195642153   -0.2061351381   -0.0585255145
      3  C         1.6843631955   -0.1315954553   -0.1903164063
      4  C        -0.8820674051    1.2896446874   -0.1973872646
      5  O         2.7583990177   -0.8393570389    0.2262168257
      6  O         1.7724275649    0.9823965024   -0.6693550940
      7  O        -0.4015643776    1.8971214055    0.9039210402
      8  O        -1.3777228025    1.8687480592   -1.1387677306
      9  C        -0.3036690783    3.3281772928    0.8048339731
     10  C         4.0255079228   -0.1894777845    0.0352445993
     11  C         0.4303873341   -2.2816209351    0.1348248647
     12  C        -0.7648578866   -2.9872466222    0.2232614901
     13  C        -1.9800101822   -2.3067423240    0.1632616010
     14  C        -2.0315832277   -0.9156364525    0.0184556246
     15  H         0.3560491857    3.5956817037   -0.0251180051
     16  H         4.2083416632   -0.0123619827   -1.0287535586
     17  H        -2.9118684474   -2.8630156571    0.2316332422
     18  H        -1.2894851729    3.7719606461    0.6390848427
     19  H         0.1156389692    3.6597606783    1.7550435903
     20  H         4.7687827586   -0.8728944253    0.4464489843
     21  H         4.0468141164    0.7694585949    0.5601249615
     22  H        -0.7522842265   -4.0679719100    0.3339664492
     23  H         1.3821117349   -2.7986335629    0.1689183204
     24  C        -3.3631077448   -0.2041184101   -0.0513510306
     25  H        -3.4913219983    0.2851651431   -1.0217456211
     26  H        -3.4386548385    0.5802020643    0.7109668144
     27  H        -4.1894178937   -0.9044878942    0.1017743697
   Point Group: c1    Number of degrees of freedom:    75


   Energy is   -727.337340947

              Constraints and their Current Values
                                        Value     Constraint
   Dihedral:        2   1   3   5      163.600      163.600
   Dihedral:        1   2   4   7      -67.300      -67.300
 Hessian Updated using BFGS Update

 65 Hessian modes will be used to form the next step
  Hessian Eigenvalues:
     0.013460    0.044045    0.045000    0.045000    0.045001    0.045002
     0.045002    0.045007    0.045016    0.045050    0.045064    0.045603
     0.048720    0.092677    0.094229    0.110464    0.113897    0.116648
     0.116969    0.156058    0.158136    0.159984    0.159999    0.160314
     0.161388    0.163855    0.221288    0.234412    0.245975    0.247890
     0.249272    0.249586    0.249966    0.249991    0.250000    0.252274
     0.277367    0.308582    0.319664    0.342258    0.342484    0.342668
     0.342777    0.342786    0.343441    0.343607    0.344321    0.345720
     0.346044    0.348906    0.350356    0.351041    0.367065    0.409831
     0.411250    0.416543    0.429428    0.447701    0.457689    0.466003
     0.472097    0.530430    0.543131    0.958112    0.964156

 Minimum Search - Taking Simple RFO Step
 Searching for Lamda that Minimizes Along All modes
 Value Taken    Lamda =  -0.00001664
 Step Taken.  Stepsize is  0.030846

                             Maximum     Tolerance    Cnvgd?
         Gradient           0.000371      0.000005      NO
[...]
    4    -727.3374263485      3.46E-07
    5    -727.3374263492      1.06E-07
    6    -727.3374263493      4.25E-08
    7    -727.3374263493      8.16E-09 Convergence criterion met
 ---------------------------------------
 SCF time:  CPU 125.20 s  wall 5.25 s
 SCF   energy in the final basis set = -727.3374263493
 Total energy in the final basis set = -727.3374263493
 
 --------------------------------------------------------------
 
                    Orbital Energies (a.u.)
 --------------------------------------------------------------
 
 Alpha MOs
 -- Occupied --
-19.196 -19.185 -19.138 -19.129 -10.319 -10.311 -10.243 -10.231
-10.215 -10.213 -10.212 -10.202 -10.202 -10.201 -10.184  -1.106
 -1.095  -1.016  -1.007  -0.873  -0.791  -0.779  -0.737  -0.715
 -0.690  -0.642  -0.613  -0.570  -0.561  -0.531  -0.507  -0.490
 -0.482  -0.476  -0.469  -0.463  -0.450  -0.434  -0.424  -0.418
 -0.412  -0.403  -0.392  -0.381  -0.371  -0.360  -0.358  -0.354
 -0.346  -0.307  -0.291  -0.279  -0.273  -0.258  -0.249
 -- Virtual --
 -0.050  -0.019   0.029   0.053   0.093   0.112   0.116   0.124
  0.133   0.135   0.152   0.154   0.158   0.166   0.172   0.174
  0.185   0.188   0.200   0.223   0.249   0.268   0.285   0.298
  0.314   0.341   0.359   0.384   0.397   0.418   0.488   0.499
  0.508   0.515   0.523   0.525   0.540   0.544   0.550   0.557
  0.560   0.575   0.580   0.592   0.601   0.609   0.615   0.634
  0.644   0.646   0.665   0.679   0.707   0.720   0.726   0.743
  0.750   0.765   0.789   0.810   0.819   0.822   0.842   0.845
  0.855   0.861   0.869   0.874   0.893   0.905   0.907   0.914
  0.930   0.943   0.949   0.957   0.976   0.988   0.996   1.007
  1.036   1.058   1.066   1.089   1.105   1.117   1.148   1.151
  1.185   1.204   1.240   1.244   1.255   1.300   1.324   1.333
  1.359   1.378   1.390   1.407   1.433   1.456   1.459   1.479
  1.485   1.515   1.529   1.557   1.610   1.643   1.661   1.674
  1.696   1.726   1.737   1.774   1.790   1.800   1.824   1.827
  1.850   1.861   1.883   1.888   1.902   1.926   1.951   1.972
  1.979   2.015   2.023   2.028   2.034   2.063   2.072   2.091
  2.099   2.120   2.123   2.140   2.160   2.184   2.207   2.226
  2.265   2.278   2.286   2.292   2.306   2.320   2.324   2.343
  2.383   2.410   2.461   2.476   2.510   2.541   2.569   2.608
  2.621   2.636   2.672   2.685   2.709   2.732   2.769   2.813
  2.823   2.856   2.897   2.958   2.970   2.986   3.065   3.129
  3.162   3.248   3.443   3.978   4.020   4.081   4.100   4.114
  4.227   4.244   4.245   4.281   4.311   4.371   4.432   4.466
  4.606   4.802
 --------------------------------------------------------------
 
          Ground-State Mulliken Net Atomic Charges

     Atom                 Charge (a.u.)
  ----------------------------------------
      1 C                     0.055883
      2 C                     0.024210
      3 C                     0.591048
      4 C                     0.538412
      5 O                    -0.462922
      6 O                    -0.493628
      7 O                    -0.438791
      8 O                    -0.476528
      9 C                    -0.221022
     10 C                    -0.216918
     11 C                    -0.177056
     12 C                    -0.120537
     13 C                    -0.179935
     14 C                     0.143944
     15 H                     0.181988
     16 H                     0.173101
     17 H                     0.134212
     18 H                     0.167752
     19 H                     0.160002
     20 H                     0.165491
     21 H                     0.172741
     22 H                     0.138682
     23 H                     0.158581
     24 C                    -0.534628
     25 H                     0.197214
     26 H                     0.167027
     27 H                     0.151676
  ----------------------------------------
  Sum of atomic charges =     0.000000

 -----------------------------------------------------------------
                    Cartesian Multipole Moments
 -----------------------------------------------------------------
    Charge (ESU x 10^10)
                 0.0000
    Dipole Moment (Debye)
         X       0.8838      Y      -1.7827      Z       1.9653
       Tot       2.7967
    Quadrupole Moments (Debye-Ang)
        XX     -71.6037     XY       1.9600     YY     -77.3792
        XZ      -1.6759     YZ       5.6231     ZZ     -90.8820
    Octopole Moments (Debye-Ang^2)
       XXX      50.8966    XXY      -9.0829    XYY       1.6309
       YYY      21.7182    XXZ       3.0653    XYZ      -0.8094
       YYZ      17.3878    XZZ      11.2214    YZZ       6.2285
       ZZZ      -1.2013
    Hexadecapole Moments (Debye-Ang^3)
      XXXX   -1892.9694   XXXY     -12.6726   XXYY    -638.6666
      XYYY       9.5786   YYYY   -1502.5611   XXXZ      -0.7328
      XXYZ       9.9371   XYYZ     -10.7315   YYYZ      27.5746
      XXZZ    -408.5451   XYZZ      -3.0415   YYZZ    -334.7697
      XZZZ      -1.5271   YZZZ      10.9289   ZZZZ    -220.8725
 -----------------------------------------------------------------
 Calculating analytic gradient of the SCF energy
 Gradient of SCF Energy
            1           2           3           4           5           6
    1   0.0000008  -0.0000057  -0.0000006   0.0000021  -0.0000011  -0.0000006
    2  -0.0000065   0.0000047  -0.0000027  -0.0000037  -0.0000138  -0.0000059
    3   0.0000026   0.0000024  -0.0000017  -0.0000031  -0.0000095  -0.0000048
            7           8           9          10          11          12
    1   0.0000088   0.0000030   0.0000135  -0.0000046  -0.0000041  -0.0000144
    2   0.0000035   0.0000071  -0.0000018  -0.0000116   0.0000043   0.0000023
    3   0.0000062   0.0000038  -0.0000004  -0.0000006  -0.0000021  -0.0000004
           13          14          15          16          17          18
    1  -0.0000046   0.0000006   0.0000109  -0.0000014  -0.0000087   0.0000127
    2   0.0000012   0.0000139  -0.0000015  -0.0000152   0.0000098   0.0000036
    3   0.0000042   0.0000007  -0.0000004  -0.0000092   0.0000039   0.0000034
           19          20          21          22          23          24
    1   0.0000152  -0.0000031   0.0000026  -0.0000121  -0.0000083  -0.0000024
    2  -0.0000016  -0.0000159  -0.0000136   0.0000027  -0.0000048   0.0000090
    3   0.0000006  -0.0000085  -0.0000095   0.0000012  -0.0000033   0.0000051
           25          26          27
    1   0.0000001   0.0000029  -0.0000016
    2   0.0000121   0.0000111   0.0000133
    3   0.0000068   0.0000056   0.0000072
 Max gradient component =       1.586E-05
 RMS gradient           =       7.153E-06
 Gradient time:  CPU 78.42 s  wall 4.33 s
 Geometry Optimization Parameters
   NAtoms,    NIC,     NZ,  NCons,   NDum,   NFix, NCnnct, MaxDiis
       27     173       0       0       0       0       0       0

 Cartesian Hessian Update
 Hessian Updated using BFGS Update
**WARNING** Hereditary positive definiteness endangered
**WARNING** Small Scalar Product
 Hessian Update Skipped this cycle


** GEOMETRY OPTIMIZATION IN DELOCALIZED INTERNAL COORDINATES **
   Searching for a Minimum

   Optimization Cycle:  11

                       Coordinates (Angstroms)
     ATOM                X               Y               Z
      1  C         0.3847611639   -0.8915185696   -0.0157796697
      2  C        -0.8231868069   -0.1716597521   -0.0780582584
      3  C         1.6830742793   -0.1804753093   -0.2064134982
      4  C        -0.8355482094    1.3245037126   -0.2263177278
      5  O         2.7366242185   -0.9306183707    0.1883198757
      6  O         1.8070193712    0.9316516544   -0.6817538274
      7  O        -0.3341257327    1.9215282395    0.8719645262
      8  O        -1.3080345196    1.9149030834   -1.1726594587
      9  C        -0.1716102031    3.3455755879    0.7621601519
     10  C         4.0238487166   -0.3291512994   -0.0224408789
     11  C         0.3591554983   -2.2826556430    0.1491214936
     12  C        -0.8582728763   -2.9482244193    0.2440210317
     13  C        -2.0510917782   -2.2306034078    0.1686179565
     14  C        -2.0575561785   -0.8409960420    0.0031559888
     15  H         0.5529316997    3.5702035103   -0.0255183242
     16  H         4.1830613494   -0.1265273952   -1.0854814585
     17  H        -3.0002230887   -2.7562634462    0.2403993907
     18  H        -1.1243873319    3.8280202307    0.5277415032
     19  H         0.2002172841    3.6738154503    1.7333698420
     20  H         4.7490672883   -1.0559486419    0.3449349655
     21  H         4.1026987157    0.6103194695    0.5315997811
     22  H        -0.8802764789   -4.0271373679    0.3698024072
     23  H         1.2928243676   -2.8308280751    0.1913672097
     24  C        -3.3650147605   -0.0870935390   -0.0793524834
     25  H        -3.4573100789    0.4277636131   -1.0401819600
     26  H        -3.4336746797    0.6802592251    0.7009734495
     27  H        -4.2150393702   -0.7654771817    0.0400092339
   Point Group: c1    Number of degrees of freedom:    75


   Energy is   -727.337426349

 Hessian Updated using BFGS Update
**WARNING** Hereditary positive definiteness endangered
**WARNING** Small Scalar Product
 Hessian Update Skipped this cycle

 75 Hessian modes will be used to form the next step
  Hessian Eigenvalues:
     0.001434    0.008209    0.010444    0.010709    0.011880    0.016057
     0.017953    0.018771    0.021831    0.022226    0.022355    0.022793
     0.022881    0.023166    0.023459    0.038675    0.060769    0.068098
     0.071882    0.072633    0.101425    0.101811    0.105740    0.106106
     0.159322    0.159828    0.159963    0.159997    0.159999    0.159999
     0.160006    0.160035    0.160174    0.160236    0.160432    0.160713
     0.221062    0.236589    0.245933    0.249118    0.249422    0.249944
     0.250007    0.250174    0.250299    0.254865    0.282369    0.312126
     0.319402    0.340474    0.343337    0.343478    0.343765    0.344028
     0.344065    0.344228    0.347447    0.347592    0.348537    0.351230
     0.352274    0.355495    0.384163    0.399775    0.401221    0.418053
     0.442071    0.455869    0.461606    0.468278    0.518216    0.547195
     0.560344    0.975467    0.993829

 Minimum Search - Taking Simple RFO Step
 Searching for Lamda that Minimizes Along All modes
 Value Taken    Lamda =   0.00000000
 Step Taken.  Stepsize is  0.000702

                             Maximum     Tolerance    Cnvgd?
         Gradient           0.000005      0.000005     YES
         Displacement       0.000507      0.000005      NO
         Energy change     -0.000000      0.000000     YES

 Final energy is   -727.337426349256     


 ******************************
 **  OPTIMIZATION CONVERGED  **
 ******************************

                       Coordinates (Angstroms)
     ATOM                X               Y               Z
      1  C         0.3847611639   -0.8915185696   -0.0157796697
      2  C        -0.8231868069   -0.1716597521   -0.0780582584
      3  C         1.6830742793   -0.1804753093   -0.2064134982
      4  C        -0.8355482094    1.3245037126   -0.2263177278
      5  O         2.7366242185   -0.9306183707    0.1883198757
      6  O         1.8070193712    0.9316516544   -0.6817538274
      7  O        -0.3341257327    1.9215282395    0.8719645262
      8  O        -1.3080345196    1.9149030834   -1.1726594587
      9  C        -0.1716102031    3.3455755879    0.7621601519
     10  C         4.0238487166   -0.3291512994   -0.0224408789
     11  C         0.3591554983   -2.2826556430    0.1491214936
     12  C        -0.8582728763   -2.9482244193    0.2440210317
     13  C        -2.0510917782   -2.2306034078    0.1686179565
     14  C        -2.0575561785   -0.8409960420    0.0031559888
     15  H         0.5529316997    3.5702035103   -0.0255183242
     16  H         4.1830613494   -0.1265273952   -1.0854814585
     17  H        -3.0002230887   -2.7562634462    0.2403993907
     18  H        -1.1243873319    3.8280202307    0.5277415032
     19  H         0.2002172841    3.6738154503    1.7333698420
     20  H         4.7490672883   -1.0559486419    0.3449349655
     21  H         4.1026987157    0.6103194695    0.5315997811
     22  H        -0.8802764789   -4.0271373679    0.3698024072
     23  H         1.2928243676   -2.8308280751    0.1913672097
     24  C        -3.3650147605   -0.0870935390   -0.0793524834
     25  H        -3.4573100789    0.4277636131   -1.0401819600
     26  H        -3.4336746797    0.6802592251    0.7009734495
     27  H        -4.2150393702   -0.7654771817    0.0400092339

Z-matrix Print:
$molecule
0 1
O 
C  1 1.346880
O  2 1.211354 1 124.485665
C  1 1.437491 2 114.766463 3 10.633619 0
H  4 1.090525 1 105.586709 2 -177.827565 0
H  4 1.093384 1 110.791850 2 -57.799862 0
H  4 1.093552 1 109.476262 2 62.950085 0
C  2 1.503542 1 110.954228 3 175.834767 0
C  8 1.406511 2 118.165955 1 -113.006814 0
C  9 1.399438 8 118.379796 2 178.717211 0
H  10 1.087346 9 118.934604 8 -179.520204 0
C  10 1.394088 9 121.432335 8 0.410757 0
H  12 1.086443 10 120.008293 9 179.823782 0
C  12 1.390726 10 119.931504 9 0.252193 0
H  14 1.083520 12 120.633372 10 179.078294 0
C  14 1.401110 12 119.947013 10 -0.299261 0
C  16 1.492495 14 120.261787 12 176.056546 0
O  17 1.215787 16 125.058602 14 -160.539238 0
O  17 1.352219 16 112.097418 14 18.143501 0
C  19 1.436360 17 115.030421 16 -177.378335 0
H  20 1.090478 19 105.513882 17 179.979441 0
H  20 1.093519 19 110.489184 17 -60.293070 0
H  20 1.093828 19 110.524902 17 60.224419 0
C  9 1.511497 8 121.240278 2 -1.033507 0
H  24 1.093979 9 110.833927 8 -61.189749 0
H  24 1.094072 9 110.905768 8 177.861933 0
H  24 1.096564 9 111.367672 8 57.659971 0
$end

 
 --------------------------------------------------------------
 
                    Orbital Energies (a.u.)
 --------------------------------------------------------------
 
 Alpha MOs
 -- Occupied --
-19.196 -19.185 -19.138 -19.129 -10.319 -10.311 -10.243 -10.231
-10.215 -10.213 -10.212 -10.202 -10.202 -10.201 -10.184  -1.106
 -1.095  -1.016  -1.007  -0.873  -0.791  -0.779  -0.737  -0.715
 -0.690  -0.642  -0.613  -0.570  -0.561  -0.531  -0.507  -0.490
 -0.482  -0.476  -0.469  -0.463  -0.450  -0.434  -0.424  -0.418
 -0.412  -0.403  -0.392  -0.381  -0.371  -0.360  -0.358  -0.354
 -0.346  -0.307  -0.291  -0.279  -0.273  -0.258  -0.249
 -- Virtual --
 -0.050  -0.019   0.029   0.053   0.093   0.112   0.116   0.124
  0.133   0.135   0.152   0.154   0.158   0.166   0.172   0.174
  0.185   0.188   0.200   0.223   0.249   0.268   0.285   0.298
  0.314   0.341   0.359   0.384   0.397   0.418   0.488   0.499
  0.508   0.515   0.523   0.525   0.540   0.544   0.550   0.557
  0.560   0.575   0.580   0.592   0.601   0.609   0.615   0.634
  0.644   0.646   0.665   0.679   0.707   0.720   0.726   0.743
  0.750   0.765   0.789   0.810   0.819   0.822   0.842   0.845
  0.855   0.861   0.869   0.874   0.893   0.905   0.907   0.914
  0.930   0.943   0.949   0.957   0.976   0.988   0.996   1.007
  1.036   1.058   1.066   1.089   1.105   1.117   1.148   1.151
  1.185   1.204   1.240   1.244   1.255   1.300   1.324   1.333
  1.359   1.378   1.390   1.407   1.433   1.456   1.459   1.479
  1.485   1.515   1.529   1.557   1.610   1.643   1.661   1.674
  1.696   1.726   1.737   1.774   1.790   1.800   1.824   1.827
  1.850   1.861   1.883   1.888   1.902   1.926   1.951   1.972
  1.979   2.015   2.023   2.028   2.034   2.063   2.072   2.091
  2.099   2.120   2.123   2.140   2.160   2.184   2.207   2.226
  2.265   2.278   2.286   2.292   2.306   2.320   2.324   2.343
  2.383   2.410   2.461   2.476   2.510   2.541   2.569   2.608
  2.621   2.636   2.672   2.685   2.709   2.732   2.769   2.813
  2.823   2.856   2.897   2.958   2.970   2.986   3.065   3.129
  3.162   3.248   3.443   3.978   4.020   4.081   4.100   4.114
  4.227   4.244   4.245   4.281   4.311   4.371   4.432   4.466
  4.606   4.802
 --------------------------------------------------------------
 
          Ground-State Mulliken Net Atomic Charges

     Atom                 Charge (a.u.)
  ----------------------------------------
      1 C                     0.055883
      2 C                     0.024210
      3 C                     0.591048
      4 C                     0.538412
      5 O                    -0.462922
      6 O                    -0.493628
      7 O                    -0.438791
      8 O                    -0.476528
      9 C                    -0.221022
     10 C                    -0.216918
     11 C                    -0.177056
     12 C                    -0.120537
     13 C                    -0.179935
     14 C                     0.143944
     15 H                     0.181988
     16 H                     0.173101
     17 H                     0.134212
     18 H                     0.167752
     19 H                     0.160002
     20 H                     0.165491
     21 H                     0.172741
     22 H                     0.138682
     23 H                     0.158581
     24 C                    -0.534628
     25 H                     0.197214
     26 H                     0.167027
     27 H                     0.151676
  ----------------------------------------
  Sum of atomic charges =     0.000000

 -----------------------------------------------------------------
                    Cartesian Multipole Moments
 -----------------------------------------------------------------
    Charge (ESU x 10^10)
                 0.0000
    Dipole Moment (Debye)
         X       0.8838      Y      -1.7827      Z       1.9653
       Tot       2.7967
    Quadrupole Moments (Debye-Ang)
        XX     -71.6037     XY       1.9600     YY     -77.3792
        XZ      -1.6759     YZ       5.6231     ZZ     -90.8820
    Octopole Moments (Debye-Ang^2)
       XXX      50.8966    XXY      -9.0829    XYY       1.6309
       YYY      21.7182    XXZ       3.0653    XYZ      -0.8094
       YYZ      17.3878    XZZ      11.2214    YZZ       6.2285
       ZZZ      -1.2013
    Hexadecapole Moments (Debye-Ang^3)
      XXXX   -1892.9694   XXXY     -12.6726   XXYY    -638.6666
      XYYY       9.5786   YYYY   -1502.5611   XXXZ      -0.7328
      XXYZ       9.9371   XYYZ     -10.7315   YYYZ      27.5746
      XXZZ    -408.5451   XYZZ      -3.0415   YYZZ    -334.7697
      XZZZ      -1.5271   YZZZ      10.9289   ZZZZ    -220.8725
 -----------------------------------------------------------------
Archival summary:
1\1\nid06079\OPT\ProcedureUnspecified\6-31G*\41112\junteng\MonOct223:40:532017MonOct223:40:532017\0\\#,OPT,ProcedureUnspecified,6-31G*,\\0,1\O\C,1,1.34688\O,2,1.21135,1,124.486\C,1,1.43749,2,114.766,3,10.6336,0\H,4,1.09053,1,105.587,2,-177.828,0\H,4,1.09338,1,110.792,2,-57.7999,0\H,4,1.09355,1,109.476,2,62.9501,0\C,2,1.50354,1,110.954,3,175.835,0\C,8,1.40651,2,118.166,1,-113.007,0\C,9,1.39944,8,118.38,2,178.717,0\H,10,1.08735,9,118.935,8,-179.52,0\C,10,1.39409,9,121.432,8,0.410757,0\H,12,1.08644,10,120.008,9,179.824,0\C,12,1.39073,10,119.932,9,0.252193,0\H,14,1.08352,12,120.633,10,179.078,0\C,14,1.40111,12,119.947,10,-0.299261,0\C,16,1.49249,14,120.262,12,176.057,0\O,17,1.21579,16,125.059,14,-160.539,0\O,17,1.35222,16,112.097,14,18.1435,0\C,19,1.43636,17,115.03,16,-177.378,0\H,20,1.09048,19,105.514,17,179.979,0\H,20,1.09352,19,110.489,17,-60.2931,0\H,20,1.09383,19,110.525,17,60.2244,0\C,9,1.5115,8,121.24,2,-1.03351,0\H,24,1.09398,9,110.834,8,-61.1897,0\H,24,1.09407,9,110.906,8,177.862,0\H,24,1.09656,9,111.368,8,57.66,0\\\@

 Total job time:  133.85s(wall), 2948.74s(cpu) 
 Mon Oct  2 23:40:53 2017

        *************************************************************
        *                                                           *
        *  Thank you very much for using Q-Chem.  Have a nice day.  *
        *                                                           *
        *************************************************************


