nid04361 10.128.17
Q-Chem Developer Version! Running on 10.128.17.*
                  Welcome to Q-Chem
     A Quantum Leap Into The Future Of Chemistry


 Q-Chem 5.0, Q-Chem, Inc., Pleasanton, CA (2017)

 Yihan Shao,  Zhengting Gan,  E. Epifanovsky,  A. T. B. Gilbert,  M. Wormit,  
 J. Kussmann,  A. W. Lange,  A. Behn,  Jia Deng,  Xintian Feng,  D. Ghosh,  
 M. Goldey,  P. R. Horn,  L. D. Jacobson,  I. Kaliman,  T. Kus,  A. Landau,  
 Jie Liu,  E. I. Proynov,  R. M. Richard,  R. P. Steele,  E. J. Sundstrom,  
 H. L. Woodcock III,  P. M. Zimmerman,  D. Zuev,  B. Albrecht,  E. Alguire,  
 S. A. Baeppler,  Z. Benda,  Y. A. Bernard,  E. J. Berquist,  K. B. Bravaya,  
 D. Casanova,  Chun-Min Chang,  Yunqing Chen,  A. Chien,  K. D. Closser,  
 M. P. Coons,  S. Dasgupta,  M. Diedenhofen,  Hainam Do,  R. G. Edgar,  
 Po-Tung Fang,  S. Fatehi,  Qingguo Feng,  Qinghui Ge,  A. Ghysels,  
 J. Gomes,  J. Gonthier,  A. Gunina,  M. W. D. Hanson-Heine,  
 P. H. P. Harbach,  A. W. Hauser,  J. E. Herr,  E. G. Hohenstein,  
 Z. C. Holden,  Kerwin Hui,  T.-C. Jagau,  Hyunjun Ji,  B. Kaduk,  
 K. Khistyaev,  Jaehoon Kim,  P. Klunzinger,  K. Koh,  D. Kosenkov,  
 T. Kowalczyk,  C. M. Krauter,  A. Kunitsa,  Ka Un Lao,  A. Laurent,  
 K. V. Lawler,  Joonho Lee,  D. Lefrancois,  S. Lehtola,  D. S. Levine,  
 Yi-Pei Li,  You-Sheng Lin,  Fenglai Liu,  E. Livshits,  A. Luenser,  
 P. Manohar,  E. Mansoor,  S. F. Manzer,  Shan-Ping Mao,  Yuezhi Mao,  
 N. Mardirossian,  A. V. Marenich,  L. A. Martinez-Martinez,  S. A. Maurer,  
 N. J. Mayhall,  S. C. McKenzie,  J.-M. Mewes,  A. F. Morrison,  K. Nanda,  
 T. S. Nguyen-Beck,  R. Olivares-Amaya,  J. A. Parkhill,  T. M. Perrine,  
 F. Plasser,  S. Prager,  A. Prociuk,  D. R. Rehn,  F. Rob,  M. Schneider,  
 N. Sergueev,  S. M. Sharada,  S. Sharma,  D. W. Small,  T. Stauch,  
 T. Stein,  Yu-Chuan Su,  A. J. W. Thom,  T. Tsuchimochi,  L. Vogt,  
 O. Vydrov,  M. A. Watson,  J. Wenzel,  M. de Wergifosse,  T. A. Wesolowski,  
 A. White,  J. Witte,  A. Yamada,  Jun Yang,  K. Yao,  S. Yeganeh,  
 S. R. Yost,  Zhi-Qiang You,  A. Zech,  Igor Ying Zhang,  Xing Zhang,  
 Yan Zhao,  Ying Zhu,  B. R. Brooks,  G. K. L. Chan,  C. J. Cramer,  
 M. S. Gordon,  W. J. Hehre,  A. Klamt,  M. W. Schmidt,  C. D. Sherrill,  
 D. G. Truhlar,  A. Aspuru-Guzik,  R. Baer,  A. T. Bell,  N. A. Besley,  
 Jeng-Da Chai,  A. Dreuw,  B. D. Dunietz,  T. R. Furlani,  Chao-Ping Hsu,  
 Yousung Jung,  Jing Kong,  D. S. Lambrecht,  WanZhen Liang,  C. Ochsenfeld,  
 V. A. Rassolov,  L. V. Slipchenko,  J. E. Subotnik,  T. Van Voorhis,  
 J. M. Herbert,  A. I. Krylov,  P. M. W. Gill,  M. Head-Gordon

 Contributors to earlier versions of Q-Chem not listed above: 
 R. D. Adamson,  B. Austin,  J. Baker,  G. J. O. Beran,  K. Brandhorst,  
 S. T. Brown,  E. F. C. Byrd,  A. K. Chakraborty,  C.-L. Cheng,  
 Siu Hung Chien,  D. M. Chipman,  D. L. Crittenden,  H. Dachsel,  
 R. A. DiStasio Jr.,  R. J. Doerksen,  A. D. Dutoi,  L. Fusti-Molnar,  
 W. A. Goddard III,  A. Golubeva-Zadorozhnaya,  S. R. Gwaltney,  G. Hawkins,  
 A. Heyden,  S. Hirata,  G. Kedziora,  F. J. Keil,  C. Kelley,  Jihan Kim,  
 R. A. King,  R. Z. Khaliullin,  P. P. Korambath,  W. Kurlancheek,  
 A. M. Lee,  M. S. Lee,  S. V. Levchenko,  Ching Yeh Lin,  D. Liotard,  
 R. C. Lochan,  I. Lotan,  P. E. Maslen,  N. Nair,  D. P. O'Neill,  
 D. Neuhauser,  E. Neuscamman,  C. M. Oana,  R. Olson,  B. Peters,  
 R. Peverati,  P. A. Pieniazek,  Y. M. Rhee,  J. Ritchie,  M. A. Rohrdanz,  
 E. Rosta,  N. J. Russ,  H. F. Schaefer III,  N. E. Schultz,  N. Shenvi,  
 A. C. Simmonett,  A. Sodt,  D. Stuck,  K. S. Thanthiriwatte,  V. Vanovschi,  
 Tao Wang,  A. Warshel,  C. F. Williams,  Q. Wu,  X. Xu,  W. Zhang

 Please cite Q-Chem as follows:
 Y. Shao et al., Mol. Phys. 113, 184-215 (2015)
 DOI: 10.1080/00268976.2014.952696

 Q-Chem 5.0.0 for Intel X86 EM64T Linux

 Parts of Q-Chem use Armadillo 5.200.1 (Boston Tea Smuggler).
 http://arma.sourceforge.net/

 Q-Chem begins on Wed Oct  4 18:02:42 2017  

Host: nid04361
0

     Scratch files written to /global/cscratch1/sd/junteng/scratch/16/opt_10n01+o.save//

Checking the input file for inconsistencies... 	...done.

--------------------------------------------------------------
User input:
--------------------------------------------------------------
$molecule
0  1
C    0.355  -2.424   0.293
C   -0.264  -2.685   1.524
C    0.749  -1.045  -0.086
C   -0.385  -1.681   2.598
O    1.805  -1.090  -0.938
O    0.175  -0.038   0.291
O    0.833  -1.128   2.820
O   -1.397  -1.517   3.259
C    0.836  -0.152   3.862
C    2.258   0.195  -1.365
C    0.489  -3.469  -0.639
C    0.011  -4.748  -0.345
C   -0.620  -4.996   0.872
C   -0.760  -3.969   1.804
H    0.142   0.662   3.629
H    1.480   0.699  -1.947
H   -1.003  -5.990   1.096
H    0.581  -0.616   4.820
H    1.845   0.263   3.935
H    3.132   0.050  -2.006
H    2.557   0.804  -0.506
H    0.116  -5.548  -1.075
H   -1.248  -4.169   2.757
H    0.945  -3.290  -1.611
$end


$opt
CONSTRAINT
tors    2    1    3    5    160.0
tors    1    2    4    7    -50.0
ENDCONSTRAINT
$end

$rem
JOBTYPE                   OPT
METHOD                    B3LYP
DFT_D                     D3_OP
BASIS                     STO-3G
GEOM_OPT_MAX_CYCLES       500
SYMMETRY                  False
THRESH                    12
SCF_CONVERGENCE           8
MAX_SUB_FILE_NUM          128
MEM_STATIC                400
MEM_TOTAL                 4000
$end

--------------------------------------------------------------
 Adding empirical dispersion correction 
 ----------------------------------------------------------------
 Doing -D3(op) with
 s6 =   1.00000
 s8 =   0.78311
 a1 =   0.30000
 a2 =   4.25000
 n  =  10.00000
 -D3 energy without 3body term =     -0.0235264244 hartrees
 ----------------------------------------------------------------
             Standard Nuclear Orientation (Angstroms)
    I     Atom           X                Y                Z
 ----------------------------------------------------------------
    1      C       0.0048685472    -0.8715632622    -0.0674007052
    2      C      -1.0919198482     0.0016590604    -0.1017662538
    3      C       1.3789608532    -0.3820370773    -0.3371273238
    4      C      -0.9567219841     1.4673235547    -0.2001640574
    5      O       2.2778658221    -1.1635542316     0.3142295632
    6      O       1.6428666882     0.5580963624    -1.0666181229
    7      O      -0.0793961891     1.8906553810     0.7430785488
    8      O      -1.6538448556     2.1636006328    -0.9193155941
    9      C       0.1112497942     3.3055484230     0.7520668044
   10      C       3.6362803702    -0.7724170820     0.1130215962
   11      C      -0.2239907215    -2.2487533468     0.1045757645
   12      C      -1.5242777058    -2.7411486134     0.2370961776
   13      C      -2.6105318253    -1.8705883996     0.1829583704
   14      C      -2.3975725218    -0.5036921638     0.0120899544
   15      H       0.4798571535     3.6504889134    -0.2193577541
   16      H       3.9131930930    -0.8856432273    -0.9398426800
   17      H      -3.6244084650    -2.2560700247     0.2743863539
   18      H      -0.8213882332     3.8144524380     1.0152929683
   19      H       0.8618027747     3.5417630810     1.5113479505
   20      H       4.2706392529    -1.4319291517     0.7116990033
   21      H       3.7952127220     0.2573747806     0.4483307479
   22      H      -1.6901414468    -3.8088449794     0.3653096299
   23      H      -3.2494252071     0.1741533752    -0.0229161569
   24      H       0.6066568830    -2.9521169215     0.1126528134
 ----------------------------------------------------------------
 Molecular Point Group                 C1    NOp =  1
 Largest Abelian Subgroup              C1    NOp =  1
 Nuclear Repulsion Energy =   889.7605996999 hartrees
 There are       51 alpha and       51 beta electrons
 Requested basis set is STO-3G
 There are 38 shells and 80 basis functions

 Total QAlloc Memory Limit   4000 MB
 Mega-Array Size       392 MB
 MEM_STATIC part       400 MB
 A cutoff of  1.0D-12 yielded    631 shell pairs
 There are      3151 function pairs
 
 -------------------------------------------------------
 OpenMP Integral Computing Module                       
 Release: version 1.0, May 2013, Q-Chem Inc. Pittsburgh 
 -------------------------------------------------------
 Integral Job Info:
 Integral job number is                      11
 Integral operator is                         1
 short-range coefficients                     0
 long-range coefficients              100000000
 Omega coefficients                           0
 if combine SR and LR in K                    0
 Integral screening is                        0
 Integral computing path is                   2
 max size of driver memory is            800000
 size of driver memory is                 45569
 size of scratch memory is               945100
 max col of scratch BK array                289
 max len of scratch array in speh3           22
 max len of scratch index in speh4            8
 max int batch size is                      520
 min int batch size is                       52
 fixed nKL is                                52
 max L of basis functions is                  1
 order of int derivative is                   0
 number of shells is                         38
 number of basis is                          80
 number of cartesian basis is                80
 number of contracted shell pairs           631
 number of primitive shell pairs           3502
 maxK2 (contraction) of shell pair            9
 max number of K2 of shell pair               1
 max number of CS2 of shell pair             91
 max number of PS2 of shell pair            468
 mem total for path MDJ                   25386
 -------------------------------------------------------
 Smallest overlap matrix eigenvalue = 1.73E-01

 Scale SEOQF with 1.000000e-01/1.000000e-01/1.000000e+00

 Standard Electronic Orientation quadrupole field applied
 Nucleus-field energy     =     0.0000000031 hartrees
 Guess from superposition of atomic densities
 Warning:  Energy on first SCF cycle will be non-variational
 A restricted hybrid HF-DFT SCF calculation will be
 performed using Pulay DIIS extrapolation
 Exchange:     0.2000 Hartree-Fock + 0.0800 Slater + 0.7200 B88
 Correlation:  0.1900 VWN1RPA + 0.8100 LYP
 Using SG-1 standard quadrature grid
 Dispersion:   Grimme D3
 SCF converges when DIIS error is below 1.0E-08
 -------------------------------------------------------
 OpenMP Integral computing Module                
 Release: version 1.0, May 2013, Q-Chem Inc. Pittsburgh 
 -------------------------------------------------------
 -------------------------------------------------------
 OpenMP BLAS3 based DFT computing Module                
 Release: version 1.0, May 2013, Q-Chem Inc. Pittsburgh 
 -------------------------------------------------------
 ---------------------------------------
  Cycle       Energy         DIIS Error
 ---------------------------------------
    1    -679.1330742783      1.26E-01
    2    -678.8427567625      1.47E-02
    3    -677.8244880427      3.88E-02
    4    -679.0444374619      5.12E-03
    5    -679.0653698754      1.92E-03
    6    -679.0685893525      4.89E-04
    7    -679.0688086880      1.64E-04
    8    -679.0688325245      6.17E-05
    9    -679.0688352391      2.86E-05
   10    -679.0688361181      3.14E-06
   11    -679.0688361278      1.13E-06
   12    -679.0688361290      2.41E-07
   13    -679.0688361291      1.07E-07
   14    -679.0688361291      3.14E-08
   15    -679.0688361291      6.94E-09 Convergence criterion met
 ---------------------------------------
 SCF time:  CPU 50.32 s  wall 2.14 s
 SCF   energy in the final basis set = -679.0688361291
 Total energy in the final basis set = -679.0688361291
 
 --------------------------------------------------------------
 
                    Orbital Energies (a.u.)
 --------------------------------------------------------------
 
 Alpha MOs
 -- Occupied --
-18.949 -18.946 -18.869 -18.865 -10.118 -10.113 -10.077 -10.071
-10.028 -10.026 -10.017 -10.017 -10.016 -10.015  -1.049  -1.042
 -0.958  -0.954  -0.822  -0.734  -0.725  -0.683  -0.674  -0.597
 -0.581  -0.532  -0.505  -0.479  -0.455  -0.439  -0.432  -0.426
 -0.417  -0.402  -0.389  -0.379  -0.356  -0.354  -0.340  -0.329
 -0.320  -0.310  -0.300  -0.254  -0.248  -0.203  -0.202  -0.186
 -0.179  -0.155  -0.149
 -- Virtual --
  0.048   0.070   0.134   0.148   0.250   0.283   0.307   0.353
  0.381   0.390   0.398   0.417   0.436   0.441   0.443   0.453
  0.454   0.455   0.457   0.470   0.480   0.565   0.570   0.592
  0.607   0.692   0.707   0.784   0.805
 --------------------------------------------------------------
 
          Ground-State Mulliken Net Atomic Charges

     Atom                 Charge (a.u.)
  ----------------------------------------
      1 C                    -0.016460
      2 C                    -0.013193
      3 C                     0.236815
      4 C                     0.239331
      5 O                    -0.184254
      6 O                    -0.228518
      7 O                    -0.182816
      8 O                    -0.225997
      9 C                    -0.125951
     10 C                    -0.125656
     11 C                    -0.071459
     12 C                    -0.077394
     13 C                    -0.076184
     14 C                    -0.071171
     15 H                     0.097497
     16 H                     0.093769
     17 H                     0.085582
     18 H                     0.092573
     19 H                     0.095187
     20 H                     0.096656
     21 H                     0.094826
     22 H                     0.084752
     23 H                     0.090621
     24 H                     0.091440
  ----------------------------------------
  Sum of atomic charges =    -0.000000

 -----------------------------------------------------------------
                    Cartesian Multipole Moments
 -----------------------------------------------------------------
    Charge (ESU x 10^10)
                -0.0000
    Dipole Moment (Debye)
         X       1.2481      Y      -0.8457      Z       1.4685
       Tot       2.1046
    Quadrupole Moments (Debye-Ang)
        XX     -65.3011     XY       2.1209     YY     -67.3113
        XZ      -1.3115     YZ       4.6689     ZZ     -77.0076
    Octopole Moments (Debye-Ang^2)
       XXX      32.6486    XXY     -10.3188    XYY       7.7006
       YYY      22.5743    XXZ       7.0980    XYZ      -0.6038
       YYZ      10.9090    XZZ       8.2910    YZZ       6.2845
       ZZZ      -3.3968
    Hexadecapole Moments (Debye-Ang^3)
      XXXX   -1419.9863   XXXY     -32.5552   XXYY    -506.4431
      XYYY      11.8858   YYYY   -1399.1191   XXXZ       1.8789
      XXYZ      10.6306   XYYZ     -13.3076   YYYZ      18.6340
      XXZZ    -302.3897   XYZZ      -9.9894   YYZZ    -286.2151
      XZZZ       2.4642   YZZZ      -0.6197   ZZZZ    -173.6954
 -----------------------------------------------------------------
 Calculating analytic gradient of the SCF energy
 Gradient of SCF Energy
            1           2           3           4           5           6
    1   0.0189467   0.0093829   0.0257808   0.0081785  -0.0074890  -0.0217180
    2   0.0223592   0.0288567   0.0007986   0.0175880   0.0516881  -0.0565203
    3  -0.0065385  -0.0046518  -0.0033992   0.0079344  -0.0409363   0.0412028
            7           8           9          10          11          12
    1  -0.0442633   0.0324227  -0.0030645  -0.0197333   0.0015887  -0.0032796
    2   0.0162203  -0.0474403  -0.0223198  -0.0061442   0.0052309   0.0074133
    3  -0.0457045   0.0399112   0.0002509   0.0040683   0.0000763  -0.0004771
           13          14          15          16          17          18
    1   0.0091845   0.0031285  -0.0006871  -0.0066692   0.0075847   0.0097128
    2   0.0006146   0.0015510  -0.0080860  -0.0039866   0.0028168  -0.0100635
    3  -0.0000973   0.0000466   0.0104685   0.0118894  -0.0007431   0.0009652
           19          20          21          22          23          24
    1  -0.0071448  -0.0035130  -0.0048494   0.0009058   0.0042493  -0.0086547
    2   0.0005358   0.0078508  -0.0127042   0.0083381  -0.0067165   0.0021193
    3  -0.0078565  -0.0064892   0.0011465  -0.0011694   0.0005009  -0.0003980
 Max gradient component =       5.652E-02
 RMS gradient           =       1.839E-02
 Gradient time:  CPU 10.22 s  wall 0.44 s
 Geometry Optimization Parameters
   NAtoms,    NIC,     NZ,  NCons,   NDum,   NFix, NCnnct, MaxDiis
       24     152       0       2       0       0       0       0


** CONSTRAINED OPTIMIZATION IN DELOCALIZED INTERNAL COORDINATES **
   Searching for a Minimum

   Optimization Cycle:   1

                       Coordinates (Angstroms)
     ATOM                X               Y               Z
      1  C         0.0048685472   -0.8715632622   -0.0674007052
      2  C        -1.0919198482    0.0016590604   -0.1017662538
      3  C         1.3789608532   -0.3820370773   -0.3371273238
      4  C        -0.9567219841    1.4673235547   -0.2001640574
      5  O         2.2778658221   -1.1635542316    0.3142295632
      6  O         1.6428666882    0.5580963624   -1.0666181229
      7  O        -0.0793961891    1.8906553810    0.7430785488
      8  O        -1.6538448556    2.1636006328   -0.9193155941
      9  C         0.1112497942    3.3055484230    0.7520668044
     10  C         3.6362803702   -0.7724170820    0.1130215962
     11  C        -0.2239907215   -2.2487533468    0.1045757645
     12  C        -1.5242777058   -2.7411486134    0.2370961776
     13  C        -2.6105318253   -1.8705883996    0.1829583704
     14  C        -2.3975725218   -0.5036921638    0.0120899544
     15  H         0.4798571535    3.6504889134   -0.2193577541
     16  H         3.9131930930   -0.8856432273   -0.9398426800
     17  H        -3.6244084650   -2.2560700247    0.2743863539
     18  H        -0.8213882332    3.8144524380    1.0152929683
     19  H         0.8618027747    3.5417630810    1.5113479505
     20  H         4.2706392529   -1.4319291517    0.7116990033
     21  H         3.7952127220    0.2573747806    0.4483307479
     22  H        -1.6901414468   -3.8088449794    0.3653096299
     23  H        -3.2494252071    0.1741533752   -0.0229161569
     24  H         0.6066568830   -2.9521169215    0.1126528134
   Point Group: c1    Number of degrees of freedom:    66


   Energy is   -679.068836129

              Constraints and their Current Values
                                        Value     Constraint
   Dihedral:        2   1   3   5      152.312      160.000
   Dihedral:        1   2   4   7      -50.252      -50.000

 Attempting to Generate Delocalized Internal Coordinates

   Using Lagrange Multiplier Algorithm


 68 Hessian modes will be used to form the next step
  Hessian Eigenvalues:
    -0.977753   -0.977753    0.045000    0.045000    0.045000    0.045000
     0.045000    0.045000    0.045001    0.045001    0.045002    0.045005
     0.045013    0.045027    0.045031    0.045181    0.045530    0.113864
     0.113915    0.116869    0.116916    0.159954    0.159981    0.159993
     0.160000    0.160000    0.160000    0.160000    0.160000    0.160000
     0.160000    0.219995    0.224790    0.244310    0.248434    0.248766
     0.249810    0.249910    0.250000    0.250000    0.250000    0.250000
     0.341816    0.342672    0.342857    0.342897    0.342929    0.344092
     0.344169    0.349054    0.349829    0.349904    0.350351    0.351283
     0.412994    0.413052    0.413205    0.417941    0.448645    0.456536
     0.460014    0.465920    0.534366    0.537734    0.954630    0.958839
     1.022753    1.022753

 Minimum Search - Taking P-RFO Step
 Searching for Lamda that Maximizes Along the Constraint modes Only
 Value Taken    Lamda =   0.00920766
 Searching for Lamda that Minimizes Along All other modes
 Value Taken    Lamda =  -0.06027181
 Calculated Step too Large.  Step scaled by  0.851225
 Step Taken.  Stepsize is  0.300000

                             Maximum     Tolerance    Cnvgd?
         Gradient            0.134173       0.000300      NO
         Displacement        0.145223       0.001200      NO
         Energy change     *********       0.000001      NO


 New Cartesian Coordinates Obtained by Inverse Iteration

 Displacement from previous Coordinates is:  0.894884
 Adding empirical dispersion correction 
 ----------------------------------------------------------------
 Doing -D3(op) with
 s6 =   1.00000
 s8 =   0.78311
 a1 =   0.30000
 a2 =   4.25000
 n  =  10.00000
 -D3 energy without 3body term =     -0.0233789928 hartrees
 ----------------------------------------------------------------
             Standard Nuclear Orientation (Angstroms)
    I     Atom           X                Y                Z
 ----------------------------------------------------------------
    1      C      -0.0251647230    -0.9005622274    -0.0011325628
    2      C      -1.1402843953    -0.0231938956    -0.0708013449
    3      C       1.3881690971    -0.3666510302    -0.2527542456
    4      C      -0.9855544933     1.4988977736    -0.1870108196
    5      O       2.3331625886    -1.2318943993     0.3256793486
    6      O       1.6714077037     0.6224847798    -0.9645778828
    7      O      -0.0937672822     1.9539763682     0.7995392044
    8      O      -1.6386163421     2.2351746495    -0.9584861241
    9      C       0.1092922831     3.4044643468     0.7494121340
   10      C       3.7116965094    -0.8083252303     0.0696993283
   11      C      -0.2510617098    -2.2923740491     0.1446179837
   12      C      -1.5590033641    -2.8040186526     0.2361393279
   13      C      -2.6627849003    -1.9324008721     0.1580360556
   14      C      -2.4528286997    -0.5501379707     0.0005764272
   15      H       0.5045103524     3.7283194414    -0.2340429212
   16      H       3.9562858298    -0.8366662999    -1.0113653525
   17      H      -3.6842222303    -2.3295968298     0.2155462830
   18      H      -0.8285080820     3.9564200699     0.9622250777
   19      H       0.8514362845     3.6534587837     1.5290986281
   20      H       4.3695414269    -1.5202869859     0.6001724858
   21      H       3.9064652362     0.2115898104     0.4573922358
   22      H      -1.7177086112    -3.8838586633     0.3500239592
   23      H      -3.3095055684     0.1328922419    -0.0627472357
   24      H       0.6028780405    -2.9809536376     0.1683876085
 ----------------------------------------------------------------
 Molecular Point Group                 C1    NOp =  1
 Largest Abelian Subgroup              C1    NOp =  1
 Nuclear Repulsion Energy =   871.3033648451 hartrees
 There are       51 alpha and       51 beta electrons
 Applying Cartesian multipole field
    Component          Value
    ---------          -----
     (2,0,0)        1.00000E-11
     (0,2,0)        2.00000E-11
     (0,0,2)       -3.00000E-10
 Nucleus-field energy     =     0.0000000060 hartrees
 Requested basis set is STO-3G
 There are 38 shells and 80 basis functions
 A cutoff of  1.0D-12 yielded    628 shell pairs
 There are      3145 function pairs
 Smallest overlap matrix eigenvalue = 1.81E-01
 Guess MOs from SCF MO coefficient file
 Reading MOs from coefficient file
 Reading MOs from coefficient file
 A restricted hybrid HF-DFT SCF calculation will be
 performed using Pulay DIIS extrapolation
 Exchange:     0.2000 Hartree-Fock + 0.0800 Slater + 0.7200 B88
 Correlation:  0.1900 VWN1RPA + 0.8100 LYP
 Using SG-1 standard quadrature grid
 Dispersion:   Grimme D3
 SCF converges when DIIS error is below 1.0E-08
 Geometry optimization detected.  Setting ReadMinima to 0
 Setting SaveMinima to 0
 -------------------------------------------------------
 OpenMP Integral computing Module                
 Release: version 1.0, May 2013, Q-Chem Inc. Pittsburgh 
 -------------------------------------------------------
 -------------------------------------------------------
 OpenMP BLAS3 based DFT computing Module                
 Release: version 1.0, May 2013, Q-Chem Inc. Pittsburgh 
 -------------------------------------------------------
 ---------------------------------------
  Cycle       Energy         DIIS Error
 ---------------------------------------
    1    -678.9264193180      8.00E-03
    2    -679.0863537787      2.90E-03
    3    -679.0708971047      5.03E-03
    4    -679.0937518408      7.28E-04
    5    -679.0942650231      1.94E-04
    6    -679.0943010798      5.44E-05
    7    -679.0943038081      2.34E-05
    8    -679.0943042807      1.26E-05
    9    -679.0943044232      2.76E-06
   10    -679.0943044316      5.11E-07
   11    -679.0943044319      1.65E-07
   12    -679.0943044320      5.13E-08
   13    -679.0943044320      2.40E-08
   14    -679.0943044320      6.03E-09 Convergence criterion met
 ---------------------------------------
 SCF time:  CPU 43.40 s  wall 1.83 s
 SCF   energy in the final basis set = -679.0943044320
 Total energy in the final basis set = -679.0943044320
 
 --------------------------------------------------------------
 
                    Orbital Energies (a.u.)
 --------------------------------------------------------------
 
 Alpha MOs
 -- Occupied --
-18.943 -18.938 -18.872 -18.868 -10.108 -10.105 -10.071 -10.066
-10.031 -10.030 -10.020 -10.019 -10.019 -10.018  -1.021  -1.015
 -0.941  -0.936  -0.815  -0.724  -0.717  -0.672  -0.663  -0.589
 -0.576  -0.524  -0.498  -0.467  -0.445  -0.423  -0.418  -0.416
 -0.409  -0.398  -0.379  -0.371  -0.355  -0.349  -0.335  -0.320
 -0.317  -0.305  -0.293  -0.256  -0.249  -0.202  -0.200  -0.182
 -0.174  -0.154  -0.149
 -- Virtual --
  0.042   0.066   0.122   0.135   0.237   0.255   0.277   0.329
  0.353   0.359   0.380   0.398   0.420   0.422   0.427   0.430
  0.435   0.438   0.442   0.447   0.453   0.540   0.547   0.569
  0.581   0.653   0.654   0.750   0.775
 --------------------------------------------------------------
 
          Ground-State Mulliken Net Atomic Charges

     Atom                 Charge (a.u.)
  ----------------------------------------
      1 C                    -0.014590
      2 C                    -0.010932
      3 C                     0.216142
      4 C                     0.218803
      5 O                    -0.172768
      6 O                    -0.213526
      7 O                    -0.171045
      8 O                    -0.212434
      9 C                    -0.123738
     10 C                    -0.123927
     11 C                    -0.071574
     12 C                    -0.075045
     13 C                    -0.073670
     14 C                    -0.071520
     15 H                     0.093775
     16 H                     0.090114
     17 H                     0.085354
     18 H                     0.088629
     19 H                     0.091582
     20 H                     0.092665
     21 H                     0.091207
     22 H                     0.084654
     23 H                     0.089639
     24 H                     0.092205
  ----------------------------------------
  Sum of atomic charges =    -0.000000

 -----------------------------------------------------------------
                    Cartesian Multipole Moments
 -----------------------------------------------------------------
    Charge (ESU x 10^10)
                -0.0000
    Dipole Moment (Debye)
         X       1.0358      Y      -0.9443      Z       1.2646
       Tot       1.8878
    Quadrupole Moments (Debye-Ang)
        XX     -64.7864     XY       2.3592     YY     -67.0864
        XZ      -1.3970     YZ       4.4505     ZZ     -77.0247
    Octopole Moments (Debye-Ang^2)
       XXX      33.7717    XXY     -10.2692    XYY       6.8117
       YYY      23.7344    XXZ       4.4321    XYZ      -0.7288
       YYZ      10.2117    XZZ       9.5158    YZZ       6.5574
       ZZZ      -7.5530
    Hexadecapole Moments (Debye-Ang^3)
      XXXX   -1463.0800   XXXY     -36.2834   XXYY    -527.7316
      XYYY      10.3845   YYYY   -1465.7378   XXXZ      -1.2295
      XXYZ      10.9975   XYYZ     -13.3500   YYYZ      21.2805
      XXZZ    -312.5016   XYZZ     -10.1590   YYZZ    -301.6157
      XZZZ      -1.3112   YZZZ      -0.1575   ZZZZ    -169.8161
 -----------------------------------------------------------------
 Calculating analytic gradient of the SCF energy
 Gradient of SCF Energy
            1           2           3           4           5           6
    1   0.0033496   0.0023039   0.0083168   0.0122154  -0.0026961  -0.0033819
    2   0.0054534   0.0040406  -0.0061824   0.0004626   0.0178516  -0.0083032
    3   0.0003300  -0.0039406   0.0105409   0.0101828  -0.0143355   0.0010165
            7           8           9          10          11          12
    1  -0.0155766   0.0008290   0.0008281  -0.0075876   0.0005218  -0.0007053
    2   0.0068534  -0.0056398  -0.0088786  -0.0046049   0.0005484  -0.0003865
    3  -0.0160997   0.0041888   0.0028379   0.0030218  -0.0004009   0.0003020
           13          14          15          16          17          18
    1   0.0002213  -0.0014119   0.0010606   0.0003097   0.0009013   0.0012315
    2  -0.0003257   0.0003325  -0.0003333  -0.0016128   0.0002074  -0.0005539
    3   0.0004357  -0.0000167   0.0014488   0.0011496  -0.0001115   0.0014309
           19          20          21          22          23          24
    1  -0.0006175   0.0014264   0.0002397  -0.0000304   0.0004136  -0.0021613
    2   0.0022471   0.0017078  -0.0015744   0.0009095  -0.0013099  -0.0009089
    3  -0.0012967  -0.0010782   0.0011681  -0.0001884   0.0000033  -0.0005890
 Max gradient component =       1.785E-02
 RMS gradient           =       5.242E-03
 Gradient time:  CPU 9.55 s  wall 0.40 s
 Geometry Optimization Parameters
   NAtoms,    NIC,     NZ,  NCons,   NDum,   NFix, NCnnct, MaxDiis
       24     152       0       2       0       0       0       0

 Cartesian Hessian Update
 Hessian Updated using BFGS Update


** CONSTRAINED OPTIMIZATION IN DELOCALIZED INTERNAL COORDINATES **
   Searching for a Minimum

   Optimization Cycle:   2

                       Coordinates (Angstroms)
     ATOM                X               Y               Z
      1  C        -0.0251647230   -0.9005622274   -0.0011325628
      2  C        -1.1402843953   -0.0231938956   -0.0708013449
      3  C         1.3881690971   -0.3666510302   -0.2527542456
      4  C        -0.9855544933    1.4988977736   -0.1870108196
      5  O         2.3331625886   -1.2318943993    0.3256793486
      6  O         1.6714077037    0.6224847798   -0.9645778828
      7  O        -0.0937672822    1.9539763682    0.7995392044
      8  O        -1.6386163421    2.2351746495   -0.9584861241
      9  C         0.1092922831    3.4044643468    0.7494121340
     10  C         3.7116965094   -0.8083252303    0.0696993283
     11  C        -0.2510617098   -2.2923740491    0.1446179837
     12  C        -1.5590033641   -2.8040186526    0.2361393279
     13  C        -2.6627849003   -1.9324008721    0.1580360556
     14  C        -2.4528286997   -0.5501379707    0.0005764272
     15  H         0.5045103524    3.7283194414   -0.2340429212
     16  H         3.9562858298   -0.8366662999   -1.0113653525
     17  H        -3.6842222303   -2.3295968298    0.2155462830
     18  H        -0.8285080820    3.9564200699    0.9622250777
     19  H         0.8514362845    3.6534587837    1.5290986281
     20  H         4.3695414269   -1.5202869859    0.6001724858
     21  H         3.9064652362    0.2115898104    0.4573922358
     22  H        -1.7177086112   -3.8838586633    0.3500239592
     23  H        -3.3095055684    0.1328922419   -0.0627472357
     24  H         0.6028780405   -2.9809536376    0.1683876085
   Point Group: c1    Number of degrees of freedom:    66


   Energy is   -679.094304432

              Constraints and their Current Values
                                        Value     Constraint
   Dihedral:        2   1   3   5      158.646      160.000
   Dihedral:        1   2   4   7      -50.052      -50.000
 Hessian Updated using BFGS Update

   Using Lagrange Multiplier Algorithm


 60 Hessian modes will be used to form the next step
  Hessian Eigenvalues:
    -0.977943   -0.977580    0.044738    0.045000    0.045000    0.045000
     0.045001    0.045001    0.045002    0.045005    0.045012    0.045023
     0.045076    0.045188    0.045672    0.113795    0.113901    0.116869
     0.116916    0.158699    0.159962    0.159981    0.159993    0.160000
     0.161916    0.219995    0.224829    0.237607    0.244398    0.248672
     0.249301    0.249841    0.249975    0.251848    0.342476    0.342741
     0.342875    0.342916    0.343881    0.344136    0.346051    0.349084
     0.349851    0.349936    0.350377    0.374264    0.412882    0.413059
     0.414581    0.424649    0.449331    0.456815    0.465891    0.474983
     0.521311    0.536596    0.956654    0.990587    1.022671    1.023718

 Minimum Search - Taking P-RFO Step
 Searching for Lamda that Maximizes Along the Constraint modes Only
 Value Taken    Lamda =   0.00019924
 Searching for Lamda that Minimizes Along All other modes
 Value Taken    Lamda =  -0.00516106
 Step Taken.  Stepsize is  0.184602

                             Maximum     Tolerance    Cnvgd?
         Gradient            0.023630       0.000300      NO
         Displacement        0.071489       0.001200      NO
         Energy change     -0.025468       0.000001      NO


 New Cartesian Coordinates Obtained by Inverse Iteration

 Displacement from previous Coordinates is:  0.650152
 Adding empirical dispersion correction 
 ----------------------------------------------------------------
 Doing -D3(op) with
 s6 =   1.00000
 s8 =   0.78311
 a1 =   0.30000
 a2 =   4.25000
 n  =  10.00000
 -D3 energy without 3body term =     -0.0234969952 hartrees
 ----------------------------------------------------------------
             Standard Nuclear Orientation (Angstroms)
    I     Atom           X                Y                Z
 ----------------------------------------------------------------
    1      C      -0.0458788497    -0.9200606318     0.0189812574
    2      C      -1.1596651061    -0.0376509250    -0.0359210489
    3      C       1.3700210325    -0.3652494013    -0.2141761734
    4      C      -0.9767973739     1.4906351177    -0.1563383388
    5      O       2.3303671758    -1.2686872662     0.3280997747
    6      O       1.6600570039     0.6858532543    -0.8386849202
    7      O      -0.0491386478     1.9219088467     0.8356358902
    8      O      -1.5879886372     2.2554956931    -0.9413449730
    9      C       0.1640651174     3.3766410114     0.7052306866
   10      C       3.6895802135    -0.7533261929     0.0717221298
   11      C      -0.2658997023    -2.3133505471     0.1349423587
   12      C      -1.5755706450    -2.8248301834     0.2123016186
   13      C      -2.6808037468    -1.9487092513     0.1496406796
   14      C      -2.4718570296    -0.5615453691     0.0213121430
   15      H       0.5476195319     3.6439268683    -0.3013310378
   16      H       3.9092696186    -0.6985025745    -1.0152279784
   17      H      -3.7040738190    -2.3466217894     0.1967360584
   18      H      -0.7704984441     3.9467971017     0.8909277552
   19      H       0.9170527985     3.6397326709     1.4715466897
   20      H       4.3795475755    -1.4716453119     0.5529503232
   21      H       3.8369318831     0.2551263835     0.5112476106
   22      H      -1.7348888572    -3.9079397423     0.3064920091
   23      H      -3.3258782675     0.1283974722    -0.0352338505
   24      H       0.6002621260    -2.9896377121     0.1541189346
 ----------------------------------------------------------------
 Molecular Point Group                 C1    NOp =  1
 Largest Abelian Subgroup              C1    NOp =  1
 Nuclear Repulsion Energy =   872.0908520404 hartrees
 There are       51 alpha and       51 beta electrons
 Applying Cartesian multipole field
    Component          Value
    ---------          -----
     (2,0,0)        1.00000E-11
     (0,2,0)        2.00000E-11
     (0,0,2)       -3.00000E-10
 Nucleus-field energy     =     0.0000000087 hartrees
 Requested basis set is STO-3G
 There are 38 shells and 80 basis functions
 A cutoff of  1.0D-12 yielded    629 shell pairs
 There are      3146 function pairs
 Smallest overlap matrix eigenvalue = 1.81E-01
 Guess MOs from SCF MO coefficient file
 Reading MOs from coefficient file
 Reading MOs from coefficient file
 A restricted hybrid HF-DFT SCF calculation will be
 performed using Pulay DIIS extrapolation
 Exchange:     0.2000 Hartree-Fock + 0.0800 Slater + 0.7200 B88
 Correlation:  0.1900 VWN1RPA + 0.8100 LYP
 Using SG-1 standard quadrature grid
 Dispersion:   Grimme D3
 SCF converges when DIIS error is below 1.0E-08
 Geometry optimization detected.  Setting ReadMinima to 0
 Setting SaveMinima to 0
 -------------------------------------------------------
 OpenMP Integral computing Module                
 Release: version 1.0, May 2013, Q-Chem Inc. Pittsburgh 
 -------------------------------------------------------
 -------------------------------------------------------
 OpenMP BLAS3 based DFT computing Module                
 Release: version 1.0, May 2013, Q-Chem Inc. Pittsburgh 
 -------------------------------------------------------
 ---------------------------------------
  Cycle       Energy         DIIS Error
 ---------------------------------------
    1    -679.0426009297      5.12E-03
    2    -679.0954440405      1.07E-03
    3    -679.0923112374      2.18E-03
    4    -679.0965330316      3.12E-04
    5    -679.0966247381      9.87E-05
    6    -679.0966336955      3.13E-05
    7    -679.0966346437      1.18E-05
    8    -679.0966347754      5.81E-06
    9    -679.0966348038      2.01E-06
   10    -679.0966348079      3.19E-07
   11    -679.0966348081      7.74E-08
   12    -679.0966348081      3.26E-08
   13    -679.0966348081      1.19E-08
   14    -679.0966348081      2.35E-09 Convergence criterion met
 ---------------------------------------
 SCF time:  CPU 43.21 s  wall 1.82 s
 SCF   energy in the final basis set = -679.0966348081
 Total energy in the final basis set = -679.0966348081
 
 --------------------------------------------------------------
 
                    Orbital Energies (a.u.)
 --------------------------------------------------------------
 
 Alpha MOs
 -- Occupied --
-18.941 -18.935 -18.875 -18.872 -10.105 -10.102 -10.067 -10.061
-10.031 -10.030 -10.021 -10.021 -10.020 -10.019  -1.016  -1.008
 -0.938  -0.932  -0.816  -0.723  -0.716  -0.667  -0.658  -0.588
 -0.576  -0.522  -0.496  -0.464  -0.443  -0.420  -0.417  -0.413
 -0.406  -0.398  -0.374  -0.367  -0.357  -0.348  -0.334  -0.317
 -0.316  -0.305  -0.291  -0.261  -0.253  -0.203  -0.199  -0.183
 -0.172  -0.155  -0.151
 -- Virtual --
  0.040   0.065   0.120   0.133   0.237   0.251   0.274   0.318
  0.340   0.352   0.376   0.392   0.417   0.420   0.426   0.428
  0.434   0.435   0.439   0.444   0.450   0.534   0.545   0.566
  0.578   0.645   0.647   0.747   0.772
 --------------------------------------------------------------
 
          Ground-State Mulliken Net Atomic Charges

     Atom                 Charge (a.u.)
  ----------------------------------------
      1 C                    -0.014848
      2 C                    -0.011423
      3 C                     0.210570
      4 C                     0.213941
      5 O                    -0.167386
      6 O                    -0.209651
      7 O                    -0.165217
      8 O                    -0.208334
      9 C                    -0.125762
     10 C                    -0.126207
     11 C                    -0.071873
     12 C                    -0.074478
     13 C                    -0.072788
     14 C                    -0.071919
     15 H                     0.093633
     16 H                     0.089414
     17 H                     0.085461
     18 H                     0.087740
     19 H                     0.089531
     20 H                     0.090952
     21 H                     0.091056
     22 H                     0.084890
     23 H                     0.089412
     24 H                     0.093287
  ----------------------------------------
  Sum of atomic charges =    -0.000000

 -----------------------------------------------------------------
                    Cartesian Multipole Moments
 -----------------------------------------------------------------
    Charge (ESU x 10^10)
                 0.0000
    Dipole Moment (Debye)
         X       0.8693      Y      -0.9973      Z       1.0595
       Tot       1.6949
    Quadrupole Moments (Debye-Ang)
        XX     -64.9827     XY       2.5562     YY     -67.7525
        XZ      -1.4808     YZ       4.1052     ZZ     -76.7742
    Octopole Moments (Debye-Ang^2)
       XXX      30.7667    XXY      -8.5410    XYY       5.6727
       YYY      22.2565    XXZ       2.6911    XYZ      -0.8062
       YYZ       8.2678    XZZ      10.0160    YZZ       7.0073
       ZZZ     -11.1689
    Hexadecapole Moments (Debye-Ang^3)
      XXXX   -1465.4739   XXXY     -49.0047   XXYY    -527.4569
      XYYY      -5.0486   YYYY   -1474.4893   XXXZ      -4.5227
      XXYZ      10.3257   XYYZ     -12.9820   YYYZ      20.3299
      XXZZ    -309.0051   XYZZ     -15.0024   YYZZ    -301.7514
      XZZZ      -5.1936   YZZZ      -0.5929   ZZZZ    -159.6771
 -----------------------------------------------------------------
 Calculating analytic gradient of the SCF energy
 Gradient of SCF Energy
            1           2           3           4           5           6
    1  -0.0009878   0.0013160   0.0047740   0.0059486  -0.0008719  -0.0006051
    2  -0.0006039  -0.0011518  -0.0033576   0.0020579   0.0012340   0.0033297
    3   0.0036194  -0.0008910   0.0041048   0.0048641  -0.0017635  -0.0023800
            7           8           9          10          11          12
    1  -0.0006929  -0.0025603  -0.0020228  -0.0044815  -0.0002535   0.0007100
    2  -0.0009455   0.0020004  -0.0040028   0.0004165   0.0004263  -0.0003039
    3  -0.0020350  -0.0024576  -0.0014805   0.0000124  -0.0012191  -0.0000550
           13          14          15          16          17          18
    1  -0.0005226  -0.0002077   0.0001588   0.0002296  -0.0002295  -0.0004891
    2   0.0006411   0.0001045   0.0003983  -0.0000213   0.0000753   0.0003990
    3   0.0000673   0.0000274  -0.0005777  -0.0005874  -0.0000293   0.0001795
           19          20          21          22          23          24
    1   0.0003483  -0.0001873   0.0003615   0.0001731  -0.0001245   0.0002166
    2  -0.0005841  -0.0004875   0.0005345  -0.0002199   0.0004023  -0.0003416
    3   0.0003822   0.0004245   0.0002048   0.0000598  -0.0002344  -0.0002357
 Max gradient component =       5.949E-03
 RMS gradient           =       1.773E-03
 Gradient time:  CPU 9.90 s  wall 0.42 s
 Geometry Optimization Parameters
   NAtoms,    NIC,     NZ,  NCons,   NDum,   NFix, NCnnct, MaxDiis
       24     152       0       2       0       0       0       0

 Cartesian Hessian Update
 Hessian Updated using BFGS Update


** CONSTRAINED OPTIMIZATION IN DELOCALIZED INTERNAL COORDINATES **
   Searching for a Minimum

   Optimization Cycle:   3

                       Coordinates (Angstroms)
     ATOM                X               Y               Z
      1  C        -0.0458788497   -0.9200606318    0.0189812574
      2  C        -1.1596651061   -0.0376509250   -0.0359210489
      3  C         1.3700210325   -0.3652494013   -0.2141761734
      4  C        -0.9767973739    1.4906351177   -0.1563383388
      5  O         2.3303671758   -1.2686872662    0.3280997747
      6  O         1.6600570039    0.6858532543   -0.8386849202
      7  O        -0.0491386478    1.9219088467    0.8356358902
      8  O        -1.5879886372    2.2554956931   -0.9413449730
      9  C         0.1640651174    3.3766410114    0.7052306866
     10  C         3.6895802135   -0.7533261929    0.0717221298
     11  C        -0.2658997023   -2.3133505471    0.1349423587
     12  C        -1.5755706450   -2.8248301834    0.2123016186
     13  C        -2.6808037468   -1.9487092513    0.1496406796
     14  C        -2.4718570296   -0.5615453691    0.0213121430
     15  H         0.5476195319    3.6439268683   -0.3013310378
     16  H         3.9092696186   -0.6985025745   -1.0152279784
     17  H        -3.7040738190   -2.3466217894    0.1967360584
     18  H        -0.7704984441    3.9467971017    0.8909277552
     19  H         0.9170527985    3.6397326709    1.4715466897
     20  H         4.3795475755   -1.4716453119    0.5529503232
     21  H         3.8369318831    0.2551263835    0.5112476106
     22  H        -1.7348888572   -3.9079397423    0.3064920091
     23  H        -3.3258782675    0.1283974722   -0.0352338505
     24  H         0.6002621260   -2.9896377121    0.1541189346
   Point Group: c1    Number of degrees of freedom:    66


   Energy is   -679.096634808

              Constraints and their Current Values
                                        Value     Constraint
   Dihedral:        2   1   3   5      159.996      160.000
   Dihedral:        1   2   4   7      -50.000      -50.000
 Hessian Updated using BFGS Update

   Using Lagrange Multiplier Algorithm


 63 Hessian modes will be used to form the next step
  Hessian Eigenvalues:
    -0.977833   -0.974520    0.042594    0.045000    0.045000    0.045000
     0.045001    0.045001    0.045002    0.045005    0.045012    0.045022
     0.045026    0.045177    0.045620    0.047567    0.112931    0.113895
     0.116866    0.116916    0.158326    0.159972    0.159993    0.159995
     0.160000    0.160909    0.162954    0.219971    0.225261    0.229541
     0.244426    0.249118    0.249636    0.249946    0.249990    0.251058
     0.304355    0.342725    0.342872    0.342915    0.343179    0.343880
     0.344135    0.346276    0.349251    0.349849    0.350191    0.350662
     0.376210    0.394975    0.413060    0.413197    0.429654    0.448250
     0.456805    0.466396    0.474861    0.477349    0.536290    0.956603
     1.003071    1.022759    1.045186

 Minimum Search - Taking P-RFO Step
 Searching for Lamda that Maximizes Along the Constraint modes Only
 Value Taken    Lamda =   0.00001912
 Searching for Lamda that Minimizes Along All other modes
 Value Taken    Lamda =  -0.00064559
 Step Taken.  Stepsize is  0.061151

                             Maximum     Tolerance    Cnvgd?
         Gradient            0.007267       0.000300      NO
         Displacement        0.018393       0.001200      NO
         Energy change     -0.002330       0.000001      NO


 New Cartesian Coordinates Obtained by Inverse Iteration

 Displacement from previous Coordinates is:  0.274512
 Adding empirical dispersion correction 
 ----------------------------------------------------------------
 Doing -D3(op) with
 s6 =   1.00000
 s8 =   0.78311
 a1 =   0.30000
 a2 =   4.25000
 n  =  10.00000
 -D3 energy without 3body term =     -0.0234069866 hartrees
 ----------------------------------------------------------------
             Standard Nuclear Orientation (Angstroms)
    I     Atom           X                Y                Z
 ----------------------------------------------------------------
    1      C      -0.0438476557    -0.9108676712     0.0084166321
    2      C      -1.1633534230    -0.0307865710    -0.0438959055
    3      C       1.3775806619    -0.3690331147    -0.2249849500
    4      C      -0.9966199176     1.5012864546    -0.1563116760
    5      O       2.3335249718    -1.2860144262     0.3212077960
    6      O       1.6871579012     0.6797243559    -0.8407408816
    7      O      -0.0706965437     1.9474558593     0.8415956450
    8      O      -1.6060071169     2.2630160575    -0.9428042845
    9      C       0.1408001579     3.4087755986     0.7155998578
   10      C       3.7071258337    -0.7924268906     0.0661480772
   11      C      -0.2594262896    -2.3038702664     0.1371149517
   12      C      -1.5661414396    -2.8216728472     0.2163704153
   13      C      -2.6740491741    -1.9518398721     0.1474506231
   14      C      -2.4715508591    -0.5641153702     0.0156118718
   15      H       0.5297390500     3.6747257733    -0.2881918348
   16      H       3.9261886896    -0.7397551584    -1.0201067078
   17      H      -3.6949997504    -2.3548137818     0.1976155053
   18      H      -0.7976980374     3.9738016380     0.8913337812
   19      H       0.8859066631     3.6770292997     1.4870640845
   20      H       4.3868815774    -1.5196313230     0.5472945901
   21      H       3.8657864424     0.2140681845     0.5040046605
   22      H      -1.7214453864    -3.9045134987     0.3177085813
   23      H      -3.3300652173     0.1199040645    -0.0376915762
   24      H       0.6110438124    -2.9736889730     0.1638183420
 ----------------------------------------------------------------
 Molecular Point Group                 C1    NOp =  1
 Largest Abelian Subgroup              C1    NOp =  1
 Nuclear Repulsion Energy =   869.3813298318 hartrees
 There are       51 alpha and       51 beta electrons
 Applying Cartesian multipole field
    Component          Value
    ---------          -----
     (2,0,0)        1.00000E-11
     (0,2,0)        2.00000E-11
     (0,0,2)       -3.00000E-10
 Nucleus-field energy     =     0.0000000087 hartrees
 Requested basis set is STO-3G
 There are 38 shells and 80 basis functions
 A cutoff of  1.0D-12 yielded    629 shell pairs
 There are      3146 function pairs
 Smallest overlap matrix eigenvalue = 1.81E-01
 Guess MOs from SCF MO coefficient file
 Reading MOs from coefficient file
 Reading MOs from coefficient file
 A restricted hybrid HF-DFT SCF calculation will be
 performed using Pulay DIIS extrapolation
 Exchange:     0.2000 Hartree-Fock + 0.0800 Slater + 0.7200 B88
 Correlation:  0.1900 VWN1RPA + 0.8100 LYP
 Using SG-1 standard quadrature grid
 Dispersion:   Grimme D3
 SCF converges when DIIS error is below 1.0E-08
 Geometry optimization detected.  Setting ReadMinima to 0
 Setting SaveMinima to 0
 -------------------------------------------------------
 OpenMP Integral computing Module                
 Release: version 1.0, May 2013, Q-Chem Inc. Pittsburgh 
 -------------------------------------------------------
 -------------------------------------------------------
 OpenMP BLAS3 based DFT computing Module                
 Release: version 1.0, May 2013, Q-Chem Inc. Pittsburgh 
 -------------------------------------------------------
 ---------------------------------------
  Cycle       Energy         DIIS Error
 ---------------------------------------
    1    -679.0905704438      1.28E-03
    2    -679.0968025835      3.45E-04
    3    -679.0963575735      7.71E-04
    4    -679.0969161333      5.64E-05
    5    -679.0969190155      1.78E-05
    6    -679.0969192993      5.78E-06
    7    -679.0969193328      2.47E-06
    8    -679.0969193383      1.03E-06
    9    -679.0969193391      4.74E-07
   10    -679.0969193393      7.48E-08
   11    -679.0969193394      1.85E-08
   12    -679.0969193394      9.39E-09 Convergence criterion met
 ---------------------------------------
 SCF time:  CPU 37.98 s  wall 1.61 s
 SCF   energy in the final basis set = -679.0969193394
 Total energy in the final basis set = -679.0969193394
 
 --------------------------------------------------------------
 
                    Orbital Energies (a.u.)
 --------------------------------------------------------------
 
 Alpha MOs
 -- Occupied --
-18.938 -18.933 -18.876 -18.874 -10.105 -10.102 -10.066 -10.061
-10.032 -10.032 -10.021 -10.021 -10.021 -10.020  -1.013  -1.006
 -0.937  -0.932  -0.816  -0.723  -0.717  -0.666  -0.657  -0.589
 -0.577  -0.523  -0.495  -0.462  -0.443  -0.419  -0.417  -0.412
 -0.405  -0.399  -0.374  -0.366  -0.356  -0.349  -0.334  -0.318
 -0.316  -0.305  -0.292  -0.260  -0.253  -0.204  -0.199  -0.181
 -0.172  -0.155  -0.151
 -- Virtual --
  0.039   0.064   0.119   0.133   0.235   0.248   0.270   0.317
  0.337   0.350   0.375   0.390   0.416   0.421   0.427   0.429
  0.434   0.436   0.440   0.444   0.450   0.533   0.545   0.565
  0.578   0.644   0.647   0.746   0.771
 --------------------------------------------------------------
 
          Ground-State Mulliken Net Atomic Charges

     Atom                 Charge (a.u.)
  ----------------------------------------
      1 C                    -0.014225
      2 C                    -0.011090
      3 C                     0.209535
      4 C                     0.212917
      5 O                    -0.167682
      6 O                    -0.208884
      7 O                    -0.164843
      8 O                    -0.207550
      9 C                    -0.127210
     10 C                    -0.127642
     11 C                    -0.071659
     12 C                    -0.074516
     13 C                    -0.072709
     14 C                    -0.071790
     15 H                     0.093437
     16 H                     0.089281
     17 H                     0.085674
     18 H                     0.087847
     19 H                     0.090142
     20 H                     0.091174
     21 H                     0.091025
     22 H                     0.085136
     23 H                     0.089528
     24 H                     0.094104
  ----------------------------------------
  Sum of atomic charges =    -0.000000

 -----------------------------------------------------------------
                    Cartesian Multipole Moments
 -----------------------------------------------------------------
    Charge (ESU x 10^10)
                -0.0000
    Dipole Moment (Debye)
         X       0.8134      Y      -1.0148      Z       1.0478
       Tot       1.6701
    Quadrupole Moments (Debye-Ang)
        XX     -64.9952     XY       2.4711     YY     -67.6046
        XZ      -1.4806     YZ       4.0788     ZZ     -76.7661
    Octopole Moments (Debye-Ang^2)
       XXX      31.0663    XXY      -9.2611    XYY       5.7297
       YYY      22.6455    XXZ       2.9471    XYZ      -0.7828
       YYZ       8.6777    XZZ      10.0514    YZZ       6.8507
       ZZZ     -10.7775
    Hexadecapole Moments (Debye-Ang^3)
      XXXX   -1472.5941   XXXY     -42.2834   XXYY    -530.9884
      XYYY       3.4396   YYYY   -1485.7751   XXXZ      -3.6341
      XXYZ       9.9320   XYYZ     -12.7303   YYYZ      19.3575
      XXZZ    -310.8816   XYZZ     -12.0402   YYZZ    -304.1164
      XZZZ      -4.1016   YZZZ      -2.0031   ZZZZ    -160.7412
 -----------------------------------------------------------------
 Calculating analytic gradient of the SCF energy
 Gradient of SCF Energy
            1           2           3           4           5           6
    1  -0.0004660  -0.0009221   0.0003423   0.0000357  -0.0006950   0.0004338
    2  -0.0009072  -0.0007522  -0.0015535  -0.0004304   0.0000376   0.0012503
    3   0.0027631  -0.0015572   0.0009128   0.0013532  -0.0005774  -0.0013069
            7           8           9          10          11          12
    1  -0.0000318  -0.0005846   0.0006269   0.0009872  -0.0001725   0.0002894
    2   0.0001125   0.0008495   0.0007390  -0.0000920   0.0000932   0.0002383
    3  -0.0002630  -0.0007293   0.0004008   0.0002997  -0.0005818  -0.0001414
           13          14          15          16          17          18
    1   0.0000670   0.0000175  -0.0002966  -0.0000337  -0.0000371   0.0000103
    2   0.0003029  -0.0002255   0.0000140   0.0001657  -0.0000654   0.0000253
    3  -0.0000364  -0.0001845  -0.0000481   0.0000296   0.0000725  -0.0001268
           19          20          21          22          23          24
    1   0.0001524   0.0001593  -0.0000318   0.0000119   0.0000426   0.0000950
    2   0.0001332  -0.0000404   0.0000637  -0.0000422   0.0001103  -0.0000267
    3   0.0000359   0.0000833  -0.0002191  -0.0000060  -0.0001198  -0.0000530
 Max gradient component =       2.763E-03
 RMS gradient           =       6.131E-04
 Gradient time:  CPU 9.74 s  wall 0.41 s
 Geometry Optimization Parameters
   NAtoms,    NIC,     NZ,  NCons,   NDum,   NFix, NCnnct, MaxDiis
       24     152       0       2       0       0       0       0

 Cartesian Hessian Update
 Hessian Updated using BFGS Update


** CONSTRAINED OPTIMIZATION IN DELOCALIZED INTERNAL COORDINATES **
   Searching for a Minimum

   Optimization Cycle:   4

                       Coordinates (Angstroms)
     ATOM                X               Y               Z
      1  C        -0.0438476557   -0.9108676712    0.0084166321
      2  C        -1.1633534230   -0.0307865710   -0.0438959055
      3  C         1.3775806619   -0.3690331147   -0.2249849500
      4  C        -0.9966199176    1.5012864546   -0.1563116760
      5  O         2.3335249718   -1.2860144262    0.3212077960
      6  O         1.6871579012    0.6797243559   -0.8407408816
      7  O        -0.0706965437    1.9474558593    0.8415956450
      8  O        -1.6060071169    2.2630160575   -0.9428042845
      9  C         0.1408001579    3.4087755986    0.7155998578
     10  C         3.7071258337   -0.7924268906    0.0661480772
     11  C        -0.2594262896   -2.3038702664    0.1371149517
     12  C        -1.5661414396   -2.8216728472    0.2163704153
     13  C        -2.6740491741   -1.9518398721    0.1474506231
     14  C        -2.4715508591   -0.5641153702    0.0156118718
     15  H         0.5297390500    3.6747257733   -0.2881918348
     16  H         3.9261886896   -0.7397551584   -1.0201067078
     17  H        -3.6949997504   -2.3548137818    0.1976155053
     18  H        -0.7976980374    3.9738016380    0.8913337812
     19  H         0.8859066631    3.6770292997    1.4870640845
     20  H         4.3868815774   -1.5196313230    0.5472945901
     21  H         3.8657864424    0.2140681845    0.5040046605
     22  H        -1.7214453864   -3.9045134987    0.3177085813
     23  H        -3.3300652173    0.1199040645   -0.0376915762
     24  H         0.6110438124   -2.9736889730    0.1638183420
   Point Group: c1    Number of degrees of freedom:    66


   Energy is   -679.096919339

              Constraints and their Current Values
                                        Value     Constraint
   Dihedral:        2   1   3   5      160.000      160.000
   Dihedral:        1   2   4   7      -50.000      -50.000
 Hessian Updated using BFGS Update

   Using Lagrange Multiplier Algorithm


 64 Hessian modes will be used to form the next step
  Hessian Eigenvalues:
    -0.973788    0.037743    0.045000    0.045000    0.045000    0.045001
     0.045001    0.045001    0.045003    0.045008    0.045012    0.045025
     0.045056    0.045499    0.045883    0.047939    0.113873    0.114508
     0.116867    0.116916    0.158556    0.159972    0.159995    0.159998
     0.160000    0.160016    0.160910    0.162868    0.219882    0.224096
     0.230444    0.244353    0.248997    0.249630    0.249945    0.249986
     0.249998    0.251265    0.309191    0.342727    0.342873    0.342916
     0.343861    0.343892    0.344137    0.347558    0.349333    0.349856
     0.350199    0.352018    0.368303    0.411425    0.413076    0.413261
     0.446344    0.456765    0.463812    0.465551    0.470310    0.514312
     0.544886    0.957026    0.979107    1.040202

 Minimum Search - Taking P-RFO Step
 Searching for Lamda that Maximizes Along the Constraint modes Only
 Value Taken    Lamda =   0.00000082
 Searching for Lamda that Minimizes Along All other modes
 Value Taken    Lamda =  -0.00006088
 Step Taken.  Stepsize is  0.027707

                             Maximum     Tolerance    Cnvgd?
         Gradient            0.002163       0.000300      NO
         Displacement        0.010422       0.001200      NO
         Energy change     -0.000285       0.000001      NO


 New Cartesian Coordinates Obtained by Inverse Iteration

 Displacement from previous Coordinates is:  0.057690
 Adding empirical dispersion correction 
 ----------------------------------------------------------------
 Doing -D3(op) with
 s6 =   1.00000
 s8 =   0.78311
 a1 =   0.30000
 a2 =   4.25000
 n  =  10.00000
 -D3 energy without 3body term =     -0.0234301304 hartrees
 ----------------------------------------------------------------
             Standard Nuclear Orientation (Angstroms)
    I     Atom           X                Y                Z
 ----------------------------------------------------------------
    1      C      -0.0448246988    -0.9081573143     0.0018322891
    2      C      -1.1648764697    -0.0300850212    -0.0473846156
    3      C       1.3751256598    -0.3631862610    -0.2244421274
    4      C      -0.9978420385     1.5005056147    -0.1592207773
    5      O       2.3298784899    -1.2840659313     0.3189714609
    6      O       1.6864542985     0.6895346582    -0.8304609978
    7      O      -0.0690916843     1.9425703711     0.8380974231
    8      O      -1.6066437136     2.2635240859    -0.9437589061
    9      C       0.1448938783     3.4031661923     0.7130163904
   10      C       3.7033406040    -0.7902310743     0.0669774651
   11      C      -0.2586846715    -2.3016043123     0.1347371585
   12      C      -1.5648133397    -2.8215388612     0.2169159104
   13      C      -2.6736750842    -1.9530739442     0.1486895341
   14      C      -2.4726123197    -0.5649141695     0.0160408120
   15      H       0.5375292839     3.6692678621    -0.2893702331
   16      H       3.9235009713    -0.7325085419    -1.0188181452
   17      H      -3.6941688242    -2.3567345346     0.2012111589
   18      H      -0.7926110598     3.9699845394     0.8883460293
   19      H       0.8888399291     3.6688832843     1.4861682701
   20      H       4.3816372059    -1.5209972313     0.5442985741
   21      H       3.8630468764     0.2131661414     0.5116164322
   22      H      -1.7187473128    -3.9043013908     0.3208073510
   23      H      -3.3324186104     0.1176044073    -0.0341708556
   24      H       0.6125975806    -2.9700510471     0.1635279976
 ----------------------------------------------------------------
 Molecular Point Group                 C1    NOp =  1
 Largest Abelian Subgroup              C1    NOp =  1
 Nuclear Repulsion Energy =   869.9237288642 hartrees
 There are       51 alpha and       51 beta electrons
 Applying Cartesian multipole field
    Component          Value
    ---------          -----
     (2,0,0)        1.00000E-11
     (0,2,0)        2.00000E-11
     (0,0,2)       -3.00000E-10
 Nucleus-field energy     =     0.0000000089 hartrees
 Requested basis set is STO-3G
 There are 38 shells and 80 basis functions
 A cutoff of  1.0D-12 yielded    629 shell pairs
 There are      3146 function pairs
 Smallest overlap matrix eigenvalue = 1.81E-01
 Guess MOs from SCF MO coefficient file
 Reading MOs from coefficient file
 Reading MOs from coefficient file
 A restricted hybrid HF-DFT SCF calculation will be
 performed using Pulay DIIS extrapolation
 Exchange:     0.2000 Hartree-Fock + 0.0800 Slater + 0.7200 B88
 Correlation:  0.1900 VWN1RPA + 0.8100 LYP
 Using SG-1 standard quadrature grid
 Dispersion:   Grimme D3
 SCF converges when DIIS error is below 1.0E-08
 Geometry optimization detected.  Setting ReadMinima to 0
 Setting SaveMinima to 0
 -------------------------------------------------------
 OpenMP Integral computing Module                
 Release: version 1.0, May 2013, Q-Chem Inc. Pittsburgh 
 -------------------------------------------------------
 -------------------------------------------------------
 OpenMP BLAS3 based DFT computing Module                
 Release: version 1.0, May 2013, Q-Chem Inc. Pittsburgh 
 -------------------------------------------------------
 ---------------------------------------
  Cycle       Energy         DIIS Error
 ---------------------------------------
    1    -679.0983818131      4.59E-04
    2    -679.0969556706      5.45E-05
    3    -679.0969493133      9.96E-05
    4    -679.0969593601      1.98E-05
    5    -679.0969596274      1.02E-05
    6    -679.0969597216      2.10E-06
    7    -679.0969597261      6.45E-07
    8    -679.0969597266      1.88E-07
    9    -679.0969597266      9.80E-08
   10    -679.0969597266      3.81E-08
   11    -679.0969597266      9.16E-09 Convergence criterion met
 ---------------------------------------
 SCF time:  CPU 35.21 s  wall 1.49 s
 SCF   energy in the final basis set = -679.0969597266
 Total energy in the final basis set = -679.0969597266
 
 --------------------------------------------------------------
 
                    Orbital Energies (a.u.)
 --------------------------------------------------------------
 
 Alpha MOs
 -- Occupied --
-18.937 -18.933 -18.876 -18.874 -10.105 -10.103 -10.066 -10.061
-10.032 -10.032 -10.021 -10.021 -10.021 -10.020  -1.013  -1.006
 -0.937  -0.932  -0.816  -0.724  -0.717  -0.666  -0.657  -0.589
 -0.577  -0.523  -0.495  -0.462  -0.443  -0.419  -0.417  -0.412
 -0.405  -0.399  -0.374  -0.366  -0.357  -0.349  -0.335  -0.318
 -0.316  -0.305  -0.292  -0.260  -0.253  -0.204  -0.199  -0.181
 -0.172  -0.155  -0.151
 -- Virtual --
  0.039   0.064   0.119   0.134   0.236   0.248   0.271   0.317
  0.338   0.350   0.375   0.390   0.416   0.421   0.427   0.430
  0.434   0.436   0.440   0.444   0.450   0.534   0.545   0.565
  0.578   0.645   0.648   0.746   0.771
 --------------------------------------------------------------
 
          Ground-State Mulliken Net Atomic Charges

     Atom                 Charge (a.u.)
  ----------------------------------------
      1 C                    -0.014337
      2 C                    -0.011241
      3 C                     0.209877
      4 C                     0.213229
      5 O                    -0.167831
      6 O                    -0.208911
      7 O                    -0.164822
      8 O                    -0.207515
      9 C                    -0.127252
     10 C                    -0.127695
     11 C                    -0.071483
     12 C                    -0.074565
     13 C                    -0.072692
     14 C                    -0.071720
     15 H                     0.093398
     16 H                     0.089177
     17 H                     0.085683
     18 H                     0.087808
     19 H                     0.090051
     20 H                     0.091068
     21 H                     0.090951
     22 H                     0.085171
     23 H                     0.089459
     24 H                     0.094191
  ----------------------------------------
  Sum of atomic charges =     0.000000

 -----------------------------------------------------------------
                    Cartesian Multipole Moments
 -----------------------------------------------------------------
    Charge (ESU x 10^10)
                -0.0000
    Dipole Moment (Debye)
         X       0.8063      Y      -1.0218      Z       1.0436
       Tot       1.6684
    Quadrupole Moments (Debye-Ang)
        XX     -65.0342     XY       2.4799     YY     -67.6637
        XZ      -1.5001     YZ       4.0573     ZZ     -76.7283
    Octopole Moments (Debye-Ang^2)
       XXX      30.9331    XXY      -9.3145    XYY       5.7344
       YYY      22.2596    XXZ       3.0148    XYZ      -0.7895
       YYZ       8.7578    XZZ      10.1349    YZZ       6.8149
       ZZZ     -10.6554
    Hexadecapole Moments (Debye-Ang^3)
      XXXX   -1472.0177   XXXY     -43.0346   XXYY    -530.4132
      XYYY       2.5037   YYYY   -1484.1441   XXXZ      -4.1916
      XXYZ      10.0024   XYYZ     -12.9005   YYYZ      19.5015
      XXZZ    -310.4014   XYZZ     -12.2902   YYZZ    -303.6132
      XZZZ      -4.4919   YZZZ      -1.5888   ZZZZ    -160.0019
 -----------------------------------------------------------------
 Calculating analytic gradient of the SCF energy
 Gradient of SCF Energy
            1           2           3           4           5           6
    1  -0.0000671  -0.0000211  -0.0000454  -0.0005224  -0.0003444  -0.0000302
    2   0.0001560  -0.0002390  -0.0000368  -0.0001333  -0.0001808   0.0001941
    3   0.0018965  -0.0013726   0.0003187   0.0006014  -0.0002782  -0.0003771
            7           8           9          10          11          12
    1   0.0004408  -0.0001008   0.0003535   0.0006857   0.0000967  -0.0002094
    2  -0.0002074   0.0000920   0.0005042  -0.0000224  -0.0000410  -0.0000445
    3  -0.0001232  -0.0001190   0.0001151   0.0000929  -0.0004477  -0.0000441
           13          14          15          16          17          18
    1   0.0000108  -0.0000214  -0.0001254   0.0000075   0.0000071   0.0000046
    2  -0.0001690   0.0000499   0.0000266   0.0000070  -0.0000462   0.0000192
    3  -0.0000492  -0.0001029  -0.0000521   0.0000034   0.0000459   0.0000380
           19          20          21          22          23          24
    1   0.0000141  -0.0000300  -0.0000619  -0.0000490   0.0000221  -0.0000144
    2  -0.0000043   0.0000418   0.0000323  -0.0000129  -0.0000036   0.0000179
    3  -0.0000806   0.0000094  -0.0000456  -0.0000011  -0.0000593   0.0000314
 Max gradient component =       1.897E-03
 RMS gradient           =       3.384E-04
 Gradient time:  CPU 9.70 s  wall 0.41 s
 Geometry Optimization Parameters
   NAtoms,    NIC,     NZ,  NCons,   NDum,   NFix, NCnnct, MaxDiis
       24     152       0       2       0       0       0       0

 Cartesian Hessian Update
 Hessian Updated using BFGS Update


** CONSTRAINED OPTIMIZATION IN DELOCALIZED INTERNAL COORDINATES **
   Searching for a Minimum

   Optimization Cycle:   5

                       Coordinates (Angstroms)
     ATOM                X               Y               Z
      1  C        -0.0448246988   -0.9081573143    0.0018322891
      2  C        -1.1648764697   -0.0300850212   -0.0473846156
      3  C         1.3751256598   -0.3631862610   -0.2244421274
      4  C        -0.9978420385    1.5005056147   -0.1592207773
      5  O         2.3298784899   -1.2840659313    0.3189714609
      6  O         1.6864542985    0.6895346582   -0.8304609978
      7  O        -0.0690916843    1.9425703711    0.8380974231
      8  O        -1.6066437136    2.2635240859   -0.9437589061
      9  C         0.1448938783    3.4031661923    0.7130163904
     10  C         3.7033406040   -0.7902310743    0.0669774651
     11  C        -0.2586846715   -2.3016043123    0.1347371585
     12  C        -1.5648133397   -2.8215388612    0.2169159104
     13  C        -2.6736750842   -1.9530739442    0.1486895341
     14  C        -2.4726123197   -0.5649141695    0.0160408120
     15  H         0.5375292839    3.6692678621   -0.2893702331
     16  H         3.9235009713   -0.7325085419   -1.0188181452
     17  H        -3.6941688242   -2.3567345346    0.2012111589
     18  H        -0.7926110598    3.9699845394    0.8883460293
     19  H         0.8888399291    3.6688832843    1.4861682701
     20  H         4.3816372059   -1.5209972313    0.5442985741
     21  H         3.8630468764    0.2131661414    0.5116164322
     22  H        -1.7187473128   -3.9043013908    0.3208073510
     23  H        -3.3324186104    0.1176044073   -0.0341708556
     24  H         0.6125975806   -2.9700510471    0.1635279976
   Point Group: c1    Number of degrees of freedom:    66


   Energy is   -679.096959727

              Constraints and their Current Values
                                        Value     Constraint
   Dihedral:        2   1   3   5      160.000      160.000
   Dihedral:        1   2   4   7      -50.000      -50.000
 Hessian Updated using BFGS Update

 60 Hessian modes will be used to form the next step
  Hessian Eigenvalues:
     0.023091    0.044241    0.045000    0.045001    0.045001    0.045002
     0.045006    0.045012    0.045022    0.045046    0.045484    0.045803
     0.049610    0.113725    0.113982    0.116895    0.116925    0.158410
     0.159734    0.159983    0.159995    0.159999    0.160641    0.160922
     0.162913    0.219823    0.223025    0.230681    0.243547    0.247333
     0.249157    0.249858    0.249989    0.250119    0.261102    0.314370
     0.342726    0.342871    0.342914    0.343590    0.344131    0.345322
     0.347956    0.349358    0.349900    0.350203    0.353556    0.378669
     0.396926    0.413151    0.413458    0.442660    0.456674    0.462576
     0.469860    0.478025    0.523051    0.535672    0.956451    0.992277

 Minimum Search - Taking Simple RFO Step
 Searching for Lamda that Minimizes Along All modes
 Value Taken    Lamda =  -0.00002764
 Step Taken.  Stepsize is  0.031342

                             Maximum     Tolerance    Cnvgd?
         Gradient           0.000970      0.000300      NO
         Displacement       0.014525      0.001200      NO
         Energy change     -0.000040      0.000001      NO


 New Cartesian Coordinates Obtained by Inverse Iteration

 Displacement from previous Coordinates is:  0.058622
 Adding empirical dispersion correction 
 ----------------------------------------------------------------
 Doing -D3(op) with
 s6 =   1.00000
 s8 =   0.78311
 a1 =   0.30000
 a2 =   4.25000
 n  =  10.00000
 -D3 energy without 3body term =     -0.0234277017 hartrees
 ----------------------------------------------------------------
             Standard Nuclear Orientation (Angstroms)
    I     Atom           X                Y                Z
 ----------------------------------------------------------------
    1      C      -0.0435120873    -0.9054915170    -0.0063274608
    2      C      -1.1642811041    -0.0282553008    -0.0532830997
    3      C       1.3768829866    -0.3610296715    -0.2262582234
    4      C      -0.9997497412     1.5020898472    -0.1621798672
    5      O       2.3279085566    -1.2872722226     0.3155997860
    6      O       1.6935633787     0.6943623053    -0.8236451628
    7      O      -0.0710445081     1.9415365642     0.8360035785
    8      O      -1.6093522459     2.2666828609    -0.9439860118
    9      C       0.1408489170     3.4017782524     0.7129173917
   10      C       3.7015322938    -0.7952165996     0.0663148661
   11      C      -0.2562492048    -2.2985090749     0.1333107700
   12      C      -1.5615913442    -2.8192227765     0.2193083707
   13      C      -2.6712864721    -1.9517274850     0.1505375011
   14      C      -2.4714395427    -0.5638642465     0.0149453403
   15      H       0.5399890067     3.6689986789    -0.2866113267
   16      H       3.9219877894    -0.7323379271    -1.0191327051
   17      H      -3.6915859696    -2.3554077813     0.2061296700
   18      H      -0.7984625116     3.9670839567     0.8832676761
   19      H       0.8797367627     3.6680606725     1.4908090900
   20      H       4.3780689637    -1.5305057559     0.5393409607
   21      H       3.8644270269     0.2049565115     0.5170661133
   22      H      -1.7141268108    -3.9017452975     0.3273432121
   23      H      -3.3320813776     0.1178660482    -0.0321977065
   24      H       0.6156521885    -2.9660725203     0.1643548358
 ----------------------------------------------------------------
 Molecular Point Group                 C1    NOp =  1
 Largest Abelian Subgroup              C1    NOp =  1
 Nuclear Repulsion Energy =   870.1094167354 hartrees
 There are       51 alpha and       51 beta electrons
 Applying Cartesian multipole field
    Component          Value
    ---------          -----
     (2,0,0)        1.00000E-11
     (0,2,0)        2.00000E-11
     (0,0,2)       -3.00000E-10
 Nucleus-field energy     =     0.0000000090 hartrees
 Requested basis set is STO-3G
 There are 38 shells and 80 basis functions
 A cutoff of  1.0D-12 yielded    629 shell pairs
 There are      3146 function pairs
 Smallest overlap matrix eigenvalue = 1.81E-01
 Guess MOs from SCF MO coefficient file
 Reading MOs from coefficient file
 Reading MOs from coefficient file
 A restricted hybrid HF-DFT SCF calculation will be
 performed using Pulay DIIS extrapolation
 Exchange:     0.2000 Hartree-Fock + 0.0800 Slater + 0.7200 B88
 Correlation:  0.1900 VWN1RPA + 0.8100 LYP
 Using SG-1 standard quadrature grid
 Dispersion:   Grimme D3
 SCF converges when DIIS error is below 1.0E-08
 Geometry optimization detected.  Setting ReadMinima to 0
 Setting SaveMinima to 0
 -------------------------------------------------------
 OpenMP Integral computing Module                
 Release: version 1.0, May 2013, Q-Chem Inc. Pittsburgh 
 -------------------------------------------------------
 -------------------------------------------------------
 OpenMP BLAS3 based DFT computing Module                
 Release: version 1.0, May 2013, Q-Chem Inc. Pittsburgh 
 -------------------------------------------------------
 ---------------------------------------
  Cycle       Energy         DIIS Error
 ---------------------------------------
    1    -679.0979978706      4.64E-04
    2    -679.0969698090      3.24E-05
    3    -679.0969685692      5.60E-05
    4    -679.0969714559      1.31E-05
    5    -679.0969715732      6.82E-06
    6    -679.0969716204      1.02E-06
    7    -679.0969716214      4.09E-07
    8    -679.0969716216      1.50E-07
    9    -679.0969716216      7.94E-08
   10    -679.0969716216      2.44E-08
   11    -679.0969716216      5.25E-09 Convergence criterion met
 ---------------------------------------
 SCF time:  CPU 36.52 s  wall 1.55 s
 SCF   energy in the final basis set = -679.0969716216
 Total energy in the final basis set = -679.0969716216
 
 --------------------------------------------------------------
 
                    Orbital Energies (a.u.)
 --------------------------------------------------------------
 
 Alpha MOs
 -- Occupied --
-18.937 -18.933 -18.876 -18.874 -10.105 -10.103 -10.066 -10.061
-10.033 -10.032 -10.021 -10.021 -10.021 -10.020  -1.013  -1.006
 -0.937  -0.932  -0.816  -0.724  -0.717  -0.666  -0.657  -0.589
 -0.577  -0.523  -0.495  -0.463  -0.443  -0.419  -0.417  -0.412
 -0.406  -0.399  -0.374  -0.366  -0.357  -0.349  -0.335  -0.318
 -0.316  -0.305  -0.292  -0.260  -0.253  -0.204  -0.199  -0.181
 -0.172  -0.155  -0.151
 -- Virtual --
  0.039   0.064   0.119   0.134   0.236   0.249   0.271   0.317
  0.338   0.350   0.375   0.390   0.416   0.421   0.427   0.430
  0.434   0.436   0.440   0.444   0.450   0.534   0.545   0.565
  0.578   0.646   0.649   0.746   0.771
 --------------------------------------------------------------
 
          Ground-State Mulliken Net Atomic Charges

     Atom                 Charge (a.u.)
  ----------------------------------------
      1 C                    -0.014382
      2 C                    -0.011293
      3 C                     0.210005
      4 C                     0.213395
      5 O                    -0.167991
      6 O                    -0.208912
      7 O                    -0.164783
      8 O                    -0.207527
      9 C                    -0.127175
     10 C                    -0.127638
     11 C                    -0.071411
     12 C                    -0.074597
     13 C                    -0.072663
     14 C                    -0.071719
     15 H                     0.093324
     16 H                     0.089092
     17 H                     0.085688
     18 H                     0.087877
     19 H                     0.089971
     20 H                     0.090897
     21 H                     0.090883
     22 H                     0.085188
     23 H                     0.089417
     24 H                     0.094353
  ----------------------------------------
  Sum of atomic charges =     0.000000

 -----------------------------------------------------------------
                    Cartesian Multipole Moments
 -----------------------------------------------------------------
    Charge (ESU x 10^10)
                -0.0000
    Dipole Moment (Debye)
         X       0.7940      Y      -1.0273      Z       1.0436
[...]
 C         -0.093  0.011  0.005    0.019 -0.004  0.004   -0.004 -0.032 -0.043
 C         -0.012 -0.018  0.003    0.011 -0.086  0.008   -0.002 -0.002  0.000
 C         -0.009  0.008 -0.000   -0.139  0.011  0.007   -0.001  0.001 -0.000
 C          0.007  0.016 -0.002    0.030  0.136 -0.013    0.001  0.002 -0.000
 C          0.001 -0.015  0.001    0.064 -0.049  0.002   -0.001 -0.002  0.000
 H          0.019  0.040  0.018    0.105  0.202  0.094    0.098  0.080  0.077
 H          0.476 -0.128  0.115   -0.065  0.042 -0.015   -0.322  0.334 -0.107
 H          0.018 -0.037  0.002    0.152 -0.493  0.038    0.003 -0.005  0.000
 H          0.025  0.024 -0.009    0.180  0.168  0.036   -0.054 -0.043 -0.110
 H          0.022  0.034 -0.023    0.071  0.272 -0.102    0.153 -0.068 -0.110
 H          0.594  0.209 -0.221   -0.125 -0.066  0.017    0.065  0.393  0.572
 H          0.464 -0.212 -0.004   -0.095  0.063 -0.045    0.327 -0.244  0.194
 H          0.076 -0.022 -0.002    0.523 -0.231 -0.007    0.009 -0.003 -0.000
 H          0.040  0.014 -0.002    0.005 -0.120  0.008    0.006  0.003 -0.000
 H          0.068  0.048 -0.012    0.209  0.062 -0.022    0.008  0.005 -0.001
 TransDip   0.138  0.020 -0.015    0.053  0.072  0.011    0.033  0.043  0.060

 Mode:                49                     50                     51
 Frequency:      1482.74                1495.59                1496.27
 Force Cnst:      1.3563                 1.3806                 1.3811
 Red. Mass:       1.0471                 1.0476                 1.0470
 IR Active:          YES                    YES                    YES
 IR Intens:       12.601                 17.235                  3.079
 Raman Active:       YES                    YES                    YES
               X      Y      Z        X      Y      Z        X      Y      Z
 C         -0.000 -0.006  0.000   -0.003  0.005 -0.000   -0.003 -0.003  0.001
 C          0.005  0.003 -0.001    0.000 -0.007  0.000    0.003  0.001 -0.000
 C         -0.001  0.001  0.000   -0.003  0.001 -0.001    0.004 -0.004  0.003
 C          0.000  0.002  0.002   -0.001  0.003 -0.000   -0.004 -0.000 -0.003
 O          0.001  0.001  0.003    0.004  0.011 -0.008   -0.004 -0.008  0.006
 O          0.000  0.000 -0.001    0.001 -0.004  0.003   -0.000  0.005 -0.003
 O         -0.010 -0.001  0.008   -0.006  0.003 -0.009   -0.007  0.006 -0.011
 O         -0.000 -0.000 -0.001    0.003 -0.002  0.003    0.004 -0.002  0.004
 C         -0.041  0.009  0.033   -0.016  0.016 -0.023   -0.019  0.021 -0.031
 C          0.004  0.008  0.013    0.016  0.032 -0.025   -0.013 -0.023  0.020
 C         -0.003  0.003 -0.000    0.006  0.003 -0.001   -0.001  0.002 -0.000
 C          0.007  0.000 -0.000   -0.003 -0.003  0.000    0.005  0.000 -0.000
 C         -0.001 -0.006  0.001   -0.002  0.003 -0.000   -0.001 -0.004  0.000
 C         -0.005  0.001  0.000    0.005  0.003 -0.001   -0.001  0.002 -0.000
 H          0.302  0.288  0.243    0.289 -0.258  0.153    0.367 -0.354  0.190
 H          0.088 -0.084  0.029   -0.248 -0.477 -0.026    0.200  0.356  0.024
 H         -0.006  0.025 -0.002    0.001 -0.017  0.002   -0.005  0.013 -0.001
 H         -0.182 -0.143 -0.410   -0.135 -0.129  0.331   -0.178 -0.171  0.445
 H          0.512 -0.262 -0.361    0.106  0.158 -0.115    0.121  0.207 -0.136
 H         -0.038 -0.121 -0.160    0.188  0.071 -0.073   -0.138 -0.060  0.042
 H         -0.103  0.079 -0.068   -0.180 -0.113  0.497    0.136  0.089 -0.384
 H         -0.022  0.011  0.000   -0.002 -0.005  0.000   -0.014  0.007  0.000
 H          0.005  0.010 -0.001   -0.017 -0.015  0.002   -0.002  0.002  0.000
 H         -0.003  0.004 -0.000   -0.017 -0.018  0.001   -0.001  0.003  0.001
 TransDip   0.043 -0.050 -0.093    0.092 -0.056  0.078    0.014  0.046  0.029

 Mode:                52                     53                     54
 Frequency:      1514.45                1611.99                1636.27
 Force Cnst:      3.5860                 9.6609                 9.0696
 Red. Mass:       2.6537                 6.3102                 5.7494
 IR Active:          YES                    YES                    YES
 IR Intens:       12.321                 11.646                  6.920
 Raman Active:       YES                    YES                    YES
               X      Y      Z        X      Y      Z        X      Y      Z
 C          0.171 -0.075 -0.006    0.141 -0.264  0.017   -0.127 -0.167  0.027
 C         -0.026  0.179 -0.010   -0.235  0.171 -0.006    0.195  0.120 -0.014
 C         -0.054  0.026 -0.001   -0.046  0.005  0.021   -0.001 -0.008  0.013
 C         -0.021 -0.035 -0.028    0.005  0.004 -0.033   -0.027 -0.027 -0.002
 O          0.003 -0.003  0.001   -0.005 -0.002 -0.000   -0.002 -0.003  0.001
 O          0.003 -0.007  0.002    0.018  0.015 -0.016    0.013  0.018 -0.015
 O          0.005  0.008  0.004    0.002  0.006  0.003    0.001 -0.002 -0.000
 O          0.008 -0.013  0.016    0.007 -0.022  0.023    0.005  0.002 -0.000
 C          0.007  0.014  0.000    0.001  0.002  0.002    0.002  0.003  0.001
 C          0.015  0.001 -0.002    0.004 -0.000 -0.001   -0.002  0.000 -0.001
 C         -0.138 -0.102  0.018   -0.086  0.132 -0.007    0.267  0.198 -0.034
 C         -0.006  0.092 -0.009    0.288 -0.207  0.003   -0.216 -0.063  0.016
 C          0.082 -0.053  0.001   -0.157  0.318 -0.021    0.102  0.196 -0.023
 C         -0.129 -0.100  0.013    0.113 -0.108  0.005   -0.253 -0.233  0.032
 H         -0.010 -0.092 -0.018   -0.014 -0.019 -0.009    0.002 -0.004 -0.001
 H         -0.066 -0.034 -0.014    0.002 -0.008 -0.001    0.014  0.000  0.002
 H          0.034  0.307 -0.030   -0.033 -0.462  0.045    0.194 -0.210  0.016
 H         -0.059 -0.053  0.030   -0.006 -0.003  0.000   -0.009 -0.008 -0.001
 H         -0.016 -0.046  0.024   -0.006 -0.008  0.008    0.004 -0.005  0.000
 H         -0.045 -0.025  0.008    0.001 -0.004 -0.002   -0.001 -0.000 -0.002
 H         -0.069  0.018  0.039   -0.008  0.002  0.006    0.004 -0.002 -0.003
 H          0.226  0.030 -0.014   -0.470  0.046  0.021    0.190 -0.225  0.015
 H          0.438  0.375 -0.039    0.047 -0.187  0.011    0.368  0.276 -0.031
 H          0.431  0.380 -0.066   -0.186  0.072  0.011   -0.310 -0.296  0.054
 TransDip  -0.104  0.014 -0.041   -0.108 -0.015 -0.006    0.045 -0.071  0.004

 Mode:                55                     56                     57
 Frequency:      1773.19                1781.82                3050.05
 Force Cnst:     21.8527                22.1956                 5.6434
 Red. Mass:      11.7963                11.8656                 1.0296
 IR Active:          YES                    YES                    YES
 IR Intens:      247.463                306.566                 31.441
 Raman Active:       YES                    YES                    YES
               X      Y      Z        X      Y      Z        X      Y      Z
 C         -0.063 -0.077  0.026   -0.023 -0.001  0.004    0.000 -0.000  0.000
 C         -0.002  0.032 -0.006    0.020 -0.088  0.021   -0.000  0.000 -0.000
 C          0.338  0.576 -0.416    0.026  0.025 -0.022   -0.001  0.002 -0.001
 C          0.030 -0.018  0.028   -0.276  0.555 -0.487    0.000  0.000  0.000
 O         -0.009 -0.043  0.029   -0.003 -0.002  0.001    0.003 -0.001  0.000
 O         -0.196 -0.370  0.274   -0.011 -0.018  0.016   -0.000 -0.001  0.001
 O         -0.010 -0.001 -0.004    0.030 -0.023  0.039   -0.000 -0.000 -0.000
 O         -0.012  0.013 -0.015    0.186 -0.340  0.325   -0.000  0.000 -0.000
 C         -0.001 -0.001 -0.002    0.007  0.031 -0.006   -0.002 -0.007  0.003
 C          0.030  0.007 -0.010    0.002  0.000 -0.001    0.039  0.011 -0.016
 C         -0.012  0.019  0.001    0.011  0.009 -0.003    0.000 -0.000  0.000
 C          0.022 -0.012 -0.002   -0.012  0.003  0.001    0.000  0.000 -0.000
 C         -0.006  0.015 -0.001    0.013 -0.008 -0.002    0.000 -0.000  0.000
 C          0.004 -0.015  0.001   -0.017  0.009 -0.004    0.000 -0.000 -0.000
 H          0.011 -0.027  0.004   -0.073 -0.092 -0.087    0.063  0.006 -0.101
 H         -0.121  0.068 -0.062   -0.006  0.004 -0.004   -0.108  0.047  0.629
 H         -0.001 -0.018  0.004    0.005  0.037 -0.004   -0.000 -0.000  0.000
 H          0.003 -0.005  0.022   -0.122 -0.067 -0.074   -0.081  0.079  0.003
 H         -0.000  0.015 -0.004   -0.051 -0.223  0.055    0.049  0.006  0.065
 H         -0.223 -0.061  0.074   -0.011 -0.003  0.005   -0.170  0.337 -0.214
 H         -0.116  0.095 -0.019   -0.005  0.004 -0.001   -0.211 -0.523 -0.220
 H         -0.026  0.004 -0.000    0.011 -0.004  0.004   -0.000 -0.001  0.000
 H          0.035  0.011 -0.005    0.011  0.049  0.014   -0.000  0.000 -0.000
 H         -0.045  0.004  0.005   -0.007 -0.006 -0.002   -0.002  0.001 -0.000
 TransDip   0.189  0.389 -0.258   -0.218  0.343 -0.387    0.170 -0.054 -0.020

 Mode:                58                     59                     60
 Frequency:      3050.73                3123.69                3126.49
 Force Cnst:      5.6447                 6.3645                 6.3774
 Red. Mass:       1.0294                 1.1071                 1.1073
 IR Active:          YES                    YES                    YES
 IR Intens:       37.693                 17.400                 14.403
 Raman Active:       YES                    YES                    YES
               X      Y      Z        X      Y      Z        X      Y      Z
 C          0.000 -0.000  0.000    0.000 -0.000 -0.000   -0.000 -0.000  0.000
 C          0.000  0.000  0.000    0.000  0.000  0.000    0.000 -0.000 -0.000
 C         -0.000  0.000 -0.000    0.000  0.000  0.000    0.000  0.000 -0.000
 C         -0.002 -0.000 -0.002   -0.000 -0.000 -0.000   -0.000 -0.000  0.000
 O          0.000 -0.000 -0.000   -0.000  0.000  0.000    0.000 -0.000  0.000
 O         -0.000 -0.000  0.000    0.000  0.000  0.000   -0.000 -0.000  0.000
 O          0.002  0.002  0.001    0.000  0.000  0.000   -0.000  0.000  0.000
 O          0.000 -0.001  0.001    0.000  0.000  0.000   -0.000  0.000  0.000
 C          0.013  0.039 -0.015    0.001 -0.000 -0.000    0.070 -0.038 -0.052
 C          0.007  0.002 -0.003   -0.012 -0.053 -0.078    0.000  0.000  0.001
 C         -0.000 -0.000  0.000   -0.000  0.000  0.000    0.000  0.000  0.000
 C          0.000  0.000 -0.000    0.000 -0.000  0.000   -0.000 -0.000  0.000
 C          0.000  0.000 -0.000   -0.000  0.000  0.000    0.000 -0.000  0.000
 C         -0.000 -0.000 -0.000   -0.000 -0.000  0.000   -0.000  0.000  0.000
 H         -0.338 -0.033  0.543   -0.004 -0.000  0.006   -0.354 -0.044  0.596
 H         -0.020  0.009  0.118   -0.118  0.034  0.680    0.001 -0.000 -0.009
 H         -0.001 -0.000  0.000    0.000  0.000 -0.000   -0.000 -0.000 -0.000
 H          0.433 -0.421 -0.016   -0.006  0.006  0.000   -0.510  0.497  0.001
 H         -0.261 -0.030 -0.348   -0.001 -0.000 -0.001    0.037 -0.004  0.022
 H         -0.032  0.063 -0.040    0.009 -0.032 -0.001   -0.001  0.002 -0.001
 H         -0.039 -0.097 -0.041    0.249  0.625  0.242   -0.003 -0.006 -0.002
 H         -0.000 -0.000  0.000    0.000  0.000 -0.000    0.000  0.000 -0.000
 H         -0.000  0.001  0.000   -0.000  0.000 -0.000    0.000 -0.000 -0.000
 H         -0.000 -0.000 -0.000    0.000 -0.000 -0.000   -0.000  0.000  0.000
 TransDip   0.115  0.159  0.019   -0.018 -0.072 -0.111    0.077 -0.061 -0.071

 Mode:                61                     62                     63
 Frequency:      3157.82                3158.43                3172.85
 Force Cnst:      6.4995                 6.5019                 6.4460
 Red. Mass:       1.1063                 1.1062                 1.0868
 IR Active:          YES                    YES                    YES
 IR Intens:       13.612                 13.016                  1.651
 Raman Active:       YES                    YES                    YES
               X      Y      Z        X      Y      Z        X      Y      Z
 C          0.000  0.000 -0.000    0.000 -0.000 -0.000    0.000  0.000 -0.000
 C         -0.000  0.000 -0.000    0.000 -0.000  0.000   -0.000 -0.000  0.000
 C         -0.001 -0.001  0.000   -0.000  0.000 -0.000   -0.000 -0.000  0.000
 C         -0.000 -0.000 -0.000    0.000  0.001 -0.000    0.000 -0.000  0.000
 O         -0.000  0.000 -0.000    0.000 -0.000  0.000    0.000  0.000 -0.000
 O          0.000  0.000 -0.000    0.000 -0.000  0.000    0.000  0.000 -0.000
 O          0.000 -0.000 -0.000    0.000 -0.000  0.000   -0.000 -0.000 -0.000
 O          0.000 -0.000  0.000    0.000 -0.000  0.000   -0.000  0.000 -0.000
 C          0.000 -0.000  0.001   -0.051  0.014 -0.078    0.000 -0.000  0.000
 C          0.016 -0.078  0.050    0.000 -0.001  0.000   -0.000  0.000 -0.000
 C          0.000 -0.000  0.000    0.000 -0.000  0.000    0.006 -0.009  0.000
 C          0.000  0.000 -0.000    0.000  0.000 -0.000    0.020  0.053 -0.006
 C         -0.000 -0.000  0.000   -0.000 -0.000  0.000   -0.057 -0.011  0.004
 C          0.000 -0.000  0.000    0.000 -0.000  0.000    0.014 -0.015  0.001
 H          0.002  0.000 -0.003   -0.162 -0.010  0.233    0.000 -0.000 -0.000
 H          0.050 -0.036 -0.284    0.000 -0.000 -0.001   -0.000  0.000  0.001
 H          0.001  0.000 -0.000    0.002  0.000 -0.000    0.675  0.119 -0.042
 H         -0.001  0.001  0.000    0.233 -0.228 -0.023   -0.001  0.001  0.000
 H         -0.004 -0.000 -0.006    0.536  0.062  0.716   -0.001 -0.000 -0.002
 H         -0.351  0.698 -0.442   -0.003  0.005 -0.003    0.002 -0.003  0.002
 H          0.113  0.266  0.127    0.002  0.004  0.002   -0.000 -0.001 -0.000
 H         -0.001 -0.003  0.000   -0.000 -0.000  0.000   -0.221 -0.622  0.067
 H         -0.000  0.001 -0.000   -0.001  0.002 -0.000   -0.159  0.188 -0.010
 H         -0.002  0.003 -0.000   -0.000  0.000 -0.000   -0.091  0.109 -0.003
 TransDip   0.048 -0.092  0.057   -0.072 -0.007 -0.090   -0.025  0.032 -0.005

 Mode:                64                     65                     66
 Frequency:      3186.72                3198.73                3211.71
 Force Cnst:      6.5308                 6.6014                 6.6453
 Red. Mass:       1.0915                 1.0950                 1.0934
 IR Active:          YES                    YES                    YES
 IR Intens:        8.854                  7.150                  3.531
 Raman Active:       YES                    YES                    YES
               X      Y      Z        X      Y      Z        X      Y      Z
 C         -0.000  0.000  0.000   -0.000  0.001 -0.000    0.001  0.002 -0.000
 C         -0.001 -0.001  0.000   -0.003 -0.001  0.000   -0.000  0.001 -0.000
 C         -0.000  0.000 -0.000   -0.000 -0.000  0.000    0.000 -0.001  0.000
 C          0.000 -0.000  0.000    0.000 -0.001  0.000    0.000  0.000 -0.000
 O         -0.000 -0.000  0.000    0.000  0.000 -0.000    0.000  0.000 -0.000
 O          0.000 -0.000  0.000    0.000  0.000 -0.000   -0.000  0.000  0.000
 O         -0.000  0.000 -0.000    0.000  0.000  0.000   -0.000 -0.000 -0.000
 O         -0.000  0.000 -0.000   -0.000  0.000 -0.000    0.000 -0.000  0.000
 C          0.000 -0.000  0.000    0.000 -0.000  0.000    0.000  0.000  0.000
 C          0.000 -0.000  0.000   -0.000  0.000 -0.000   -0.000  0.000 -0.000
 C         -0.009  0.014 -0.001    0.008 -0.011  0.000    0.055 -0.063  0.002
 C         -0.018 -0.056  0.006    0.003  0.015 -0.002   -0.011 -0.023  0.003
 C         -0.046 -0.005  0.002    0.044  0.010 -0.003   -0.009 -0.000  0.000
 C          0.028 -0.030  0.001    0.046 -0.058  0.003   -0.004  0.006 -0.000
 H          0.000  0.000 -0.000    0.000  0.000 -0.001   -0.000 -0.000 -0.000
 H         -0.000 -0.000 -0.000    0.000  0.000 -0.000    0.000  0.000 -0.000
 H          0.510  0.084 -0.031   -0.484 -0.087  0.030    0.093  0.015 -0.006
 H         -0.000  0.000  0.000   -0.001  0.001  0.000    0.000 -0.000  0.000
 H         -0.001 -0.000 -0.001   -0.000  0.000 -0.000   -0.000 -0.000 -0.001
 H         -0.001  0.002 -0.001    0.001 -0.001  0.001    0.001 -0.002  0.002
 H         -0.000 -0.000 -0.000    0.000  0.000  0.000    0.000  0.000  0.000
 H          0.219  0.630 -0.068   -0.052 -0.157  0.017    0.092  0.252 -0.027
 H         -0.311  0.369 -0.019   -0.532  0.640 -0.034    0.050 -0.060  0.003
 H          0.131 -0.158  0.004   -0.107  0.127 -0.003   -0.618  0.722 -0.019
 TransDip  -0.060 -0.074  0.009    0.085  0.006 -0.008   -0.016 -0.058  0.003

 STANDARD THERMODYNAMIC QUANTITIES AT   298.15 K  AND     1.00 ATM

   This Molecule has  0 Imaginary Frequencies
   Zero point vibrational energy:      116.037 kcal/mol

   Atom    1 Element C  Has Mass   12.00000
   Atom    2 Element C  Has Mass   12.00000
   Atom    3 Element C  Has Mass   12.00000
   Atom    4 Element C  Has Mass   12.00000
   Atom    5 Element O  Has Mass   15.99491
   Atom    6 Element O  Has Mass   15.99491
   Atom    7 Element O  Has Mass   15.99491
   Atom    8 Element O  Has Mass   15.99491
   Atom    9 Element C  Has Mass   12.00000
   Atom   10 Element C  Has Mass   12.00000
   Atom   11 Element C  Has Mass   12.00000
   Atom   12 Element C  Has Mass   12.00000
   Atom   13 Element C  Has Mass   12.00000
   Atom   14 Element C  Has Mass   12.00000
   Atom   15 Element H  Has Mass    1.00783
   Atom   16 Element H  Has Mass    1.00783
   Atom   17 Element H  Has Mass    1.00783
   Atom   18 Element H  Has Mass    1.00783
   Atom   19 Element H  Has Mass    1.00783
   Atom   20 Element H  Has Mass    1.00783
   Atom   21 Element H  Has Mass    1.00783
   Atom   22 Element H  Has Mass    1.00783
   Atom   23 Element H  Has Mass    1.00783
   Atom   24 Element H  Has Mass    1.00783
   Molecular Mass:   194.057940 amu
   Principal axes and moments of inertia in amu*Bohr^2:
                             1           2           3
    Eigenvalues --     2387.32264  2462.82258  4473.26615
          X               0.97600     0.21778     0.00125
          Y              -0.21778     0.97595     0.00945
          Z               0.00083    -0.00949     0.99995
   Rotational Symmetry Number is   1
   The Molecule is an Asymmetric Top
   Translational Enthalpy:        0.889 kcal/mol
   Rotational Enthalpy:           0.889 kcal/mol
   Vibrational Enthalpy:        122.767 kcal/mol
   gas constant (RT):             0.592 kcal/mol
   Translational Entropy:        41.694  cal/mol.K
   Rotational Entropy:           31.642  cal/mol.K
   Vibrational Entropy:          45.039  cal/mol.K

   Total Enthalpy:              125.137 kcal/mol
   Total Entropy:               118.375  cal/mol.K
Archival summary:
1\1\nid04361\FREQ\ProcedureUnspecified\BasisUnspecified\41010\junteng\WedOct419:27:242017WedOct419:27:242017\0\\#,FREQ,ProcedureUnspecified,BasisUnspecified,\\0,1\O\C,1,1.34412\O,2,1.20649,1,124.509\C,1,1.43945,2,115.87,3,-10.1614,0\H,4,1.08758,1,105.427,2,177.089,0\H,4,1.09056,1,110.692,2,57.2205,0\H,4,1.09124,1,109.516,2,-63.85,0\C,2,1.4986,1,111.273,3,-176.526,0\C,8,1.39532,2,117.369,1,126.725,0\H,9,1.08323,8,118.868,2,1.95101,0\C,9,1.39278,8,120.608,2,-177.633,0\H,11,1.084,9,119.846,8,179.596,0\C,11,1.39298,9,119.887,8,-0.34286,0\H,13,1.084,11,120.274,9,-179.906,0\C,13,1.39195,11,119.887,9,-0.534012,0\H,15,1.08183,13,120.236,11,-178.548,0\C,15,1.39901,13,120.682,11,0.344064,0\C,17,1.49412,15,119.728,13,-173.451,0\O,18,1.20818,17,124.846,15,146.988,0\O,18,1.34946,17,111.684,15,-30.7434,0\C,20,1.43919,18,116.004,17,176.362,0\H,21,1.0877,20,105.349,18,-179.538,0\H,21,1.09079,20,110.418,18,60.9903,0\H,21,1.09114,20,110.428,18,-59.9475,0\\\@

 Total job time:  4182.10s(wall), 20410.86s(cpu) 
 Wed Oct  4 19:27:24 2017

        *************************************************************
        *                                                           *
        *  Thank you very much for using Q-Chem.  Have a nice day.  *
        *                                                           *
        *************************************************************


