nid02602 10.128.10
Q-Chem Developer Version! Running on 10.128.10.*
                  Welcome to Q-Chem
     A Quantum Leap Into The Future Of Chemistry


 Q-Chem 5.0, Q-Chem, Inc., Pleasanton, CA (2017)

 Yihan Shao,  Zhengting Gan,  E. Epifanovsky,  A. T. B. Gilbert,  M. Wormit,  
 J. Kussmann,  A. W. Lange,  A. Behn,  Jia Deng,  Xintian Feng,  D. Ghosh,  
 M. Goldey,  P. R. Horn,  L. D. Jacobson,  I. Kaliman,  T. Kus,  A. Landau,  
 Jie Liu,  E. I. Proynov,  R. M. Richard,  R. P. Steele,  E. J. Sundstrom,  
 H. L. Woodcock III,  P. M. Zimmerman,  D. Zuev,  B. Albrecht,  E. Alguire,  
 S. A. Baeppler,  Z. Benda,  Y. A. Bernard,  E. J. Berquist,  K. B. Bravaya,  
 D. Casanova,  Chun-Min Chang,  Yunqing Chen,  A. Chien,  K. D. Closser,  
 M. P. Coons,  S. Dasgupta,  M. Diedenhofen,  Hainam Do,  R. G. Edgar,  
 Po-Tung Fang,  S. Fatehi,  Qingguo Feng,  Qinghui Ge,  A. Ghysels,  
 J. Gomes,  J. Gonthier,  A. Gunina,  M. W. D. Hanson-Heine,  
 P. H. P. Harbach,  A. W. Hauser,  J. E. Herr,  E. G. Hohenstein,  
 Z. C. Holden,  Kerwin Hui,  T.-C. Jagau,  Hyunjun Ji,  B. Kaduk,  
 K. Khistyaev,  Jaehoon Kim,  P. Klunzinger,  K. Koh,  D. Kosenkov,  
 T. Kowalczyk,  C. M. Krauter,  A. Kunitsa,  Ka Un Lao,  A. Laurent,  
 K. V. Lawler,  Joonho Lee,  D. Lefrancois,  S. Lehtola,  D. S. Levine,  
 Yi-Pei Li,  You-Sheng Lin,  Fenglai Liu,  E. Livshits,  A. Luenser,  
 P. Manohar,  E. Mansoor,  S. F. Manzer,  Shan-Ping Mao,  Yuezhi Mao,  
 N. Mardirossian,  A. V. Marenich,  L. A. Martinez-Martinez,  S. A. Maurer,  
 N. J. Mayhall,  S. C. McKenzie,  J.-M. Mewes,  A. F. Morrison,  K. Nanda,  
 T. S. Nguyen-Beck,  R. Olivares-Amaya,  J. A. Parkhill,  T. M. Perrine,  
 F. Plasser,  S. Prager,  A. Prociuk,  D. R. Rehn,  F. Rob,  M. Schneider,  
 N. Sergueev,  S. M. Sharada,  S. Sharma,  D. W. Small,  T. Stauch,  
 T. Stein,  Yu-Chuan Su,  A. J. W. Thom,  T. Tsuchimochi,  L. Vogt,  
 O. Vydrov,  M. A. Watson,  J. Wenzel,  M. de Wergifosse,  T. A. Wesolowski,  
 A. White,  J. Witte,  A. Yamada,  Jun Yang,  K. Yao,  S. Yeganeh,  
 S. R. Yost,  Zhi-Qiang You,  A. Zech,  Igor Ying Zhang,  Xing Zhang,  
 Yan Zhao,  Ying Zhu,  B. R. Brooks,  G. K. L. Chan,  C. J. Cramer,  
 M. S. Gordon,  W. J. Hehre,  A. Klamt,  M. W. Schmidt,  C. D. Sherrill,  
 D. G. Truhlar,  A. Aspuru-Guzik,  R. Baer,  A. T. Bell,  N. A. Besley,  
 Jeng-Da Chai,  A. Dreuw,  B. D. Dunietz,  T. R. Furlani,  Chao-Ping Hsu,  
 Yousung Jung,  Jing Kong,  D. S. Lambrecht,  WanZhen Liang,  C. Ochsenfeld,  
 V. A. Rassolov,  L. V. Slipchenko,  J. E. Subotnik,  T. Van Voorhis,  
 J. M. Herbert,  A. I. Krylov,  P. M. W. Gill,  M. Head-Gordon

 Contributors to earlier versions of Q-Chem not listed above: 
 R. D. Adamson,  B. Austin,  J. Baker,  G. J. O. Beran,  K. Brandhorst,  
 S. T. Brown,  E. F. C. Byrd,  A. K. Chakraborty,  C.-L. Cheng,  
 Siu Hung Chien,  D. M. Chipman,  D. L. Crittenden,  H. Dachsel,  
 R. A. DiStasio Jr.,  R. J. Doerksen,  A. D. Dutoi,  L. Fusti-Molnar,  
 W. A. Goddard III,  A. Golubeva-Zadorozhnaya,  S. R. Gwaltney,  G. Hawkins,  
 A. Heyden,  S. Hirata,  G. Kedziora,  F. J. Keil,  C. Kelley,  Jihan Kim,  
 R. A. King,  R. Z. Khaliullin,  P. P. Korambath,  W. Kurlancheek,  
 A. M. Lee,  M. S. Lee,  S. V. Levchenko,  Ching Yeh Lin,  D. Liotard,  
 R. C. Lochan,  I. Lotan,  P. E. Maslen,  N. Nair,  D. P. O'Neill,  
 D. Neuhauser,  E. Neuscamman,  C. M. Oana,  R. Olson,  B. Peters,  
 R. Peverati,  P. A. Pieniazek,  Y. M. Rhee,  J. Ritchie,  M. A. Rohrdanz,  
 E. Rosta,  N. J. Russ,  H. F. Schaefer III,  N. E. Schultz,  N. Shenvi,  
 A. C. Simmonett,  A. Sodt,  D. Stuck,  K. S. Thanthiriwatte,  V. Vanovschi,  
 Tao Wang,  A. Warshel,  C. F. Williams,  Q. Wu,  X. Xu,  W. Zhang

 Please cite Q-Chem as follows:
 Y. Shao et al., Mol. Phys. 113, 184-215 (2015)
 DOI: 10.1080/00268976.2014.952696

 Q-Chem 5.0.0 for Intel X86 EM64T Linux

 Parts of Q-Chem use Armadillo 5.200.1 (Boston Tea Smuggler).
 http://arma.sourceforge.net/

 Q-Chem begins on Wed Oct  4 18:04:27 2017  

Host: nid02602
0

     Scratch files written to /global/cscratch1/sd/junteng/scratch/17/opt_11n01++.save//

Checking the input file for inconsistencies... 	...done.

--------------------------------------------------------------
User input:
--------------------------------------------------------------
$molecule
0  1
C    0.469  -2.369   0.246
C   -0.100  -2.666   1.497
C    0.820  -0.970  -0.128
C   -0.250  -1.617   2.525
O    1.710  -0.973  -1.154
O    0.353   0.027   0.395
O    0.994  -1.244   2.918
O   -1.315  -1.271   3.005
C    0.990  -0.231   3.923
C    2.104   0.331  -1.586
C    0.633  -3.406  -0.690
C    0.237  -4.708  -0.384
C   -0.335  -4.993   0.854
C   -0.510  -3.982   1.810
H    0.475   0.666   3.564
H    1.246   0.871  -1.997
H   -0.645  -6.015   1.070
H    0.524  -0.605   4.840
H    2.028   0.031   4.144
H    2.851   0.214  -2.376
H    2.557   0.890  -0.761
H    0.365  -5.501  -1.118
H    1.053  -3.209  -1.674
C   -1.128  -4.326   3.139
H   -2.093  -3.824   3.253
H   -0.462  -4.036   3.958
H   -1.304  -5.403   3.231
$end


$opt
CONSTRAINT
tors    2    1    3    5    168.6
tors    1    2    4    7    -62.3
ENDCONSTRAINT
$end

$rem
JOBTYPE                   OPT
METHOD                    B3LYP
DFT_D                     D3_OP
BASIS                     STO-3G
GEOM_OPT_MAX_CYCLES       500
SYMMETRY                  False
THRESH                    12
SCF_CONVERGENCE           8
MAX_SUB_FILE_NUM          128
MEM_STATIC                400
MEM_TOTAL                 4000
$end

--------------------------------------------------------------
 Adding empirical dispersion correction 
 ----------------------------------------------------------------
 Doing -D3(op) with
 s6 =   1.00000
 s8 =   0.78311
 a1 =   0.30000
 a2 =   4.25000
 n  =  10.00000
 -D3 energy without 3body term =     -0.0281099174 hartrees
 ----------------------------------------------------------------
             Standard Nuclear Orientation (Angstroms)
    I     Atom           X                Y                Z
 ----------------------------------------------------------------
    1      C       0.4276448099    -0.8415736243    -0.0588692333
    2      C      -0.8060843738    -0.1694900882    -0.1153229467
    3      C       1.7108516923    -0.1157460900    -0.2752773829
    4      C      -0.8586766063     1.2982395328    -0.2659510208
    5      O       2.7440659004    -0.8386462100     0.2293698371
    6      O       1.8151246914     0.9559824043    -0.8463747267
    7      O      -0.3462610882     1.8472865541     0.8641338013
    8      O      -1.3960448180     1.8760408395    -1.1942408759
    9      C      -0.3453536797     3.2741738433     0.8499267384
   10      C       4.0219453492    -0.2207266872     0.0636122501
   11      C       0.4347697576    -2.2356355990     0.1279500539
   12      C      -0.7617862935    -2.9413211965     0.2541144457
   13      C      -1.9807647890    -2.2699771573     0.1874690522
   14      C      -2.0220088454    -0.8801964136     0.0044651935
   15      H       0.2409006342     3.6507951732     0.0054285126
   16      H       4.2682047510    -0.1351699828    -0.9988007380
   17      H      -2.9041102496    -2.8410186193     0.2801232975
   18      H      -1.3703322120     3.6561049330     0.8116037554
   19      H       0.1193667722     3.6218521173     1.7762548225
   20      H       4.7702630880    -0.8580083794     0.5428727289
   21      H       4.0413877155     0.7607414868     0.5480265539
   22      H      -0.7435362013    -4.0202578732     0.3939414170
   23      H       1.3701157423    -2.7903072772     0.1584823066
   24      C      -3.3565948521    -0.1864117253    -0.0591272334
   25      H      -3.5169381685     0.2431909134    -1.0520807034
   26      H      -3.4152264497     0.6020259728     0.6980684692
   27      H      -4.1788259208    -0.8832659350     0.1350357913
 ----------------------------------------------------------------
 Molecular Point Group                 C1    NOp =  1
 Largest Abelian Subgroup              C1    NOp =  1
 Nuclear Repulsion Energy =  1009.1896279882 hartrees
 There are       55 alpha and       55 beta electrons
 Requested basis set is STO-3G
 There are 42 shells and 87 basis functions

 Total QAlloc Memory Limit   4000 MB
 Mega-Array Size       392 MB
 MEM_STATIC part       400 MB
 A cutoff of  1.0D-12 yielded    765 shell pairs
 There are      3696 function pairs
 
 -------------------------------------------------------
 OpenMP Integral Computing Module                       
 Release: version 1.0, May 2013, Q-Chem Inc. Pittsburgh 
 -------------------------------------------------------
 Integral Job Info:
 Integral job number is                      11
 Integral operator is                         1
 short-range coefficients                     0
 long-range coefficients              100000000
 Omega coefficients                           0
 if combine SR and LR in K                    0
 Integral screening is                        0
 Integral computing path is                   2
 max size of driver memory is            800000
 size of driver memory is                 45569
 size of scratch memory is               945100
 max col of scratch BK array                289
 max len of scratch array in speh3           22
 max len of scratch index in speh4            8
 max int batch size is                      520
 min int batch size is                       52
 fixed nKL is                                52
 max L of basis functions is                  1
 order of int derivative is                   0
 number of shells is                         42
 number of basis is                          87
 number of cartesian basis is                87
 number of contracted shell pairs           765
 number of primitive shell pairs           4169
 maxK2 (contraction) of shell pair            9
 max number of K2 of shell pair               1
 max number of CS2 of shell pair            112
 max number of PS2 of shell pair            564
 mem total for path MDJ                   25842
 -------------------------------------------------------
 Smallest overlap matrix eigenvalue = 1.75E-01

 Scale SEOQF with 1.000000e-01/1.000000e-01/1.000000e-01

 Standard Electronic Orientation quadrupole field applied
 Nucleus-field energy     =     0.0000000367 hartrees
 Guess from superposition of atomic densities
 Warning:  Energy on first SCF cycle will be non-variational
 A restricted hybrid HF-DFT SCF calculation will be
 performed using Pulay DIIS extrapolation
 Exchange:     0.2000 Hartree-Fock + 0.0800 Slater + 0.7200 B88
 Correlation:  0.1900 VWN1RPA + 0.8100 LYP
 Using SG-1 standard quadrature grid
 Dispersion:   Grimme D3
 SCF converges when DIIS error is below 1.0E-08
 -------------------------------------------------------
 OpenMP Integral computing Module                
 Release: version 1.0, May 2013, Q-Chem Inc. Pittsburgh 
 -------------------------------------------------------
 -------------------------------------------------------
 OpenMP BLAS3 based DFT computing Module                
 Release: version 1.0, May 2013, Q-Chem Inc. Pittsburgh 
 -------------------------------------------------------
 ---------------------------------------
  Cycle       Energy         DIIS Error
 ---------------------------------------
    1    -717.8019365690      1.20E-01
    2    -717.7010378448      1.35E-02
    3    -716.6909548447      3.55E-02
    4    -717.8989360821      4.93E-03
    5    -717.9220252155      1.83E-03
    6    -717.9252541391      6.40E-04
    7    -717.9256752319      2.14E-04
    8    -717.9257222207      5.99E-05
    9    -717.9257259474      2.45E-05
   10    -717.9257267525      3.51E-06
   11    -717.9257267669      1.14E-06
   12    -717.9257267684      2.20E-07
   13    -717.9257267684      1.01E-07
   14    -717.9257267684      3.15E-08
   15    -717.9257267684      8.11E-09 Convergence criterion met
 ---------------------------------------
 SCF time:  CPU 57.78 s  wall 2.45 s
 SCF   energy in the final basis set = -717.9257267684
 Total energy in the final basis set = -717.9257267684
 
 --------------------------------------------------------------
 
                    Orbital Energies (a.u.)
 --------------------------------------------------------------
 
 Alpha MOs
 -- Occupied --
-18.948 -18.944 -18.869 -18.865 -10.116 -10.112 -10.076 -10.069
-10.024 -10.023 -10.020 -10.016 -10.010 -10.010 -10.009  -1.048
 -1.041  -0.957  -0.953  -0.821  -0.742  -0.730  -0.692  -0.672
 -0.648  -0.595  -0.566  -0.516  -0.504  -0.472  -0.451  -0.440
 -0.433  -0.422  -0.418  -0.395  -0.390  -0.385  -0.372  -0.360
 -0.352  -0.343  -0.339  -0.322  -0.312  -0.300  -0.293  -0.253
 -0.246  -0.199  -0.190  -0.185  -0.179  -0.154  -0.147
 -- Virtual --
  0.052   0.076   0.129   0.152   0.251   0.281   0.311   0.352
  0.373   0.392   0.397   0.405   0.432   0.437   0.443   0.446
  0.453   0.456   0.457   0.459   0.467   0.471   0.483   0.493
  0.574   0.582   0.592   0.613   0.701   0.710   0.788   0.802
 --------------------------------------------------------------
 
          Ground-State Mulliken Net Atomic Charges

     Atom                 Charge (a.u.)
  ----------------------------------------
      1 C                    -0.018582
      2 C                    -0.016936
      3 C                     0.234617
      4 C                     0.240956
      5 O                    -0.184918
      6 O                    -0.230663
      7 O                    -0.182368
      8 O                    -0.224940
      9 C                    -0.127135
     10 C                    -0.125431
     11 C                    -0.074859
     12 C                    -0.080052
     13 C                    -0.077609
     14 C                     0.012689
     15 H                     0.097897
     16 H                     0.094244
     17 H                     0.080944
     18 H                     0.091047
     19 H                     0.094514
     20 H                     0.096685
     21 H                     0.094839
     22 H                     0.082779
     23 H                     0.091068
     24 C                    -0.232605
     25 H                     0.096456
     26 H                     0.085477
     27 H                     0.081886
  ----------------------------------------
  Sum of atomic charges =     0.000000

 -----------------------------------------------------------------
                    Cartesian Multipole Moments
 -----------------------------------------------------------------
    Charge (ESU x 10^10)
                -0.0000
    Dipole Moment (Debye)
         X       0.7982      Y      -0.5502      Z       1.4656
       Tot       1.7573
    Quadrupole Moments (Debye-Ang)
        XX     -68.8640     XY       1.0683     YY     -74.0057
        XZ      -1.4979     YZ       4.7411     ZZ     -83.2885
    Octopole Moments (Debye-Ang^2)
       XXX      41.5766    XXY      -2.7669    XYY       0.8577
       YYY      25.2011    XXZ       3.5524    XYZ      -0.6167
       YYZ      13.0115    XZZ       9.2585    YZZ       6.8348
       ZZZ      -3.0962
    Hexadecapole Moments (Debye-Ang^3)
      XXXX   -1834.3719   XXXY     -13.9583   XXYY    -592.7498
      XYYY      -6.0514   YYYY   -1421.5834   XXXZ       3.4567
      XXYZ       8.8362   XYYZ      -9.5961   YYYZ      16.3355
      XXZZ    -378.5399   XYZZ      -4.8522   YYZZ    -299.7002
      XZZZ      -0.3707   YZZZ       2.9732   ZZZZ    -200.2064
 -----------------------------------------------------------------
 Calculating analytic gradient of the SCF energy
 Gradient of SCF Energy
            1           2           3           4           5           6
    1   0.0155520   0.0002434   0.0288734   0.0033619  -0.0165587  -0.0090033
    2   0.0247654   0.0340006   0.0084045   0.0202584   0.0561898  -0.0668372
    3  -0.0054958  -0.0064167  -0.0034908   0.0083047  -0.0327235   0.0327088
            7           8           9          10          11          12
    1  -0.0295598   0.0255054  -0.0003711  -0.0164199  -0.0008983  -0.0031731
    2   0.0085524  -0.0425767  -0.0241214  -0.0093064   0.0067387   0.0046852
    3  -0.0553920   0.0504006  -0.0000651   0.0029537   0.0000270  -0.0002477
           13          14          15          16          17          18
    1   0.0029767  -0.0065585  -0.0025396  -0.0055135   0.0073378   0.0102249
    2   0.0029842   0.0110264  -0.0077578  -0.0067668   0.0014604  -0.0087175
    3  -0.0002257  -0.0001337   0.0102837   0.0117449  -0.0006387   0.0042723
           19          20          21          22          23          24
    1  -0.0046865  -0.0047308  -0.0030343  -0.0003432  -0.0094996   0.0157825
    2  -0.0008429   0.0080769  -0.0133174   0.0081641   0.0001020  -0.0050621
    3  -0.0097686  -0.0052144  -0.0006932  -0.0010887  -0.0004175  -0.0020005
           25          26          27
    1   0.0009587   0.0010130   0.0010607
    2  -0.0069575  -0.0076169   0.0044717
    3   0.0047262  -0.0008020  -0.0006072
 Max gradient component =       6.684E-02
 RMS gradient           =       1.774E-02
 Gradient time:  CPU 13.54 s  wall 0.60 s
 Geometry Optimization Parameters
   NAtoms,    NIC,     NZ,  NCons,   NDum,   NFix, NCnnct, MaxDiis
       27     173       0       2       0       0       0       0


** CONSTRAINED OPTIMIZATION IN DELOCALIZED INTERNAL COORDINATES **
   Searching for a Minimum

   Optimization Cycle:   1

                       Coordinates (Angstroms)
     ATOM                X               Y               Z
      1  C         0.4276448099   -0.8415736243   -0.0588692333
      2  C        -0.8060843738   -0.1694900882   -0.1153229467
      3  C         1.7108516923   -0.1157460900   -0.2752773829
      4  C        -0.8586766063    1.2982395328   -0.2659510208
      5  O         2.7440659004   -0.8386462100    0.2293698371
      6  O         1.8151246914    0.9559824043   -0.8463747267
      7  O        -0.3462610882    1.8472865541    0.8641338013
      8  O        -1.3960448180    1.8760408395   -1.1942408759
      9  C        -0.3453536797    3.2741738433    0.8499267384
     10  C         4.0219453492   -0.2207266872    0.0636122501
     11  C         0.4347697576   -2.2356355990    0.1279500539
     12  C        -0.7617862935   -2.9413211965    0.2541144457
     13  C        -1.9807647890   -2.2699771573    0.1874690522
     14  C        -2.0220088454   -0.8801964136    0.0044651935
     15  H         0.2409006342    3.6507951732    0.0054285126
     16  H         4.2682047510   -0.1351699828   -0.9988007380
     17  H        -2.9041102496   -2.8410186193    0.2801232975
     18  H        -1.3703322120    3.6561049330    0.8116037554
     19  H         0.1193667722    3.6218521173    1.7762548225
     20  H         4.7702630880   -0.8580083794    0.5428727289
     21  H         4.0413877155    0.7607414868    0.5480265539
     22  H        -0.7435362013   -4.0202578732    0.3939414170
     23  H         1.3701157423   -2.7903072772    0.1584823066
     24  C        -3.3565948521   -0.1864117253   -0.0591272334
     25  H        -3.5169381685    0.2431909134   -1.0520807034
     26  H        -3.4152264497    0.6020259728    0.6980684692
     27  H        -4.1788259208   -0.8832659350    0.1350357913
   Point Group: c1    Number of degrees of freedom:    75


   Energy is   -717.925726768

              Constraints and their Current Values
                                        Value     Constraint
   Dihedral:        2   1   3   5      160.883      168.600
   Dihedral:        1   2   4   7      -66.511      -62.300

 Attempting to Generate Delocalized Internal Coordinates

   Using Lagrange Multiplier Algorithm


 77 Hessian modes will be used to form the next step
  Hessian Eigenvalues:
    -0.977753   -0.977753    0.045000    0.045000    0.045000    0.045000
     0.045000    0.045000    0.045000    0.045000    0.045000    0.045001
     0.045002    0.045007    0.045012    0.045014    0.045073    0.045391
     0.094103    0.094233    0.113874    0.113890    0.116885    0.116948
     0.159973    0.159992    0.160000    0.160000    0.160000    0.160000
     0.160000    0.160000    0.160000    0.160000    0.160000    0.160000
     0.220831    0.234483    0.248788    0.249003    0.249488    0.249924
     0.249954    0.250000    0.250000    0.250000    0.250000    0.250000
     0.318081    0.334430    0.342234    0.342572    0.342726    0.342778
     0.342982    0.343623    0.343862    0.344084    0.344536    0.348583
     0.349879    0.350317    0.350597    0.408825    0.411215    0.413739
     0.414295    0.441969    0.449403    0.456885    0.464260    0.533072
     0.535839    0.958888    0.961246    1.022753    1.022753

 Minimum Search - Taking P-RFO Step
 Searching for Lamda that Maximizes Along the Constraint modes Only
 Value Taken    Lamda =   0.01164779
 Searching for Lamda that Minimizes Along All other modes
 Value Taken    Lamda =  -0.06368189
 Calculated Step too Large.  Step scaled by  0.827192
 Step Taken.  Stepsize is  0.300000

                             Maximum     Tolerance    Cnvgd?
         Gradient            0.134692       0.000300      NO
         Displacement        0.114422       0.001200      NO
         Energy change     *********       0.000001      NO


 New Cartesian Coordinates Obtained by Inverse Iteration

 Displacement from previous Coordinates is:  0.953499
 Adding empirical dispersion correction 
 ----------------------------------------------------------------
 Doing -D3(op) with
 s6 =   1.00000
 s8 =   0.78311
 a1 =   0.30000
 a2 =   4.25000
 n  =  10.00000
 -D3 energy without 3body term =     -0.0279299967 hartrees
 ----------------------------------------------------------------
             Standard Nuclear Orientation (Angstroms)
    I     Atom           X                Y                Z
 ----------------------------------------------------------------
    1      C       0.3975659338    -0.8901996468     0.0151646730
    2      C      -0.8459406390    -0.2143375205    -0.0793059324
    3      C       1.6931035716    -0.1031274460    -0.1805944182
    4      C      -0.8828776249     1.3131800375    -0.2305706948
    5      O       2.7910266038    -0.8717616689     0.2383356751
    6      O       1.7789418243     1.0190578898    -0.7265836016
    7      O      -0.3200922081     1.8958562679     0.9171438786
    8      O      -1.3811694771     1.9394892437    -1.1883592023
    9      C      -0.2742277103     3.3582173005     0.8428582807
   10      C       4.0668789339    -0.1889966583     0.0230781830
   11      C       0.4174340391    -2.2971728874     0.1726819298
   12      C      -0.7856801289    -3.0172761985     0.2570896138
   13      C      -2.0177684998    -2.3424704875     0.1699836169
   14      C      -2.0679719068    -0.9396303563     0.0013421023
   15      H       0.3151892282     3.7030506750    -0.0293940768
   16      H       4.2628724646    -0.0182569293    -1.0541056130
   17      H      -2.9513718032    -2.9154248499     0.2307852672
   18      H      -1.2907060678     3.7966718108     0.7908963812
   19      H       0.2173325400     3.7148776621     1.7653056440
   20      H       4.8551643462    -0.8495716122     0.4258024672
   21      H       4.1083407362     0.7806351081     0.5574481078
   22      H      -0.7643284256    -4.1068753151     0.3809576812
   23      H       1.3741553655    -2.8311832239     0.2170749803
   24      C      -3.4220391127    -0.2279953825    -0.0950082707
   25      H      -3.5568846122     0.2250085806    -1.0898484708
   26      H      -3.5092878372     0.5644884371     0.6647426646
   27      H      -4.2455631777    -0.9375719178     0.0679133000
 ----------------------------------------------------------------
 Molecular Point Group                 C1    NOp =  1
 Largest Abelian Subgroup              C1    NOp =  1
 Nuclear Repulsion Energy =   992.0697670921 hartrees
 There are       55 alpha and       55 beta electrons
 Applying Cartesian multipole field
    Component          Value
    ---------          -----
     (2,0,0)        1.00000E-11
     (0,2,0)        2.00000E-11
     (0,0,2)       -3.00000E-11
 Nucleus-field energy     =     0.0000000386 hartrees
 Requested basis set is STO-3G
 There are 42 shells and 87 basis functions
 A cutoff of  1.0D-12 yielded    762 shell pairs
 There are      3690 function pairs
 Smallest overlap matrix eigenvalue = 1.81E-01
 Guess MOs from SCF MO coefficient file
 Reading MOs from coefficient file
 Reading MOs from coefficient file
 A restricted hybrid HF-DFT SCF calculation will be
 performed using Pulay DIIS extrapolation
 Exchange:     0.2000 Hartree-Fock + 0.0800 Slater + 0.7200 B88
 Correlation:  0.1900 VWN1RPA + 0.8100 LYP
 Using SG-1 standard quadrature grid
 Dispersion:   Grimme D3
 SCF converges when DIIS error is below 1.0E-08
 Geometry optimization detected.  Setting ReadMinima to 0
 Setting SaveMinima to 0
 -------------------------------------------------------
 OpenMP Integral computing Module                
 Release: version 1.0, May 2013, Q-Chem Inc. Pittsburgh 
 -------------------------------------------------------
 -------------------------------------------------------
 OpenMP BLAS3 based DFT computing Module                
 Release: version 1.0, May 2013, Q-Chem Inc. Pittsburgh 
 -------------------------------------------------------
 ---------------------------------------
  Cycle       Energy         DIIS Error
 ---------------------------------------
    1    -717.7852403576      7.26E-03
    2    -717.9448547237      2.42E-03
    3    -717.9322608663      4.21E-03
    4    -717.9510666199      6.50E-04
    5    -717.9515412094      1.88E-04
    6    -717.9515814551      4.90E-05
    7    -717.9515841531      1.96E-05
    8    -717.9515845566      1.05E-05
    9    -717.9515846720      2.68E-06
   10    -717.9515846809      5.10E-07
   11    -717.9515846813      1.69E-07
   12    -717.9515846814      4.99E-08
   13    -717.9515846814      2.00E-08
   14    -717.9515846814      5.88E-09 Convergence criterion met
 ---------------------------------------
 SCF time:  CPU 55.15 s  wall 2.33 s
 SCF   energy in the final basis set = -717.9515846814
 Total energy in the final basis set = -717.9515846814
 
 --------------------------------------------------------------
 
                    Orbital Energies (a.u.)
 --------------------------------------------------------------
 
 Alpha MOs
 -- Occupied --
-18.943 -18.934 -18.871 -18.865 -10.107 -10.102 -10.071 -10.063
-10.027 -10.027 -10.023 -10.018 -10.014 -10.014 -10.012  -1.022
 -1.012  -0.941  -0.934  -0.815  -0.735  -0.721  -0.678  -0.661
 -0.646  -0.588  -0.562  -0.509  -0.498  -0.461  -0.440  -0.427
 -0.419  -0.413  -0.409  -0.388  -0.382  -0.376  -0.370  -0.358
 -0.348  -0.341  -0.333  -0.314  -0.310  -0.297  -0.288  -0.255
 -0.246  -0.197  -0.191  -0.181  -0.171  -0.153  -0.145
 -- Virtual --
  0.046   0.071   0.120   0.140   0.240   0.256   0.280   0.330
  0.351   0.361   0.375   0.393   0.414   0.422   0.427   0.430
  0.431   0.437   0.439   0.443   0.449   0.459   0.466   0.478
  0.549   0.561   0.568   0.591   0.657   0.665   0.758   0.775
 --------------------------------------------------------------
 
          Ground-State Mulliken Net Atomic Charges

     Atom                 Charge (a.u.)
  ----------------------------------------
      1 C                    -0.016929
      2 C                    -0.014927
      3 C                     0.215232
      4 C                     0.220868
      5 O                    -0.173152
      6 O                    -0.215506
      7 O                    -0.172265
      8 O                    -0.213664
      9 C                    -0.124595
     10 C                    -0.123783
     11 C                    -0.074643
     12 C                    -0.077470
     13 C                    -0.076282
     14 C                     0.011298
     15 H                     0.094466
     16 H                     0.090552
     17 H                     0.080806
     18 H                     0.087072
     19 H                     0.090690
     20 H                     0.092795
     21 H                     0.091300
     22 H                     0.083161
     23 H                     0.091982
     24 C                    -0.226206
     25 H                     0.093829
     26 H                     0.084741
     27 H                     0.080630
  ----------------------------------------
  Sum of atomic charges =     0.000000

 -----------------------------------------------------------------
                    Cartesian Multipole Moments
 -----------------------------------------------------------------
    Charge (ESU x 10^10)
                 0.0000
    Dipole Moment (Debye)
         X       0.6922      Y      -0.6790      Z       1.2366
       Tot       1.5714
    Quadrupole Moments (Debye-Ang)
        XX     -68.6031     XY       1.6262     YY     -73.7103
        XZ      -1.5349     YZ       4.3400     ZZ     -83.2248
    Octopole Moments (Debye-Ang^2)
       XXX      42.1965    XXY      -0.9879    XYY       1.0398
       YYY      26.3811    XXZ       0.5179    XYZ      -0.9478
       YYZ      11.4700    XZZ      10.2589    YZZ       7.9337
       ZZZ      -8.3687
    Hexadecapole Moments (Debye-Ang^3)
      XXXX   -1868.8680   XXXY     -26.8676   XXYY    -612.7476
      XYYY     -22.3324   YYYY   -1487.8739   XXXZ      -6.1532
      XXYZ       7.5347   XYYZ     -10.9241   YYYZ      16.8613
      XXZZ    -385.9076   XYZZ      -9.7922   YYZZ    -313.7910
      XZZZ      -7.8715   YZZZ       1.0223   ZZZZ    -195.0464
 -----------------------------------------------------------------
 Calculating analytic gradient of the SCF energy
 Gradient of SCF Energy
            1           2           3           4           5           6
    1   0.0024509   0.0019074   0.0107619   0.0051171  -0.0062328  -0.0020829
    2   0.0069010   0.0047068  -0.0047927   0.0033352   0.0196768  -0.0107725
    3   0.0003462  -0.0070753   0.0092759   0.0147471  -0.0116493   0.0011774
            7           8           9          10          11          12
    1  -0.0100155   0.0028525   0.0012512  -0.0068532   0.0000021  -0.0001666
    2   0.0036987  -0.0072645  -0.0087225  -0.0061770   0.0017144  -0.0011250
    3  -0.0215848   0.0054942   0.0034836   0.0021768  -0.0005059   0.0004047
           13          14          15          16          17          18
    1  -0.0008926  -0.0026155   0.0006220   0.0004147   0.0015686   0.0011669
    2   0.0000731   0.0028807  -0.0002999  -0.0019686  -0.0003503  -0.0007099
    3   0.0003645   0.0006636   0.0020824   0.0013334  -0.0002561   0.0018217
           19          20          21          22          23          24
    1  -0.0006744   0.0006853   0.0003481   0.0000910  -0.0023734   0.0051127
    2   0.0021779   0.0022240  -0.0020820   0.0012024  -0.0015304  -0.0003674
    3  -0.0018660  -0.0009506   0.0009011  -0.0001081  -0.0005660  -0.0008318
           25          26          27
    1  -0.0010145  -0.0010405  -0.0003905
    2  -0.0021340  -0.0019460   0.0016517
    3   0.0003809   0.0006764   0.0000641
 Max gradient component =       2.158E-02
 RMS gradient           =       5.275E-03
 Gradient time:  CPU 12.83 s  wall 0.54 s
 Geometry Optimization Parameters
   NAtoms,    NIC,     NZ,  NCons,   NDum,   NFix, NCnnct, MaxDiis
       27     173       0       2       0       0       0       0

 Cartesian Hessian Update
 Hessian Updated using BFGS Update


** CONSTRAINED OPTIMIZATION IN DELOCALIZED INTERNAL COORDINATES **
   Searching for a Minimum

   Optimization Cycle:   2

                       Coordinates (Angstroms)
     ATOM                X               Y               Z
      1  C         0.3975659338   -0.8901996468    0.0151646730
      2  C        -0.8459406390   -0.2143375205   -0.0793059324
      3  C         1.6931035716   -0.1031274460   -0.1805944182
      4  C        -0.8828776249    1.3131800375   -0.2305706948
      5  O         2.7910266038   -0.8717616689    0.2383356751
      6  O         1.7789418243    1.0190578898   -0.7265836016
      7  O        -0.3200922081    1.8958562679    0.9171438786
      8  O        -1.3811694771    1.9394892437   -1.1883592023
      9  C        -0.2742277103    3.3582173005    0.8428582807
     10  C         4.0668789339   -0.1889966583    0.0230781830
     11  C         0.4174340391   -2.2971728874    0.1726819298
     12  C        -0.7856801289   -3.0172761985    0.2570896138
     13  C        -2.0177684998   -2.3424704875    0.1699836169
     14  C        -2.0679719068   -0.9396303563    0.0013421023
     15  H         0.3151892282    3.7030506750   -0.0293940768
     16  H         4.2628724646   -0.0182569293   -1.0541056130
     17  H        -2.9513718032   -2.9154248499    0.2307852672
     18  H        -1.2907060678    3.7966718108    0.7908963812
     19  H         0.2173325400    3.7148776621    1.7653056440
     20  H         4.8551643462   -0.8495716122    0.4258024672
     21  H         4.1083407362    0.7806351081    0.5574481078
     22  H        -0.7643284256   -4.1068753151    0.3809576812
     23  H         1.3741553655   -2.8311832239    0.2170749803
     24  C        -3.4220391127   -0.2279953825   -0.0950082707
     25  H        -3.5568846122    0.2250085806   -1.0898484708
     26  H        -3.5092878372    0.5644884371    0.6647426646
     27  H        -4.2455631777   -0.9375719178    0.0679133000
   Point Group: c1    Number of degrees of freedom:    75


   Energy is   -717.951584681

              Constraints and their Current Values
                                        Value     Constraint
   Dihedral:        2   1   3   5      167.044      168.600
   Dihedral:        1   2   4   7      -63.154      -62.300
 Hessian Updated using BFGS Update

   Using Lagrange Multiplier Algorithm


 65 Hessian modes will be used to form the next step
  Hessian Eigenvalues:
    -0.977921   -0.977277    0.044829    0.045000    0.045000    0.045000
     0.045000    0.045000    0.045001    0.045002    0.045006    0.045009
     0.045047    0.045081    0.045748    0.094018    0.094224    0.113798
     0.113883    0.116885    0.116948    0.158462    0.159978    0.159992
     0.160000    0.162238    0.220811    0.233744    0.238698    0.248932
     0.249177    0.249775    0.249935    0.249959    0.250000    0.253186
     0.319385    0.336678    0.342233    0.342628    0.342732    0.342872
     0.343255    0.343784    0.343947    0.344328    0.345139    0.348600
     0.350307    0.350583    0.371735    0.408209    0.411463    0.413609
     0.422733    0.442577    0.451382    0.463408    0.468054    0.519987
     0.534974    0.959959    0.987680    1.022676    1.024945

 Minimum Search - Taking P-RFO Step
 Searching for Lamda that Maximizes Along the Constraint modes Only
 Value Taken    Lamda =   0.00040919
 Searching for Lamda that Minimizes Along All other modes
 Value Taken    Lamda =  -0.00558193
 Step Taken.  Stepsize is  0.170955

                             Maximum     Tolerance    Cnvgd?
         Gradient            0.027159       0.000300      NO
         Displacement        0.053203       0.001200      NO
         Energy change     -0.025858       0.000001      NO


 New Cartesian Coordinates Obtained by Inverse Iteration

 Displacement from previous Coordinates is:  0.552444
 Adding empirical dispersion correction 
 ----------------------------------------------------------------
 Doing -D3(op) with
 s6 =   1.00000
 s8 =   0.78311
 a1 =   0.30000
 a2 =   4.25000
 n  =  10.00000
 -D3 energy without 3body term =     -0.0279608963 hartrees
 ----------------------------------------------------------------
             Standard Nuclear Orientation (Angstroms)
    I     Atom           X                Y                Z
 ----------------------------------------------------------------
    1      C       0.3875134432    -0.9197399756     0.0398708754
    2      C      -0.8531721912    -0.2344824151    -0.0531195697
    3      C       1.6835399916    -0.1177220662    -0.1485924961
    4      C      -0.8732142223     1.3058757648    -0.2019796121
    5      O       2.8045419134    -0.9079713834     0.2372272420
    6      O       1.7684977095     1.0441198417    -0.6220115987
    7      O      -0.2769409362     1.8796199565     0.9581666192
    8      O      -1.3629800585     1.9631295694    -1.1508040920
    9      C      -0.2335247820     3.3466775523     0.8058434949
   10      C       4.0464612695    -0.1413959886     0.0186527303
   11      C       0.4088079945    -2.3277753969     0.1771548550
   12      C      -0.8004230579    -3.0429578564     0.2430162340
   13      C      -2.0314550603    -2.3602918110     0.1571174664
   14      C      -2.0769648624    -0.9547195314     0.0079608071
   15      H       0.3434663076     3.6435309853    -0.0944730385
   16      H       4.2001619848     0.0904321326    -1.0561938157
   17      H      -2.9732265272    -2.9244611926     0.2053539594
   18      H      -1.2515971184     3.7838873990     0.7351422197
   19      H       0.2707740870     3.7278512107     1.7134051309
   20      H       4.8682063406    -0.7887579171     0.3782891131
   21      H       4.0482055677     0.8117644768     0.5871436790
   22      H      -0.7864651271    -4.1359438135     0.3532786131
   23      H       1.3749830779    -2.8486181211     0.2240887921
   24      C      -3.4267672966    -0.2228489216    -0.0923806297
   25      H      -3.5354017063     0.2542496808    -1.0810176957
   26      H      -3.5038570520     0.5661348095     0.6739444208
   27      H      -4.2570733332    -0.9309060769     0.0497504621
 ----------------------------------------------------------------
 Molecular Point Group                 C1    NOp =  1
 Largest Abelian Subgroup              C1    NOp =  1
 Nuclear Repulsion Energy =   991.2871449855 hartrees
 There are       55 alpha and       55 beta electrons
 Applying Cartesian multipole field
    Component          Value
    ---------          -----
     (2,0,0)        1.00000E-11
     (0,2,0)        2.00000E-11
     (0,0,2)       -3.00000E-11
 Nucleus-field energy     =     0.0000000390 hartrees
 Requested basis set is STO-3G
 There are 42 shells and 87 basis functions
 A cutoff of  1.0D-12 yielded    763 shell pairs
 There are      3691 function pairs
 Smallest overlap matrix eigenvalue = 1.82E-01
 Guess MOs from SCF MO coefficient file
 Reading MOs from coefficient file
 Reading MOs from coefficient file
 A restricted hybrid HF-DFT SCF calculation will be
 performed using Pulay DIIS extrapolation
 Exchange:     0.2000 Hartree-Fock + 0.0800 Slater + 0.7200 B88
 Correlation:  0.1900 VWN1RPA + 0.8100 LYP
 Using SG-1 standard quadrature grid
 Dispersion:   Grimme D3
 SCF converges when DIIS error is below 1.0E-08
 Geometry optimization detected.  Setting ReadMinima to 0
 Setting SaveMinima to 0
 -------------------------------------------------------
 OpenMP Integral computing Module                
 Release: version 1.0, May 2013, Q-Chem Inc. Pittsburgh 
 -------------------------------------------------------
 -------------------------------------------------------
 OpenMP BLAS3 based DFT computing Module                
 Release: version 1.0, May 2013, Q-Chem Inc. Pittsburgh 
 -------------------------------------------------------
 ---------------------------------------
  Cycle       Energy         DIIS Error
 ---------------------------------------
    1    -717.8999432915      3.96E-03
    2    -717.9529750526      9.64E-04
    3    -717.9503144133      1.87E-03
    4    -717.9539905748      2.86E-04
    5    -717.9540814244      8.85E-05
    6    -717.9540901497      2.54E-05
    7    -717.9540908964      9.29E-06
    8    -717.9540909993      4.25E-06
    9    -717.9540910169      1.78E-06
   10    -717.9540910205      2.68E-07
   11    -717.9540910206      6.92E-08
   12    -717.9540910206      2.72E-08
   13    -717.9540910206      1.09E-08
   14    -717.9540910206      2.29E-09 Convergence criterion met
 ---------------------------------------
 SCF time:  CPU 52.94 s  wall 2.23 s
 SCF   energy in the final basis set = -717.9540910206
 Total energy in the final basis set = -717.9540910206
 
 --------------------------------------------------------------
 
                    Orbital Energies (a.u.)
 --------------------------------------------------------------
 
 Alpha MOs
 -- Occupied --
-18.941 -18.931 -18.874 -18.868 -10.104 -10.099 -10.067 -10.059
-10.028 -10.027 -10.024 -10.019 -10.016 -10.015 -10.014  -1.016
 -1.006  -0.937  -0.930  -0.815  -0.735  -0.720  -0.673  -0.656
 -0.645  -0.586  -0.562  -0.507  -0.495  -0.458  -0.439  -0.425
 -0.415  -0.413  -0.405  -0.387  -0.379  -0.372  -0.368  -0.358
 -0.348  -0.341  -0.331  -0.311  -0.309  -0.296  -0.286  -0.260
 -0.251  -0.196  -0.192  -0.181  -0.170  -0.154  -0.147
 -- Virtual --
  0.044   0.070   0.118   0.138   0.239   0.252   0.277   0.319
  0.339   0.350   0.369   0.388   0.410   0.420   0.423   0.428
  0.429   0.436   0.436   0.441   0.446   0.454   0.461   0.474
  0.543   0.556   0.564   0.587   0.646   0.657   0.755   0.771
 --------------------------------------------------------------
 
          Ground-State Mulliken Net Atomic Charges

     Atom                 Charge (a.u.)
  ----------------------------------------
      1 C                    -0.016947
      2 C                    -0.015440
      3 C                     0.209172
      4 C                     0.214992
      5 O                    -0.167459
      6 O                    -0.211207
      7 O                    -0.166369
      8 O                    -0.210343
      9 C                    -0.126332
     10 C                    -0.125911
     11 C                    -0.074906
     12 C                    -0.076604
     13 C                    -0.075970
     14 C                     0.010697
     15 H                     0.094172
     16 H                     0.089719
     17 H                     0.080953
     18 H                     0.086271
     19 H                     0.088540
     20 H                     0.091038
     21 H                     0.091065
     22 H                     0.083499
     23 H                     0.093044
     24 C                    -0.224654
     25 H                     0.093492
     26 H                     0.084823
     27 H                     0.080668
  ----------------------------------------
  Sum of atomic charges =     0.000000

 -----------------------------------------------------------------
                    Cartesian Multipole Moments
 -----------------------------------------------------------------
    Charge (ESU x 10^10)
                 0.0000
    Dipole Moment (Debye)
         X       0.5599      Y      -0.7387      Z       1.0272
       Tot       1.3836
    Quadrupole Moments (Debye-Ang)
        XX     -69.1096     XY       1.9262     YY     -74.1607
        XZ      -1.5733     YZ       3.8530     ZZ     -83.0425
    Octopole Moments (Debye-Ang^2)
       XXX      38.9175    XXY       0.4468    XYY       0.7056
       YYY      25.5618    XXZ      -0.9864    XYZ      -1.1328
       YYZ       9.3025    XZZ      10.3878    YZZ       8.7820
       ZZZ     -11.8057
    Hexadecapole Moments (Debye-Ang^3)
      XXXX   -1875.2409   XXXY     -32.6869   XXYY    -614.2162
      XYYY     -31.0677   YYYY   -1507.8859   XXXZ      -9.6095
      XXYZ       6.2301   XYYZ     -11.0969   YYYZ      14.0168
      XXZZ    -383.3588   XYZZ     -12.7115   YYZZ    -315.4577
      XZZZ     -10.8042   YZZZ      -1.0221   ZZZZ    -186.9331
 -----------------------------------------------------------------
 Calculating analytic gradient of the SCF energy
 Gradient of SCF Energy
            1           2           3           4           5           6
    1  -0.0007461   0.0008456   0.0055836   0.0018856  -0.0013522  -0.0007331
    2  -0.0006222  -0.0010721  -0.0025804   0.0040356   0.0015276   0.0026171
    3   0.0039528  -0.0036703   0.0035416   0.0081074  -0.0018274  -0.0016529
            7           8           9          10          11          12
    1   0.0006148  -0.0010885  -0.0013559  -0.0044269   0.0000393   0.0003809
    2  -0.0007960   0.0009383  -0.0045870  -0.0005310   0.0005102  -0.0001783
    3  -0.0032165  -0.0029208  -0.0018668   0.0002406  -0.0009722  -0.0000183
           13          14          15          16          17          18
    1  -0.0005582  -0.0001650   0.0002509   0.0001653  -0.0002460  -0.0004938
    2   0.0006251   0.0001952   0.0003535   0.0000706  -0.0000056   0.0003164
    3  -0.0000664   0.0006751  -0.0004876  -0.0005411  -0.0001080   0.0000756
           19          20          21          22          23          24
    1   0.0002971   0.0000374   0.0003350   0.0001381   0.0001959   0.0010629
    2  -0.0006402  -0.0004875   0.0005143  -0.0001078  -0.0003371   0.0008025
    3   0.0004564   0.0003069   0.0002354   0.0000835  -0.0003012  -0.0001846
           25          26          27
    1  -0.0002777  -0.0001424  -0.0002468
    2  -0.0002210   0.0000353  -0.0003754
    3  -0.0002840   0.0002201   0.0002229
 Max gradient component =       8.107E-03
 RMS gradient           =       1.797E-03
 Gradient time:  CPU 12.63 s  wall 0.53 s
 Geometry Optimization Parameters
   NAtoms,    NIC,     NZ,  NCons,   NDum,   NFix, NCnnct, MaxDiis
       27     173       0       2       0       0       0       0

 Cartesian Hessian Update
 Hessian Updated using BFGS Update


** CONSTRAINED OPTIMIZATION IN DELOCALIZED INTERNAL COORDINATES **
   Searching for a Minimum

   Optimization Cycle:   3

                       Coordinates (Angstroms)
     ATOM                X               Y               Z
      1  C         0.3875134432   -0.9197399756    0.0398708754
      2  C        -0.8531721912   -0.2344824151   -0.0531195697
      3  C         1.6835399916   -0.1177220662   -0.1485924961
      4  C        -0.8732142223    1.3058757648   -0.2019796121
      5  O         2.8045419134   -0.9079713834    0.2372272420
      6  O         1.7684977095    1.0441198417   -0.6220115987
      7  O        -0.2769409362    1.8796199565    0.9581666192
      8  O        -1.3629800585    1.9631295694   -1.1508040920
      9  C        -0.2335247820    3.3466775523    0.8058434949
     10  C         4.0464612695   -0.1413959886    0.0186527303
     11  C         0.4088079945   -2.3277753969    0.1771548550
     12  C        -0.8004230579   -3.0429578564    0.2430162340
     13  C        -2.0314550603   -2.3602918110    0.1571174664
     14  C        -2.0769648624   -0.9547195314    0.0079608071
     15  H         0.3434663076    3.6435309853   -0.0944730385
     16  H         4.2001619848    0.0904321326   -1.0561938157
     17  H        -2.9732265272   -2.9244611926    0.2053539594
     18  H        -1.2515971184    3.7838873990    0.7351422197
     19  H         0.2707740870    3.7278512107    1.7134051309
     20  H         4.8682063406   -0.7887579171    0.3782891131
     21  H         4.0482055677    0.8117644768    0.5871436790
     22  H        -0.7864651271   -4.1359438135    0.3532786131
     23  H         1.3749830779   -2.8486181211    0.2240887921
     24  C        -3.4267672966   -0.2228489216   -0.0923806297
     25  H        -3.5354017063    0.2542496808   -1.0810176957
     26  H        -3.5038570520    0.5661348095    0.6739444208
     27  H        -4.2570733332   -0.9309060769    0.0497504621
   Point Group: c1    Number of degrees of freedom:    75


   Energy is   -717.954091021

              Constraints and their Current Values
                                        Value     Constraint
   Dihedral:        2   1   3   5      168.595      168.600
   Dihedral:        1   2   4   7      -62.302      -62.300
 Hessian Updated using BFGS Update

   Using Lagrange Multiplier Algorithm


 68 Hessian modes will be used to form the next step
  Hessian Eigenvalues:
    -0.977884   -0.976566    0.043027    0.045000    0.045000    0.045000
     0.045000    0.045000    0.045000    0.045002    0.045005    0.045008
     0.045026    0.045081    0.045624    0.046501    0.093361    0.094216
     0.112985    0.113894    0.116881    0.116950    0.158041    0.159986
     0.159996    0.160000    0.161287    0.163576    0.220936    0.234272
     0.236336    0.248949    0.249534    0.249829    0.249946    0.249999
     0.250000    0.252440    0.294606    0.319344    0.336674    0.342286
     0.342647    0.342724    0.342884    0.343322    0.343775    0.343977
     0.344430    0.345641    0.348689    0.350322    0.350716    0.375988
     0.389585    0.410140    0.413616    0.418698    0.442515    0.451992
     0.463503    0.467599    0.472456    0.534926    0.959989    1.005285
     1.022821    1.036517

 Minimum Search - Taking P-RFO Step
 Searching for Lamda that Maximizes Along the Constraint modes Only
 Value Taken    Lamda =   0.00000490
 Searching for Lamda that Minimizes Along All other modes
 Value Taken    Lamda =  -0.00057080
 Step Taken.  Stepsize is  0.059759

                             Maximum     Tolerance    Cnvgd?
         Gradient            0.005440       0.000300      NO
         Displacement        0.017997       0.001200      NO
         Energy change     -0.002506       0.000001      NO


 New Cartesian Coordinates Obtained by Inverse Iteration

 Displacement from previous Coordinates is:  0.214466
 Adding empirical dispersion correction 
 ----------------------------------------------------------------
 Doing -D3(op) with
 s6 =   1.00000
 s8 =   0.78311
 a1 =   0.30000
 a2 =   4.25000
 n  =  10.00000
 -D3 energy without 3body term =     -0.0279051343 hartrees
 ----------------------------------------------------------------
             Standard Nuclear Orientation (Angstroms)
    I     Atom           X                Y                Z
 ----------------------------------------------------------------
    1      C       0.3862540173    -0.9150102453     0.0365123817
    2      C      -0.8573861970    -0.2313411673    -0.0566015132
    3      C       1.6861157969    -0.1210961546    -0.1600571853
    4      C      -0.8875328818     1.3106447166    -0.2025397848
    5      O       2.8108642007    -0.9173769875     0.2299380585
    6      O       1.7816478047     1.0405018230    -0.6291079833
    7      O      -0.2930933195     1.8941998932     0.9643144141
    8      O      -1.3837432346     1.9699714648    -1.1448825983
    9      C      -0.2460951612     3.3689273939     0.8234055412
   10      C       4.0659606850    -0.1624174405     0.0068327886
   11      C       0.4100542223    -2.3217736597     0.1883098198
   12      C      -0.7967317247    -3.0404363433     0.2547334037
   13      C      -2.0283899433    -2.3626111571     0.1574324333
   14      C      -2.0782054748    -0.9577123178     0.0019625704
   15      H       0.3362567032     3.6672003601    -0.0719369515
   16      H       4.2188196419     0.0646224953    -1.0683579235
   17      H      -2.9684621942    -2.9292116556     0.2064771211
   18      H      -1.2629757105     3.8055190574     0.7448751119
   19      H       0.2509758277     3.7484059162     1.7351969177
   20      H       4.8826598625    -0.8142992857     0.3681381417
   21      H       4.0727683841     0.7928039530     0.5702361139
   22      H      -0.7810552083    -4.1324871584     0.3732026103
   23      H       1.3787522628    -2.8363002141     0.2443205829
   24      C      -3.4310191449    -0.2305386431    -0.1050946540
   25      H      -3.5328116918     0.2471423284    -1.0940104642
   26      H      -3.5108468169     0.5605474021     0.6584969234
   27      H      -4.2606843497    -0.9391934621     0.0330382899
 ----------------------------------------------------------------
 Molecular Point Group                 C1    NOp =  1
 Largest Abelian Subgroup              C1    NOp =  1
 Nuclear Repulsion Energy =   988.8068391231 hartrees
 There are       55 alpha and       55 beta electrons
 Applying Cartesian multipole field
    Component          Value
    ---------          -----
     (2,0,0)        1.00000E-11
     (0,2,0)        2.00000E-11
     (0,0,2)       -3.00000E-11
 Nucleus-field energy     =     0.0000000392 hartrees
 Requested basis set is STO-3G
 There are 42 shells and 87 basis functions
 A cutoff of  1.0D-12 yielded    762 shell pairs
 There are      3690 function pairs
 Smallest overlap matrix eigenvalue = 1.82E-01
 Guess MOs from SCF MO coefficient file
 Reading MOs from coefficient file
 Reading MOs from coefficient file
 A restricted hybrid HF-DFT SCF calculation will be
 performed using Pulay DIIS extrapolation
 Exchange:     0.2000 Hartree-Fock + 0.0800 Slater + 0.7200 B88
 Correlation:  0.1900 VWN1RPA + 0.8100 LYP
 Using SG-1 standard quadrature grid
 Dispersion:   Grimme D3
 SCF converges when DIIS error is below 1.0E-08
 Geometry optimization detected.  Setting ReadMinima to 0
 Setting SaveMinima to 0
 -------------------------------------------------------
 OpenMP Integral computing Module                
 Release: version 1.0, May 2013, Q-Chem Inc. Pittsburgh 
 -------------------------------------------------------
 -------------------------------------------------------
 OpenMP BLAS3 based DFT computing Module                
 Release: version 1.0, May 2013, Q-Chem Inc. Pittsburgh 
 -------------------------------------------------------
 ---------------------------------------
  Cycle       Energy         DIIS Error
 ---------------------------------------
    1    -717.9468620318      1.04E-03
    2    -717.9542174914      3.19E-04
    3    -717.9538196588      6.79E-04
    4    -717.9543311713      5.36E-05
    5    -717.9543343170      1.64E-05
    6    -717.9543346029      5.41E-06
    7    -717.9543346331      2.85E-06
    8    -717.9543346413      1.05E-06
    9    -717.9543346424      3.87E-07
   10    -717.9543346426      6.63E-08
   11    -717.9543346426      1.81E-08
   12    -717.9543346426      9.40E-09 Convergence criterion met
 ---------------------------------------
 SCF time:  CPU 44.29 s  wall 1.86 s
 SCF   energy in the final basis set = -717.9543346426
 Total energy in the final basis set = -717.9543346426
 
 --------------------------------------------------------------
 
                    Orbital Energies (a.u.)
 --------------------------------------------------------------
 
 Alpha MOs
 -- Occupied --
-18.938 -18.928 -18.875 -18.870 -10.104 -10.099 -10.066 -10.058
-10.028 -10.028 -10.025 -10.020 -10.016 -10.016 -10.014  -1.012
 -1.003  -0.936  -0.929  -0.816  -0.735  -0.720  -0.672  -0.656
 -0.645  -0.587  -0.562  -0.507  -0.494  -0.456  -0.438  -0.425
 -0.414  -0.413  -0.404  -0.387  -0.379  -0.372  -0.368  -0.359
 -0.348  -0.342  -0.331  -0.312  -0.309  -0.296  -0.286  -0.258
 -0.250  -0.197  -0.192  -0.180  -0.170  -0.154  -0.148
 -- Virtual --
  0.043   0.069   0.117   0.138   0.237   0.248   0.272   0.317
  0.337   0.349   0.368   0.387   0.408   0.421   0.423   0.429
  0.430   0.436   0.437   0.441   0.446   0.454   0.461   0.474
  0.542   0.556   0.563   0.586   0.645   0.657   0.754   0.770
 --------------------------------------------------------------
 
          Ground-State Mulliken Net Atomic Charges

     Atom                 Charge (a.u.)
  ----------------------------------------
      1 C                    -0.016364
      2 C                    -0.015147
      3 C                     0.208033
      4 C                     0.213708
      5 O                    -0.167598
      6 O                    -0.210489
      7 O                    -0.166063
      8 O                    -0.209321
      9 C                    -0.127853
     10 C                    -0.127300
     11 C                    -0.074736
     12 C                    -0.076535
     13 C                    -0.075963
     14 C                     0.011032
     15 H                     0.093813
     16 H                     0.089564
     17 H                     0.081180
     18 H                     0.086344
     19 H                     0.089111
     20 H                     0.091270
     21 H                     0.091004
     22 H                     0.083766
     23 H                     0.093727
     24 C                    -0.224864
     25 H                     0.093616
     26 H                     0.085088
     27 H                     0.080979
  ----------------------------------------
  Sum of atomic charges =     0.000000

 -----------------------------------------------------------------
                    Cartesian Multipole Moments
 -----------------------------------------------------------------
    Charge (ESU x 10^10)
                 0.0000
    Dipole Moment (Debye)
         X       0.5217      Y      -0.7617      Z       1.0055
       Tot       1.3650
    Quadrupole Moments (Debye-Ang)
        XX     -69.1265     XY       1.9266     YY     -74.0492
        XZ      -1.5706     YZ       3.8304     ZZ     -83.0072
    Octopole Moments (Debye-Ang^2)
       XXX      39.5711    XXY       0.0021    XYY       0.7241
       YYY      25.9476    XXZ      -1.0181    XYZ      -1.1556
       YYZ       9.7368    XZZ      10.4822    YZZ       8.7768
       ZZZ     -11.7142
    Hexadecapole Moments (Debye-Ang^3)
      XXXX   -1884.1878   XXXY     -29.0422   XXYY    -617.7600
      XYYY     -26.3919   YYYY   -1512.7523   XXXZ      -9.0649
      XXYZ       5.9818   XYYZ     -10.8336   YYYZ      13.5003
      XXZZ    -385.9977   XYZZ     -11.2632   YYZZ    -316.5342
      XZZZ      -9.8027   YZZZ      -1.9021   ZZZZ    -188.6043
 -----------------------------------------------------------------
 Calculating analytic gradient of the SCF energy
 Gradient of SCF Energy
            1           2           3           4           5           6
    1  -0.0005269  -0.0004121   0.0001660  -0.0010026  -0.0006094   0.0002928
    2  -0.0005441  -0.0012477  -0.0017393  -0.0004733   0.0000722   0.0015021
    3   0.0034190  -0.0036201   0.0007421   0.0026870  -0.0005622  -0.0008608
            7           8           9          10          11          12
    1   0.0006146  -0.0004995   0.0004384   0.0011803   0.0000401   0.0000152
    2   0.0000581   0.0007342   0.0010163  -0.0000872  -0.0000127   0.0002623
    3  -0.0010612  -0.0011187   0.0008408   0.0002987  -0.0003817  -0.0001138
           13          14          15          16          17          18
    1   0.0000937   0.0002325  -0.0002485  -0.0000309  -0.0001043   0.0000670
    2   0.0000667  -0.0003150  -0.0000598   0.0001706   0.0000194   0.0000683
    3  -0.0001678   0.0003104  -0.0001349   0.0000093   0.0000424  -0.0000994
           19          20          21          22          23          24
    1   0.0001362   0.0002315  -0.0000269  -0.0000264   0.0000724  -0.0002963
    2   0.0002765  -0.0000031   0.0000729  -0.0000787   0.0000072   0.0002132
    3   0.0000849   0.0000433  -0.0001928  -0.0000076  -0.0001174   0.0000328
           25          26          27
    1   0.0000319   0.0001788  -0.0000076
    2  -0.0000287   0.0001620  -0.0001125
    3  -0.0000685  -0.0001283   0.0001245
 Max gradient component =       3.620E-03
 RMS gradient           =       7.937E-04
 Gradient time:  CPU 12.34 s  wall 0.52 s
 Geometry Optimization Parameters
   NAtoms,    NIC,     NZ,  NCons,   NDum,   NFix, NCnnct, MaxDiis
       27     173       0       2       0       0       0       0

 Cartesian Hessian Update
 Hessian Updated using BFGS Update


** CONSTRAINED OPTIMIZATION IN DELOCALIZED INTERNAL COORDINATES **
   Searching for a Minimum

   Optimization Cycle:   4

                       Coordinates (Angstroms)
     ATOM                X               Y               Z
      1  C         0.3862540173   -0.9150102453    0.0365123817
      2  C        -0.8573861970   -0.2313411673   -0.0566015132
      3  C         1.6861157969   -0.1210961546   -0.1600571853
      4  C        -0.8875328818    1.3106447166   -0.2025397848
      5  O         2.8108642007   -0.9173769875    0.2299380585
      6  O         1.7816478047    1.0405018230   -0.6291079833
      7  O        -0.2930933195    1.8941998932    0.9643144141
      8  O        -1.3837432346    1.9699714648   -1.1448825983
      9  C        -0.2460951612    3.3689273939    0.8234055412
     10  C         4.0659606850   -0.1624174405    0.0068327886
     11  C         0.4100542223   -2.3217736597    0.1883098198
     12  C        -0.7967317247   -3.0404363433    0.2547334037
     13  C        -2.0283899433   -2.3626111571    0.1574324333
     14  C        -2.0782054748   -0.9577123178    0.0019625704
     15  H         0.3362567032    3.6672003601   -0.0719369515
     16  H         4.2188196419    0.0646224953   -1.0683579235
     17  H        -2.9684621942   -2.9292116556    0.2064771211
     18  H        -1.2629757105    3.8055190574    0.7448751119
     19  H         0.2509758277    3.7484059162    1.7351969177
     20  H         4.8826598625   -0.8142992857    0.3681381417
     21  H         4.0727683841    0.7928039530    0.5702361139
     22  H        -0.7810552083   -4.1324871584    0.3732026103
     23  H         1.3787522628   -2.8363002141    0.2443205829
     24  C        -3.4310191449   -0.2305386431   -0.1050946540
     25  H        -3.5328116918    0.2471423284   -1.0940104642
     26  H        -3.5108468169    0.5605474021    0.6584969234
     27  H        -4.2606843497   -0.9391934621    0.0330382899
   Point Group: c1    Number of degrees of freedom:    75


   Energy is   -717.954334643

              Constraints and their Current Values
                                        Value     Constraint
   Dihedral:        2   1   3   5      168.600      168.600
   Dihedral:        1   2   4   7      -62.300      -62.300
 Hessian Updated using BFGS Update

 62 Hessian modes will be used to form the next step
  Hessian Eigenvalues:
     0.039007    0.045000    0.045000    0.045000    0.045002    0.045005
     0.045008    0.045012    0.045029    0.045441    0.045785    0.046814
     0.093727    0.094221    0.113886    0.114572    0.116885    0.116951
     0.158463    0.159986    0.159996    0.160117    0.161295    0.163589
     0.220720    0.234428    0.235607    0.248971    0.249593    0.249830
     0.249989    0.249999    0.250174    0.252656    0.303374    0.319240
     0.335960    0.342233    0.342649    0.342730    0.342887    0.343380
     0.343840    0.343935    0.344436    0.347824    0.349017    0.350364
     0.351178    0.368338    0.407927    0.411361    0.413441    0.441652
     0.450791    0.457812    0.463868    0.464818    0.511447    0.540637
     0.960131    0.991564

 Minimum Search - Taking Simple RFO Step
 Searching for Lamda that Minimizes Along All modes
 Value Taken    Lamda =  -0.00005922
 Step Taken.  Stepsize is  0.021875

                             Maximum     Tolerance    Cnvgd?
         Gradient           0.002005      0.000300      NO
         Displacement       0.007309      0.001200      NO
         Energy change     -0.000244      0.000001      NO


 New Cartesian Coordinates Obtained by Inverse Iteration

 Displacement from previous Coordinates is:  0.073535
 Adding empirical dispersion correction 
 ----------------------------------------------------------------
 Doing -D3(op) with
 s6 =   1.00000
 s8 =   0.78311
 a1 =   0.30000
 a2 =   4.25000
 n  =  10.00000
 -D3 energy without 3body term =     -0.0279266108 hartrees
 ----------------------------------------------------------------
             Standard Nuclear Orientation (Angstroms)
    I     Atom           X                Y                Z
 ----------------------------------------------------------------
    1      C       0.3848139301    -0.9130462383     0.0352178107
    2      C      -0.8586556801    -0.2306454595    -0.0558255477
    3      C       1.6820491499    -0.1166020130    -0.1576371325
    4      C      -0.8865655799     1.3097423337    -0.2017142833
    5      O       2.8071008867    -0.9138719151     0.2301333260
    6      O       1.7760963565     1.0458630144    -0.6224540677
    7      O      -0.2888513279     1.8889768043     0.9656522454
    8      O      -1.3811602985     1.9712700739    -1.1423814352
    9      C      -0.2361817383     3.3624757346     0.8216812193
   10      C       4.0596225203    -0.1569774436     0.0051899026
   11      C       0.4097716469    -2.3197012606     0.1903219468
   12      C      -0.7963017977    -3.0396901012     0.2568852099
   13      C      -2.0283832161    -2.3630042395     0.1567945147
   14      C      -2.0794182500    -0.9578880057     0.0009295103
   15      H       0.3509835899     3.6578973961    -0.0715169353
   16      H       4.2104194620     0.0710389039    -1.0700457645
   17      H      -2.9676904857    -2.9307434615     0.2050323264
   18      H      -1.2513393893     3.8026127713     0.7404106887
   19      H       0.2593893175     3.7405114731     1.7345536175
   20      H       4.8770888779    -0.8089935817     0.3637874603
   21      H       4.0668190744     0.7968374269     0.5710207191
   22      H      -0.7796640558    -4.1314333558     0.3772927838
   23      H       1.3786938889    -2.8332660428     0.2494514458
   24      C      -3.4331962513    -0.2329004177    -0.1074621742
   25      H      -3.5341463557     0.2468619449    -1.0954053303
   26      H      -3.5169990536     0.5560883191     0.6578626641
   27      H      -4.2621988654    -0.9427317484     0.0270594454
 ----------------------------------------------------------------
 Molecular Point Group                 C1    NOp =  1
 Largest Abelian Subgroup              C1    NOp =  1
 Nuclear Repulsion Energy =   989.5125544352 hartrees
 There are       55 alpha and       55 beta electrons
 Applying Cartesian multipole field
    Component          Value
    ---------          -----
     (2,0,0)        1.00000E-11
     (0,2,0)        2.00000E-11
     (0,0,2)       -3.00000E-11
 Nucleus-field energy     =     0.0000000392 hartrees
 Requested basis set is STO-3G
 There are 42 shells and 87 basis functions
 A cutoff of  1.0D-12 yielded    763 shell pairs
 There are      3691 function pairs
 Smallest overlap matrix eigenvalue = 1.82E-01
 Guess MOs from SCF MO coefficient file
 Reading MOs from coefficient file
 Reading MOs from coefficient file
 A restricted hybrid HF-DFT SCF calculation will be
 performed using Pulay DIIS extrapolation
 Exchange:     0.2000 Hartree-Fock + 0.0800 Slater + 0.7200 B88
 Correlation:  0.1900 VWN1RPA + 0.8100 LYP
 Using SG-1 standard quadrature grid
 Dispersion:   Grimme D3
 SCF converges when DIIS error is below 1.0E-08
 Geometry optimization detected.  Setting ReadMinima to 0
 Setting SaveMinima to 0
 -------------------------------------------------------
 OpenMP Integral computing Module                
 Release: version 1.0, May 2013, Q-Chem Inc. Pittsburgh 
 -------------------------------------------------------
 -------------------------------------------------------
 OpenMP BLAS3 based DFT computing Module                
 Release: version 1.0, May 2013, Q-Chem Inc. Pittsburgh 
 -------------------------------------------------------
 ---------------------------------------
  Cycle       Energy         DIIS Error
 ---------------------------------------
    1    -717.9563007625      2.99E-04
    2    -717.9543669149      3.84E-05
    3    -717.9543640334      6.42E-05
    4    -717.9543692249      1.12E-05
    5    -717.9543692912      8.40E-06
    6    -717.9543693676      1.44E-06
    7    -717.9543693701      4.52E-07
    8    -717.9543693703      1.57E-07
    9    -717.9543693704      7.37E-08
   10    -717.9543693704      3.36E-08
   11    -717.9543693704      7.52E-09 Convergence criterion met
 ---------------------------------------
 SCF time:  CPU 39.44 s  wall 1.66 s
 SCF   energy in the final basis set = -717.9543693704
 Total energy in the final basis set = -717.9543693704
 
 --------------------------------------------------------------
 
                    Orbital Energies (a.u.)
 --------------------------------------------------------------
 
 Alpha MOs
 -- Occupied --
-18.938 -18.928 -18.875 -18.871 -10.104 -10.100 -10.066 -10.058
-10.028 -10.028 -10.025 -10.020 -10.016 -10.016 -10.014  -1.013
 -1.003  -0.937  -0.929  -0.816  -0.735  -0.720  -0.672  -0.656
 -0.645  -0.587  -0.562  -0.507  -0.494  -0.456  -0.438  -0.425
 -0.414  -0.413  -0.404  -0.387  -0.379  -0.372  -0.367  -0.358
 -0.348  -0.342  -0.331  -0.312  -0.309  -0.296  -0.286  -0.259
 -0.250  -0.197  -0.192  -0.180  -0.170  -0.155  -0.148
 -- Virtual --
  0.043   0.069   0.117   0.138   0.237   0.249   0.273   0.318
  0.338   0.349   0.368   0.387   0.409   0.421   0.423   0.429
  0.430   0.436   0.437   0.441   0.447   0.454   0.461   0.474
  0.542   0.556   0.563   0.586   0.647   0.657   0.754   0.771
 --------------------------------------------------------------
 
          Ground-State Mulliken Net Atomic Charges

     Atom                 Charge (a.u.)
  ----------------------------------------
      1 C                    -0.016508
      2 C                    -0.015280
      3 C                     0.208470
      4 C                     0.214064
      5 O                    -0.167599
      6 O                    -0.210551
      7 O                    -0.166099
      8 O                    -0.209353
      9 C                    -0.127923
     10 C                    -0.127338
     11 C                    -0.074626
     12 C                    -0.076594
     13 C                    -0.075924
     14 C                     0.011102
     15 H                     0.093795
     16 H                     0.089518
     17 H                     0.081172
     18 H                     0.086319
     19 H                     0.088914
     20 H                     0.091181
     21 H                     0.090978
     22 H                     0.083795
     23 H                     0.093733
     24 C                    -0.224964
     25 H                     0.093574
     26 H                     0.085113
     27 H                     0.081027
  ----------------------------------------
  Sum of atomic charges =     0.000000

 -----------------------------------------------------------------
                    Cartesian Multipole Moments
 -----------------------------------------------------------------
    Charge (ESU x 10^10)
                 0.0000
    Dipole Moment (Debye)
         X       0.5215      Y      -0.7704      Z       0.9953
       Tot       1.3624
    Quadrupole Moments (Debye-Ang)
        XX     -69.1552     XY       1.9578     YY     -74.1158
        XZ      -1.5735     YZ       3.8010     ZZ     -82.9906
    Octopole Moments (Debye-Ang^2)
       XXX      39.3076    XXY       0.0224    XYY       0.8178
       YYY      25.4941    XXZ      -1.1261    XYZ      -1.1660
       YYZ       9.6734    XZZ      10.5240    YZZ       8.7321
       ZZZ     -11.8596
    Hexadecapole Moments (Debye-Ang^3)
      XXXX   -1882.4465   XXXY     -30.8503   XXYY    -616.7355
      XYYY     -28.1952   YYYY   -1511.2686   XXXZ      -9.6323
      XXYZ       6.0428   XYYZ     -10.9039   YYYZ      13.3915
      XXZZ    -385.3041   XYZZ     -11.9290   YYZZ    -316.0797
      XZZZ     -10.2841   YZZZ      -1.6839   ZZZZ    -188.2216
 -----------------------------------------------------------------
 Calculating analytic gradient of the SCF energy
 Gradient of SCF Energy
            1           2           3           4           5           6
    1  -0.0002254   0.0005267  -0.0000512  -0.0013157  -0.0001871  -0.0000589
    2   0.0002303  -0.0005340  -0.0001506   0.0000180  -0.0002810   0.0003383
    3   0.0025897  -0.0029527   0.0003950   0.0017278  -0.0003106  -0.0002483
            7           8           9          10          11          12
    1   0.0010091  -0.0000470   0.0002347   0.0004900   0.0000753  -0.0001438
    2  -0.0002206   0.0001417   0.0004693   0.0000563  -0.0000245  -0.0000394
    3  -0.0005948  -0.0003407   0.0001723   0.0000417  -0.0002951  -0.0000223
           13          14          15          16          17          18
    1   0.0000689   0.0000754  -0.0001038   0.0000012   0.0000052  -0.0000158
    2  -0.0002217   0.0000379   0.0000380   0.0000095   0.0000065   0.0000138
    3  -0.0002000   0.0001942  -0.0000792  -0.0000082   0.0000495   0.0000421
           19          20          21          22          23          24
    1   0.0000476  -0.0000633  -0.0000622  -0.0000306  -0.0000165  -0.0002638
    2   0.0000029  -0.0000017   0.0000170  -0.0000245   0.0000095  -0.0000158
    3  -0.0000782   0.0000040  -0.0000253  -0.0000166  -0.0000247   0.0000369
           25          26          27
    1  -0.0000385   0.0000619   0.0000274
    2  -0.0000729   0.0001100   0.0000875
    3  -0.0000377  -0.0001243   0.0001054
 Max gradient component =       2.953E-03
 RMS gradient           =       5.434E-04
 Gradient time:  CPU 13.34 s  wall 0.56 s
 Geometry Optimization Parameters
   NAtoms,    NIC,     NZ,  NCons,   NDum,   NFix, NCnnct, MaxDiis
       27     173       0       2       0       0       0       0

 Cartesian Hessian Update
 Hessian Updated using BFGS Update


** CONSTRAINED OPTIMIZATION IN DELOCALIZED INTERNAL COORDINATES **
   Searching for a Minimum

   Optimization Cycle:   5

                       Coordinates (Angstroms)
     ATOM                X               Y               Z
      1  C         0.3848139301   -0.9130462383    0.0352178107
      2  C        -0.8586556801   -0.2306454595   -0.0558255477
      3  C         1.6820491499   -0.1166020130   -0.1576371325
      4  C        -0.8865655799    1.3097423337   -0.2017142833
      5  O         2.8071008867   -0.9138719151    0.2301333260
      6  O         1.7760963565    1.0458630144   -0.6224540677
      7  O        -0.2888513279    1.8889768043    0.9656522454
      8  O        -1.3811602985    1.9712700739   -1.1423814352
      9  C        -0.2361817383    3.3624757346    0.8216812193
     10  C         4.0596225203   -0.1569774436    0.0051899026
     11  C         0.4097716469   -2.3197012606    0.1903219468
     12  C        -0.7963017977   -3.0396901012    0.2568852099
     13  C        -2.0283832161   -2.3630042395    0.1567945147
     14  C        -2.0794182500   -0.9578880057    0.0009295103
     15  H         0.3509835899    3.6578973961   -0.0715169353
     16  H         4.2104194620    0.0710389039   -1.0700457645
     17  H        -2.9676904857   -2.9307434615    0.2050323264
     18  H        -1.2513393893    3.8026127713    0.7404106887
     19  H         0.2593893175    3.7405114731    1.7345536175
     20  H         4.8770888779   -0.8089935817    0.3637874603
     21  H         4.0668190744    0.7968374269    0.5710207191
     22  H        -0.7796640558   -4.1314333558    0.3772927838
     23  H         1.3786938889   -2.8332660428    0.2494514458
     24  C        -3.4331962513   -0.2329004177   -0.1074621742
     25  H        -3.5341463557    0.2468619449   -1.0954053303
     26  H        -3.5169990536    0.5560883191    0.6578626641
     27  H        -4.2621988654   -0.9427317484    0.0270594454
   Point Group: c1    Number of degrees of freedom:    75


   Energy is   -717.954369370

              Constraints and their Current Values
                                        Value     Constraint
   Dihedral:        2   1   3   5      168.600      168.600
   Dihedral:        1   2   4   7      -62.300      -62.300
 Hessian Updated using BFGS Update

 64 Hessian modes will be used to form the next step
  Hessian Eigenvalues:
     0.027752    0.044143    0.045000    0.045000    0.045001    0.045002
     0.045005    0.045008    0.045027    0.045439    0.045631    0.048322
     0.093434    0.094212    0.113889    0.114057    0.116947    0.116994
     0.158192    0.159894    0.159988    0.159996    0.161130    0.162050
     0.163646    0.220855    0.233925    0.234429    0.247023    0.249235
     0.249593    0.249909    0.249990    0.250000    0.250336    0.257948
     0.313284    0.319714    0.338018    0.342443    0.342651    0.342724
     0.342881    0.343439    0.343839    0.344069    0.344479    0.348369
     0.349237    0.350455    0.351426    0.369236    0.401483    0.409839
     0.413884    0.435893    0.451014    0.460435    0.464290    0.464724
     0.512239    0.541779    0.959655    0.972329

 Minimum Search - Taking Simple RFO Step
 Searching for Lamda that Minimizes Along All modes
 Value Taken    Lamda =  -0.00001927
 Step Taken.  Stepsize is  0.023673

                             Maximum     Tolerance    Cnvgd?
         Gradient           0.000589      0.000300      NO
         Displacement       0.008777      0.001200      NO
         Energy change     -0.000035      0.000001      NO


 New Cartesian Coordinates Obtained by Inverse Iteration

 Displacement from previous Coordinates is:  0.051170
 Adding empirical dispersion correction 
 ----------------------------------------------------------------
 Doing -D3(op) with
 s6 =   1.00000
 s8 =   0.78311
 a1 =   0.30000
 a2 =   4.25000
 n  =  10.00000
 -D3 energy without 3body term =     -0.0279317057 hartrees
 ----------------------------------------------------------------
             Standard Nuclear Orientation (Angstroms)
    I     Atom           X                Y                Z
 ----------------------------------------------------------------
    1      C       0.3847636240    -0.9108819248     0.0335560087
    2      C      -0.8593548000    -0.2293217552    -0.0563479356
    3      C       1.6818264751    -0.1145838274    -0.1578010502
    4      C      -0.8885239441     1.3102940980    -0.2007137399
    5      O       2.8062539400    -0.9134514036     0.2291421290
    6      O       1.7775544115     1.0479416943    -0.6208518289
    7      O      -0.2902915009     1.8865190249     0.9680652109
    8      O      -1.3842029344     1.9738328964    -1.1388561013
    9      C      -0.2349984278     3.3591376717     0.8235077976
   10      C       4.0582073856    -0.1576140776     0.0013829196
   11      C       0.4102769888    -2.3169594453     0.1940879762
   12      C      -0.7952885970    -3.0374695920     0.2613848599
   13      C      -2.0278025187    -2.3619807012     0.1570528755
   14      C      -2.0795661382    -0.9573436215    -0.0009912509
   15      H       0.3591371886     3.6529777233    -0.0655968984
   16      H       4.2068081233     0.0699960260    -1.0742247168
   17      H      -2.9668038972    -2.9303022619     0.2046394715
   18      H      -1.2488527023     3.8009290814     0.7356125891
   19      H       0.2552546067     3.7366759075     1.7395227866
   20      H       4.8761484334    -0.8103392240     0.3578429374
   21      H       4.0682169645     0.7960068635     0.5674991830
   22      H      -0.7778974260    -4.1287734223     0.3852340644
   23      H       1.3794142006    -2.8297716238     0.2565947389
   24      C      -3.4333932453    -0.2336131842    -0.1114177979
   25      H      -3.5321565570     0.2489210786    -1.0982404591
   26      H      -3.5207171382     0.5528178069     0.6562161804
   27      H      -4.2619161592    -0.9449628956     0.0185342163
 ----------------------------------------------------------------
 Molecular Point Group                 C1    NOp =  1
 Largest Abelian Subgroup              C1    NOp =  1
 Nuclear Repulsion Energy =   989.7179022600 hartrees
 There are       55 alpha and       55 beta electrons
 Applying Cartesian multipole field
    Component          Value
    ---------          -----
     (2,0,0)        1.00000E-11
     (0,2,0)        2.00000E-11
     (0,0,2)       -3.00000E-11
 Nucleus-field energy     =     0.0000000391 hartrees
 Requested basis set is STO-3G
 There are 42 shells and 87 basis functions
 A cutoff of  1.0D-12 yielded    763 shell pairs
 There are      3691 function pairs
 Smallest overlap matrix eigenvalue = 1.82E-01
 Guess MOs from SCF MO coefficient file
 Reading MOs from coefficient file
[...]
 IR Intens:       10.591                  3.185                 10.122
 Raman Active:       YES                    YES                    YES
               X      Y      Z        X      Y      Z        X      Y      Z
 C         -0.004 -0.008  0.001    0.074  0.006 -0.000    0.225  0.011  0.000
 C          0.003  0.002 -0.000   -0.034  0.057 -0.007   -0.310 -0.054 -0.000
 C          0.012 -0.001  0.001   -0.026 -0.002  0.000   -0.036 -0.024  0.007
 C         -0.001 -0.001 -0.000    0.005 -0.018 -0.008    0.030  0.011 -0.019
 O         -0.002 -0.017  0.004    0.002 -0.000  0.000   -0.005  0.002 -0.001
 O         -0.004  0.006 -0.002    0.003 -0.001  0.000    0.005  0.012 -0.004
 O         -0.000  0.001 -0.001   -0.001  0.004  0.002   -0.003  0.003  0.003
 O          0.000  0.000  0.001    0.001 -0.001  0.003   -0.003 -0.008  0.013
 C         -0.001  0.002 -0.005   -0.002  0.006 -0.001   -0.001  0.000  0.001
 C         -0.007 -0.054  0.015    0.006  0.005 -0.001    0.003  0.001  0.000
 C         -0.003  0.002 -0.000   -0.030 -0.064  0.008   -0.237 -0.175  0.020
 C          0.008  0.003 -0.000   -0.028  0.038 -0.005    0.401  0.073 -0.005
 C         -0.000 -0.006  0.001    0.043 -0.010  0.001   -0.210  0.022 -0.005
 C         -0.003  0.002  0.000   -0.030 -0.068  0.012    0.226  0.126 -0.011
 H          0.047 -0.022  0.044    0.030 -0.029  0.020   -0.004 -0.015 -0.010
 H          0.089  0.625  0.259   -0.028 -0.032 -0.017   -0.002 -0.010 -0.005
 H         -0.017  0.017 -0.003   -0.065  0.146 -0.019   -0.072 -0.198  0.023
 H         -0.031 -0.031  0.046   -0.023 -0.045  0.010    0.000  0.010  0.001
 H          0.007  0.027 -0.013    0.019 -0.012  0.003   -0.009 -0.006  0.004
 H         -0.134 -0.165  0.032   -0.014 -0.018  0.002    0.009  0.005 -0.002
 H          0.122  0.421 -0.527   -0.032 -0.019  0.027   -0.003 -0.006  0.008
 H         -0.027  0.001 -0.000    0.091  0.057 -0.005   -0.529 -0.004 -0.004
 H         -0.004  0.004 -0.000    0.102  0.225 -0.026   -0.023  0.337 -0.039
 C         -0.002 -0.002  0.002   -0.032 -0.018  0.013   -0.028 -0.011  0.001
 H         -0.003  0.024  0.011    0.041  0.496  0.187    0.015 -0.065 -0.023
 H          0.020  0.026 -0.027    0.101  0.378 -0.426    0.064 -0.041  0.050
 H          0.019 -0.025 -0.013    0.335 -0.366  0.016   -0.131  0.084 -0.039
 TransDip  -0.079  0.066 -0.013   -0.007  0.047 -0.032   -0.073 -0.071 -0.002

 Mode:                61                     62                     63
 Frequency:      1629.98                1766.56                1787.59
 Force Cnst:      9.0448                21.5786                22.3247
 Red. Mass:       5.7781                11.7358                11.8576
 IR Active:          YES                    YES                    YES
 IR Intens:        9.928                250.042                272.609
 Raman Active:       YES                    YES                    YES
               X      Y      Z        X      Y      Z        X      Y      Z
 C          0.091 -0.259  0.035   -0.008 -0.115  0.019    0.011  0.004 -0.001
 C         -0.080  0.152 -0.018   -0.026  0.040 -0.007   -0.030  0.078 -0.029
 C         -0.018 -0.034  0.012    0.033  0.759 -0.192   -0.010 -0.055  0.014
 C          0.001 -0.020 -0.032    0.029 -0.013  0.048    0.230 -0.383  0.645
 O         -0.003 -0.004  0.001    0.012 -0.051  0.014    0.001  0.004 -0.001
 O          0.008  0.044 -0.012   -0.003 -0.477  0.124    0.001  0.036 -0.012
 O          0.000  0.004  0.004   -0.006 -0.004 -0.006   -0.015  0.008 -0.049
 O          0.005 -0.008  0.020   -0.013  0.010 -0.029   -0.148  0.226 -0.431
 C         -0.001  0.004  0.001    0.001 -0.002 -0.001    0.004 -0.029  0.009
 C         -0.001  0.001 -0.000    0.024  0.023 -0.006   -0.002 -0.002  0.001
 C          0.061  0.281 -0.035   -0.026  0.015 -0.001    0.001 -0.005  0.003
 C          0.059 -0.161  0.021    0.038 -0.003  0.000    0.007 -0.002 -0.000
 C         -0.176  0.308 -0.042   -0.021  0.017 -0.002   -0.013  0.007  0.001
 C          0.059 -0.273  0.036    0.017 -0.015  0.002    0.016 -0.013  0.007
 H          0.001 -0.014 -0.007    0.016 -0.020  0.009   -0.013  0.111  0.090
 H          0.013  0.001  0.001   -0.144  0.027 -0.040    0.011 -0.002  0.004
 H          0.335 -0.400  0.062    0.010 -0.028  0.005    0.017 -0.030  0.004
 H         -0.004 -0.011 -0.008   -0.003 -0.000  0.024    0.040  0.107  0.093
 H          0.003 -0.014  0.008   -0.010  0.013 -0.006   -0.025  0.215 -0.068
 H          0.004  0.005 -0.002   -0.173 -0.171  0.038    0.012  0.012 -0.004
 H          0.009 -0.001 -0.000   -0.145  0.039  0.010    0.010 -0.002 -0.002
 H         -0.025 -0.193  0.027   -0.041 -0.011  0.001   -0.003 -0.004 -0.003
 H         -0.227 -0.338  0.037   -0.052 -0.011  0.002   -0.001 -0.009  0.005
 C         -0.018  0.022 -0.003   -0.003  0.002 -0.000    0.003  0.007 -0.001
 H         -0.046  0.141  0.049    0.002  0.006 -0.000   -0.071 -0.054 -0.004
 H         -0.088  0.101 -0.109    0.008  0.009 -0.003    0.013 -0.020  0.027
 H          0.127 -0.111  0.037    0.012 -0.013 -0.001   -0.029  0.020 -0.046
 TransDip   0.056 -0.082 -0.016   -0.001  0.499 -0.085    0.155 -0.176  0.474

 Mode:                64                     65                     66
 Frequency:      3035.17                3050.15                3050.39
 Force Cnst:      5.6246                 5.6430                 5.6432
 Red. Mass:       1.0363                 1.0295                 1.0294
 IR Active:          YES                    YES                    YES
 IR Intens:       18.044                 30.603                 42.945
 Raman Active:       YES                    YES                    YES
               X      Y      Z        X      Y      Z        X      Y      Z
 C         -0.000  0.000 -0.000    0.000 -0.000  0.000    0.000 -0.000  0.000
 C          0.001  0.000 -0.000   -0.000  0.000 -0.000   -0.000  0.000  0.000
 C          0.000  0.000 -0.000   -0.002  0.002 -0.001   -0.001  0.001 -0.000
 C         -0.000  0.000 -0.000    0.000  0.001  0.001   -0.000 -0.001 -0.002
 O         -0.000 -0.000 -0.000    0.002  0.000 -0.000    0.001  0.000 -0.000
 O         -0.000 -0.000  0.000    0.000 -0.001  0.000   -0.000 -0.000  0.000
 O          0.000 -0.000 -0.000   -0.000 -0.002 -0.000    0.000  0.002  0.001
 O          0.000 -0.000  0.000   -0.000  0.000 -0.000    0.000 -0.000  0.001
 C          0.000 -0.000  0.000    0.002 -0.022  0.008   -0.004  0.035 -0.012
 C         -0.000 -0.000  0.000    0.025  0.027 -0.006    0.016  0.017 -0.004
 C         -0.000 -0.000 -0.000    0.000 -0.000  0.000    0.000 -0.000 -0.000
 C         -0.000  0.000 -0.000    0.000  0.000 -0.000   -0.000  0.000 -0.000
 C          0.001  0.000  0.000    0.000  0.000  0.000    0.000  0.000 -0.000
 C          0.000 -0.000  0.000    0.000  0.000  0.000   -0.000  0.000 -0.000
 H          0.001  0.000 -0.001    0.247  0.099 -0.200   -0.384 -0.154  0.311
 H          0.000  0.001 -0.004   -0.043 -0.179  0.501   -0.028 -0.115  0.323
 H         -0.012 -0.007  0.001   -0.000 -0.000  0.000   -0.001 -0.001  0.000
 H         -0.001  0.000 -0.000   -0.312  0.102 -0.122    0.485 -0.158  0.190
 H          0.000  0.000  0.001    0.036  0.079  0.227   -0.056 -0.123 -0.352
 H          0.002 -0.002  0.001   -0.270  0.246 -0.077   -0.174  0.158 -0.050
 H         -0.000  0.003  0.003   -0.003 -0.400 -0.346   -0.002 -0.258 -0.223
 H         -0.000  0.000  0.000    0.000 -0.001  0.000    0.000 -0.001  0.000
 H          0.001 -0.000  0.000   -0.002  0.000 -0.000   -0.001  0.000 -0.000
 C         -0.041  0.029 -0.000   -0.000  0.000 -0.000   -0.000  0.000  0.000
 H          0.081 -0.193  0.526    0.001 -0.001  0.003    0.000 -0.001  0.002
 H          0.067 -0.500 -0.426    0.000 -0.001 -0.001    0.000 -0.004 -0.003
 H          0.336  0.344 -0.099    0.002  0.002 -0.001    0.000  0.000 -0.000
 TransDip  -0.131  0.034  0.018    0.169 -0.050 -0.021    0.080  0.193  0.019

 Mode:                67                     68                     69
 Frequency:      3090.59                3111.35                3123.22
 Force Cnst:      6.1912                 6.2875                 6.3622
 Red. Mass:       1.1001                 1.1024                 1.1070
 IR Active:          YES                    YES                    YES
 IR Intens:        8.472                 15.317                 17.425
 Raman Active:       YES                    YES                    YES
               X      Y      Z        X      Y      Z        X      Y      Z
 C          0.000 -0.000 -0.000    0.000 -0.000  0.000    0.000 -0.000 -0.000
 C          0.000  0.000  0.000   -0.000 -0.000  0.000    0.000  0.000  0.000
 C         -0.000 -0.000  0.000    0.000 -0.000  0.000   -0.000  0.000  0.000
 C          0.000  0.000 -0.000    0.000 -0.000  0.000   -0.000 -0.000 -0.000
 O          0.000  0.000  0.000   -0.000  0.000 -0.000   -0.000  0.000  0.000
 O         -0.000  0.000 -0.000   -0.000  0.000 -0.000   -0.000  0.000  0.000
 O         -0.000  0.000  0.000   -0.000 -0.000 -0.000    0.000  0.000  0.000
 O          0.000  0.000  0.000   -0.000  0.000 -0.000   -0.000  0.000  0.000
 C         -0.000  0.000 -0.000   -0.000  0.000 -0.000    0.001  0.000 -0.000
 C         -0.000  0.000  0.000   -0.000  0.000 -0.000    0.004 -0.025 -0.092
 C          0.000  0.000 -0.000    0.000  0.000 -0.000   -0.000  0.000  0.000
 C         -0.000 -0.000 -0.000   -0.000 -0.000  0.000    0.000 -0.000  0.000
 C          0.001  0.000 -0.000    0.004  0.003 -0.000   -0.000  0.000 -0.000
 C         -0.000 -0.000 -0.001    0.001 -0.001  0.000   -0.000 -0.000 -0.000
 H         -0.001 -0.000  0.001    0.000  0.000 -0.001   -0.005 -0.002  0.004
 H          0.000  0.000 -0.000   -0.000 -0.000  0.000   -0.050 -0.251  0.651
 H         -0.006 -0.003  0.000   -0.043 -0.028  0.003    0.000  0.000 -0.000
 H          0.002 -0.001  0.001    0.004 -0.001  0.002   -0.007  0.002 -0.003
 H         -0.000 -0.000 -0.001    0.000  0.000  0.001   -0.000 -0.001 -0.001
 H          0.000 -0.000  0.000    0.000 -0.000  0.000   -0.002 -0.003 -0.019
 H          0.000 -0.000 -0.000   -0.000 -0.000 -0.000   -0.000  0.547  0.450
 H         -0.000  0.001 -0.000   -0.001  0.008 -0.001   -0.000  0.000 -0.000
 H          0.000 -0.000 -0.000   -0.000  0.000 -0.000    0.000 -0.000 -0.000
 C         -0.010 -0.030 -0.086   -0.042 -0.076  0.032   -0.000 -0.000 -0.000
 H          0.108 -0.263  0.643   -0.075  0.135 -0.394    0.000 -0.000  0.000
 H         -0.079  0.535  0.433   -0.037  0.192  0.184   -0.000  0.000  0.000
 H          0.090  0.085 -0.044    0.597  0.593 -0.172    0.000  0.000 -0.000
 TransDip  -0.011 -0.053 -0.076   -0.086 -0.089  0.023    0.006 -0.036 -0.129

 Mode:                70                     71                     72
 Frequency:      3126.16                3156.26                3156.81
 Force Cnst:      6.3755                 6.4929                 6.4960
 Red. Mass:       1.1072                 1.1062                 1.1064
 IR Active:          YES                    YES                    YES
 IR Intens:       13.564                 14.206                 13.938
 Raman Active:       YES                    YES                    YES
               X      Y      Z        X      Y      Z        X      Y      Z
 C          0.000  0.000 -0.000    0.000 -0.000  0.000    0.000 -0.000 -0.000
 C         -0.000 -0.000  0.000   -0.000  0.000  0.000    0.000  0.000  0.000
 C         -0.000 -0.000  0.000    0.001  0.001 -0.000   -0.000  0.000 -0.000
 C          0.000  0.000 -0.000    0.000 -0.000  0.000   -0.000  0.001 -0.001
 O         -0.000  0.000 -0.000    0.000 -0.000  0.000    0.000 -0.000  0.000
 O          0.000  0.000 -0.000   -0.000 -0.000  0.000    0.000 -0.000  0.000
 O          0.000  0.000  0.000   -0.000  0.000 -0.000    0.000  0.000  0.000
 O          0.000 -0.000 -0.000   -0.000  0.000 -0.000    0.000 -0.000  0.000
 C         -0.094 -0.002  0.011    0.000  0.000  0.002   -0.011 -0.009 -0.094
 C         -0.000 -0.000 -0.001   -0.052  0.076 -0.023   -0.001  0.002 -0.001
 C         -0.000 -0.000 -0.000   -0.000  0.000 -0.000    0.000 -0.000 -0.000
 C          0.000  0.000 -0.000    0.000 -0.000  0.000    0.000  0.000 -0.000
 C         -0.000 -0.000 -0.000    0.000  0.000 -0.000   -0.000 -0.000  0.000
 C          0.000 -0.000 -0.000    0.000 -0.000  0.000   -0.000 -0.000 -0.000
 H          0.510  0.212 -0.438    0.005  0.002 -0.004   -0.260 -0.102  0.193
 H         -0.001 -0.003  0.008   -0.032 -0.091  0.294   -0.001 -0.002  0.007
 H          0.000  0.000 -0.000   -0.002 -0.001  0.000    0.003  0.002 -0.000
 H          0.618 -0.205  0.258   -0.007  0.002 -0.002    0.254 -0.082  0.082
 H         -0.011  0.016  0.049   -0.003 -0.006 -0.018    0.131  0.290  0.835
 H          0.001 -0.001  0.000    0.648 -0.591  0.186    0.014 -0.013  0.004
 H          0.000  0.006  0.005   -0.009 -0.219 -0.207   -0.000 -0.004 -0.004
 H          0.000 -0.000  0.000   -0.000  0.004 -0.001    0.000 -0.001  0.000
 H          0.000 -0.000 -0.000    0.004 -0.002  0.000   -0.000  0.000 -0.000
 C          0.000  0.000 -0.000    0.000  0.000 -0.000    0.000  0.000 -0.000
 H          0.000 -0.000  0.001    0.000 -0.000  0.000    0.000 -0.000  0.001
 H          0.000 -0.001 -0.001    0.000 -0.000 -0.000    0.000 -0.000 -0.000
 H         -0.002 -0.002  0.001   -0.000 -0.000  0.000   -0.001 -0.001  0.000
 TransDip  -0.117  0.006  0.012   -0.089  0.078 -0.022   -0.019 -0.037 -0.112

 Mode:                73                     74                     75
 Frequency:      3164.95                3184.56                3220.94
 Force Cnst:      6.4212                 6.5336                 6.6799
 Red. Mass:       1.0880                 1.0935                 1.0928
 IR Active:          YES                    YES                    YES
 IR Intens:        7.139                 15.389                  2.049
 Raman Active:       YES                    YES                    YES
               X      Y      Z        X      Y      Z        X      Y      Z
 C          0.000 -0.000 -0.000   -0.000  0.000  0.000   -0.000 -0.003  0.000
 C          0.000  0.000  0.000    0.000  0.000 -0.000    0.001 -0.000  0.000
 C         -0.000 -0.000  0.000    0.000  0.000 -0.000   -0.001  0.001 -0.000
 C         -0.000  0.000 -0.000   -0.000  0.000 -0.000   -0.000 -0.000  0.000
 O          0.000  0.000  0.000   -0.000 -0.000  0.000   -0.000 -0.001  0.000
 O         -0.000  0.000  0.000   -0.000 -0.000  0.000    0.000  0.000 -0.000
 O          0.000 -0.000 -0.000    0.000 -0.000 -0.000   -0.000  0.000  0.000
 O          0.000 -0.000  0.000    0.000 -0.000  0.000   -0.000  0.000 -0.000
 C          0.000  0.000  0.000    0.000  0.000  0.000    0.000 -0.000 -0.000
 C         -0.000  0.000 -0.000    0.000 -0.000  0.000    0.000 -0.000  0.000
 C          0.004 -0.003  0.000   -0.012  0.008 -0.001   -0.078  0.035 -0.005
 C         -0.001  0.039 -0.005    0.008 -0.075  0.009    0.001  0.019 -0.002
 C         -0.061 -0.045  0.005   -0.036 -0.022  0.002    0.003  0.001 -0.000
 C         -0.001  0.002 -0.000   -0.001  0.002 -0.000    0.000 -0.000  0.000
 H          0.001  0.000 -0.000   -0.000 -0.000  0.000   -0.000 -0.000  0.000
 H         -0.000 -0.000  0.001   -0.000 -0.000 -0.000   -0.000  0.000 -0.000
 H          0.715  0.506 -0.056    0.381  0.265 -0.029   -0.025 -0.016  0.002
 H         -0.001  0.000 -0.000    0.000 -0.000  0.000   -0.000  0.000 -0.000
 H         -0.000 -0.001 -0.003   -0.000 -0.000 -0.001    0.000  0.000  0.000
 H          0.003 -0.002  0.001   -0.003  0.003 -0.001   -0.003  0.003 -0.001
 H         -0.000 -0.001 -0.001   -0.000 -0.000  0.000   -0.000 -0.000  0.000
 H          0.038 -0.459  0.058   -0.078  0.850 -0.107    0.013 -0.191  0.024
 H         -0.060  0.027 -0.004    0.169 -0.079  0.011    0.891 -0.397  0.053
 C         -0.003 -0.003  0.001   -0.001 -0.001  0.000    0.000 -0.000  0.000
 H         -0.001  0.003 -0.009    0.000  0.001 -0.002   -0.000  0.000 -0.001
 H         -0.000  0.007  0.006    0.001  0.001  0.001    0.000  0.001  0.000
 H          0.036  0.032 -0.010    0.014  0.012 -0.004   -0.000 -0.000  0.000
 TransDip  -0.085 -0.011 -0.000   -0.039 -0.119  0.015   -0.004  0.046 -0.004

 STANDARD THERMODYNAMIC QUANTITIES AT   298.15 K  AND     1.00 ATM

   This Molecule has  0 Imaginary Frequencies
   Zero point vibrational energy:      133.296 kcal/mol

   Atom    1 Element C  Has Mass   12.00000
   Atom    2 Element C  Has Mass   12.00000
   Atom    3 Element C  Has Mass   12.00000
   Atom    4 Element C  Has Mass   12.00000
   Atom    5 Element O  Has Mass   15.99491
   Atom    6 Element O  Has Mass   15.99491
   Atom    7 Element O  Has Mass   15.99491
   Atom    8 Element O  Has Mass   15.99491
   Atom    9 Element C  Has Mass   12.00000
   Atom   10 Element C  Has Mass   12.00000
   Atom   11 Element C  Has Mass   12.00000
   Atom   12 Element C  Has Mass   12.00000
   Atom   13 Element C  Has Mass   12.00000
   Atom   14 Element C  Has Mass   12.00000
   Atom   15 Element H  Has Mass    1.00783
   Atom   16 Element H  Has Mass    1.00783
   Atom   17 Element H  Has Mass    1.00783
   Atom   18 Element H  Has Mass    1.00783
   Atom   19 Element H  Has Mass    1.00783
   Atom   20 Element H  Has Mass    1.00783
   Atom   21 Element H  Has Mass    1.00783
   Atom   22 Element H  Has Mass    1.00783
   Atom   23 Element H  Has Mass    1.00783
   Atom   24 Element C  Has Mass   12.00000
   Atom   25 Element H  Has Mass    1.00783
   Atom   26 Element H  Has Mass    1.00783
   Atom   27 Element H  Has Mass    1.00783
   Molecular Mass:   208.073600 amu
   Principal axes and moments of inertia in amu*Bohr^2:
                             1           2           3
    Eigenvalues --     2454.22417  3113.45281  5139.20587
          X               0.99986     0.01650    -0.00187
          Y              -0.01648     0.99982     0.00977
          Z               0.00203    -0.00973     0.99995
   Rotational Symmetry Number is   1
   The Molecule is an Asymmetric Top
   Translational Enthalpy:        0.889 kcal/mol
   Rotational Enthalpy:           0.889 kcal/mol
   Vibrational Enthalpy:        141.066 kcal/mol
   gas constant (RT):             0.592 kcal/mol
   Translational Entropy:        41.902  cal/mol.K
   Rotational Entropy:           32.040  cal/mol.K
   Vibrational Entropy:          51.833  cal/mol.K

   Total Enthalpy:              143.436 kcal/mol
   Total Entropy:               125.775  cal/mol.K
Archival summary:
1\1\nid02602\FREQ\ProcedureUnspecified\BasisUnspecified\41112\junteng\WedOct420:07:112017WedOct420:07:112017\0\\#,FREQ,ProcedureUnspecified,BasisUnspecified,\\0,1\O\C,1,1.34345\O,2,1.20535,1,124.671\C,1,1.4401,2,115.654,3,-9.66702,0\H,4,1.08769,1,105.423,2,179.269,0\H,4,1.09083,1,110.677,2,59.4109,0\H,4,1.09092,1,109.475,2,-61.5787,0\C,2,1.50485,1,111.047,3,-175.591,0\C,8,1.40507,2,117.784,1,102.932,0\C,9,1.39746,8,118.446,2,179.82,0\H,10,1.08504,9,118.944,8,179.543,0\C,10,1.39213,9,121.405,8,-0.508467,0\H,12,1.08399,10,120.029,9,-179.816,0\C,12,1.38823,10,119.881,9,0.0204629,0\H,14,1.0809,12,120.671,10,-179.493,0\C,14,1.4002,12,120.073,10,0.265761,0\C,16,1.49124,14,120.5,12,-178.147,0\O,17,1.20993,16,124.892,14,170.882,0\O,17,1.35004,16,112.211,14,-8.48974,0\C,19,1.43817,17,115.977,16,178.61,0\H,20,1.08775,19,105.333,17,-179.41,0\H,20,1.09091,19,110.44,17,61.1006,0\H,20,1.091,19,110.453,17,-59.8666,0\C,9,1.51014,8,121.321,2,0.0904723,0\H,24,1.0912,9,110.733,8,-172.209,0\H,24,1.09301,9,110.893,8,67.4298,0\H,24,1.09358,9,111.53,8,-51.9022,0\\\@

 Total job time:  5836.22s(wall), 31232.22s(cpu) 
 Wed Oct  4 20:07:11 2017

        *************************************************************
        *                                                           *
        *  Thank you very much for using Q-Chem.  Have a nice day.  *
        *                                                           *
        *************************************************************


