mFile = /opt/software/qchem/qchem-5.0.1//bin/mpi/machines
Process 0 of 1 is on vega03.cac.cornell.edu - thread support 0
initial socket setup ...start
initial socket setup ...done 
now start server 0 ... 
vega03 10.84.3
Q-Chem Developer Version! Running on 10.84.3.*
                  Welcome to Q-Chem
     A Quantum Leap Into The Future Of Chemistry


 Q-Chem 5.0, Q-Chem, Inc., Pleasanton, CA (2017)

 Yihan Shao,  Zhengting Gan,  E. Epifanovsky,  A. T. B. Gilbert,  M. Wormit,  
 J. Kussmann,  A. W. Lange,  A. Behn,  Jia Deng,  Xintian Feng,  D. Ghosh,  
 M. Goldey,  P. R. Horn,  L. D. Jacobson,  I. Kaliman,  T. Kus,  A. Landau,  
 Jie Liu,  E. I. Proynov,  R. M. Richard,  R. P. Steele,  E. J. Sundstrom,  
 H. L. Woodcock III,  P. M. Zimmerman,  D. Zuev,  B. Albrecht,  E. Alguire,  
 S. A. Baeppler,  Z. Benda,  Y. A. Bernard,  E. J. Berquist,  K. B. Bravaya,  
 D. Casanova,  Chun-Min Chang,  Yunqing Chen,  A. Chien,  K. D. Closser,  
 M. P. Coons,  S. Dasgupta,  M. Diedenhofen,  Hainam Do,  R. G. Edgar,  
 Po-Tung Fang,  S. Fatehi,  Qingguo Feng,  Qinghui Ge,  A. Ghysels,  
 J. Gomes,  J. Gonthier,  A. Gunina,  M. W. D. Hanson-Heine,  
 P. H. P. Harbach,  A. W. Hauser,  J. E. Herr,  E. G. Hohenstein,  
 Z. C. Holden,  Kerwin Hui,  T.-C. Jagau,  Hyunjun Ji,  B. Kaduk,  
 K. Khistyaev,  Jaehoon Kim,  P. Klunzinger,  K. Koh,  D. Kosenkov,  
 T. Kowalczyk,  C. M. Krauter,  A. Kunitsa,  Ka Un Lao,  A. Laurent,  
 K. V. Lawler,  Joonho Lee,  D. Lefrancois,  S. Lehtola,  D. S. Levine,  
 Yi-Pei Li,  You-Sheng Lin,  Fenglai Liu,  E. Livshits,  A. Luenser,  
 P. Manohar,  E. Mansoor,  S. F. Manzer,  Shan-Ping Mao,  Yuezhi Mao,  
 N. Mardirossian,  A. V. Marenich,  L. A. Martinez-Martinez,  S. A. Maurer,  
 N. J. Mayhall,  S. C. McKenzie,  J.-M. Mewes,  A. F. Morrison,  K. Nanda,  
 T. S. Nguyen-Beck,  R. Olivares-Amaya,  J. A. Parkhill,  T. M. Perrine,  
 F. Plasser,  S. Prager,  A. Prociuk,  D. R. Rehn,  F. Rob,  M. Schneider,  
 N. Sergueev,  S. M. Sharada,  S. Sharma,  D. W. Small,  T. Stauch,  
 T. Stein,  Yu-Chuan Su,  A. J. W. Thom,  T. Tsuchimochi,  L. Vogt,  
 O. Vydrov,  M. A. Watson,  J. Wenzel,  M. de Wergifosse,  T. A. Wesolowski,  
 A. White,  J. Witte,  A. Yamada,  Jun Yang,  K. Yao,  S. Yeganeh,  
 S. R. Yost,  Zhi-Qiang You,  A. Zech,  Igor Ying Zhang,  Xing Zhang,  
 Yan Zhao,  Ying Zhu,  B. R. Brooks,  G. K. L. Chan,  C. J. Cramer,  
 M. S. Gordon,  W. J. Hehre,  A. Klamt,  M. W. Schmidt,  C. D. Sherrill,  
 D. G. Truhlar,  A. Aspuru-Guzik,  R. Baer,  A. T. Bell,  N. A. Besley,  
 Jeng-Da Chai,  A. Dreuw,  B. D. Dunietz,  T. R. Furlani,  Chao-Ping Hsu,  
 Yousung Jung,  Jing Kong,  D. S. Lambrecht,  WanZhen Liang,  C. Ochsenfeld,  
 V. A. Rassolov,  L. V. Slipchenko,  J. E. Subotnik,  T. Van Voorhis,  
 J. M. Herbert,  A. I. Krylov,  P. M. W. Gill,  M. Head-Gordon

 Contributors to earlier versions of Q-Chem not listed above: 
 R. D. Adamson,  B. Austin,  J. Baker,  G. J. O. Beran,  K. Brandhorst,  
 S. T. Brown,  E. F. C. Byrd,  A. K. Chakraborty,  C.-L. Cheng,  
 Siu Hung Chien,  D. M. Chipman,  D. L. Crittenden,  H. Dachsel,  
 R. A. DiStasio Jr.,  R. J. Doerksen,  A. D. Dutoi,  L. Fusti-Molnar,  
 W. A. Goddard III,  A. Golubeva-Zadorozhnaya,  S. R. Gwaltney,  G. Hawkins,  
 A. Heyden,  S. Hirata,  G. Kedziora,  F. J. Keil,  C. Kelley,  Jihan Kim,  
 R. A. King,  R. Z. Khaliullin,  P. P. Korambath,  W. Kurlancheek,  
 A. M. Lee,  M. S. Lee,  S. V. Levchenko,  Ching Yeh Lin,  D. Liotard,  
 R. C. Lochan,  I. Lotan,  P. E. Maslen,  N. Nair,  D. P. O'Neill,  
 D. Neuhauser,  E. Neuscamman,  C. M. Oana,  R. Olson,  B. Peters,  
 R. Peverati,  P. A. Pieniazek,  Y. M. Rhee,  J. Ritchie,  M. A. Rohrdanz,  
 E. Rosta,  N. J. Russ,  H. F. Schaefer III,  N. E. Schultz,  N. Shenvi,  
 A. C. Simmonett,  A. Sodt,  D. Stuck,  K. S. Thanthiriwatte,  V. Vanovschi,  
 Tao Wang,  A. Warshel,  C. F. Williams,  Q. Wu,  X. Xu,  W. Zhang

 Please cite Q-Chem as follows:
 Y. Shao et al., Mol. Phys. 113, 184-215 (2015)
 DOI: 10.1080/00268976.2014.952696

 Q-Chem 5.0.1 for Intel X86 EM64T Linux

 Parts of Q-Chem use Armadillo 5.200.1 (Boston Tea Smuggler).
 http://arma.sourceforge.net/

 Q-Chem begins on Tue Apr 17 00:03:27 2018  

Host: vega03.cac.cornell.edu
0

     Scratch files written to /scratch/jj585/vdw/0110_distance_4.700_01.save//
 Parallel job on  1  processors

Checking the input file for inconsistencies... 	...done.

--------------------------------------------------------------
User input:
--------------------------------------------------------------
$molecule
0  1
C        +3.75039000        +2.93042000        +3.05378000
C        +4.15395000        +1.47201000        +3.46654000
C        +4.85777000        +3.28528000        +2.03292000
C        +6.15839000        +3.60254000        +2.79638000
C        +6.57105000        +2.17905000        +3.27083000
C        +5.47192000        +1.29255000        +2.62045000
O        +5.15609000        +2.02217000        +1.42407000
H        +6.90003000        +4.02336000        +2.11588000
H        +6.01005000        +4.31042000        +3.61434000
H        +7.54951000        +1.89548000        +2.87944000
H        +6.60128000        +2.07292000        +4.35711000
C        +4.42797000        +4.27631000        +0.97353000
C        +5.88219000        -0.12713000        +2.29971000
H        +6.79080000        -0.12124000        +1.69417000
H        +6.07759000        -0.68505000        +3.21862000
H        +5.10104000        -0.64342000        +1.73911000
H        +5.24614000        +4.46740000        +0.31097000
H        +4.12688000        +5.19032000        +1.44133000
H        +3.60694000        +3.87207000        +0.41909000
H        +4.34462000        +1.39649000        +4.51670000
H        +3.40245000        +0.73198000        +3.28626000
H        +2.78096000        +2.95365000        +2.60148000
H        +3.68321000        +3.61171000        +3.87611000
@C        +0.22270000        +1.04488000        +0.58595000
@C        +0.62626000        -0.41353000        +0.99871000
@C        +1.33008000        +1.39974000        -0.43491000
@C        +2.63070000        +1.71700000        +0.32855000
@C        +3.04336000        +0.29351000        +0.80300000
@C        +1.94423000        -0.59299000        +0.15262000
@O        +1.62840000        +0.13663000        -1.04376000
@H        +3.37234000        +2.13782000        -0.35195000
@H        +2.48236000        +2.42488000        +1.14651000
@H        +4.02182000        +0.00994000        +0.41161000
@H        +3.07359000        +0.18738000        +1.88928000
@C        +0.90028000        +2.39077000        -1.49430000
@C        +2.35450000        -2.01267000        -0.16812000
@H        +3.26311000        -2.00678000        -0.77366000
@H        +2.54990000        -2.57059000        +0.75079000
@H        +1.57335000        -2.52896000        -0.72872000
@H        +1.71845000        +2.58186000        -2.15686000
@H        +0.59919000        +3.30478000        -1.02650000
@H        +0.07925000        +1.98653000        -2.04874000
@H        +0.81693000        -0.48905000        +2.04887000
@H        -0.12524000        -1.15356000        +0.81843000
@H        -0.74673000        +1.06811000        +0.13365000
@H        +0.15552000        +1.72617000        +1.40828000
$end

$rem
JOBTYPE                   SP
METHOD                    B3LYP
DFT_D                     d3_op
BASIS                     6-311++G(d,p)
SYMMETRY                  False
THRESH                    12
SCF_CONVERGENCE           8
MAX_SUB_FILE_NUM          128
MEM_STATIC                400
MEM_TOTAL                 4000
$end
--------------------------------------------------------------
 Adding empirical dispersion correction 
 ----------------------------------------------------------------
 Doing -D3(op) with
 s6 =   1.00000
 s8 =   0.78311
 a1 =   0.30000
 a2 =   4.25000
 n  =  10.00000
 -D3 energy without 3body term =     -0.0216033054 hartrees
 ----------------------------------------------------------------
             Standard Nuclear Orientation (Angstroms)
    I     Atom           X                Y                Z
 ----------------------------------------------------------------
    1      C       3.7503900000     2.9304200000     3.0537800000
    2      C       4.1539500000     1.4720100000     3.4665400000
    3      C       4.8577700000     3.2852800000     2.0329200000
    4      C       6.1583900000     3.6025400000     2.7963800000
    5      C       6.5710500000     2.1790500000     3.2708300000
    6      C       5.4719200000     1.2925500000     2.6204500000
    7      O       5.1560900000     2.0221700000     1.4240700000
    8      H       6.9000300000     4.0233600000     2.1158800000
    9      H       6.0100500000     4.3104200000     3.6143400000
   10      H       7.5495100000     1.8954800000     2.8794400000
   11      H       6.6012800000     2.0729200000     4.3571100000
   12      C       4.4279700000     4.2763100000     0.9735300000
   13      C       5.8821900000    -0.1271300000     2.2997100000
   14      H       6.7908000000    -0.1212400000     1.6941700000
   15      H       6.0775900000    -0.6850500000     3.2186200000
   16      H       5.1010400000    -0.6434200000     1.7391100000
   17      H       5.2461400000     4.4674000000     0.3109700000
   18      H       4.1268800000     5.1903200000     1.4413300000
   19      H       3.6069400000     3.8720700000     0.4190900000
   20      H       4.3446200000     1.3964900000     4.5167000000
   21      H       3.4024500000     0.7319800000     3.2862600000
   22      H       2.7809600000     2.9536500000     2.6014800000
   23      H       3.6832100000     3.6117100000     3.8761100000
   24      GH      0.2227000000     1.0448800000     0.5859500000
   25      GH      0.6262600000    -0.4135300000     0.9987100000
   26      GH      1.3300800000     1.3997400000    -0.4349100000
   27      GH      2.6307000000     1.7170000000     0.3285500000
   28      GH      3.0433600000     0.2935100000     0.8030000000
   29      GH      1.9442300000    -0.5929900000     0.1526200000
   30      GH      1.6284000000     0.1366300000    -1.0437600000
   31      GH      3.3723400000     2.1378200000    -0.3519500000
   32      GH      2.4823600000     2.4248800000     1.1465100000
   33      GH      4.0218200000     0.0099400000     0.4116100000
   34      GH      3.0735900000     0.1873800000     1.8892800000
   35      GH      0.9002800000     2.3907700000    -1.4943000000
   36      GH      2.3545000000    -2.0126700000    -0.1681200000
   37      GH      3.2631100000    -2.0067800000    -0.7736600000
   38      GH      2.5499000000    -2.5705900000     0.7507900000
   39      GH      1.5733500000    -2.5289600000    -0.7287200000
   40      GH      1.7184500000     2.5818600000    -2.1568600000
   41      GH      0.5991900000     3.3047800000    -1.0265000000
   42      GH      0.0792500000     1.9865300000    -2.0487400000
   43      GH      0.8169300000    -0.4890500000     2.0488700000
   44      GH     -0.1252400000    -1.1535600000     0.8184300000
   45      GH     -0.7467300000     1.0681100000     0.1336500000
   46      GH      0.1555200000     1.7261700000     1.4082800000
 ----------------------------------------------------------------
 Nuclear Repulsion Energy =   506.2703564319 hartrees
 There are       35 alpha and       35 beta electrons
 Requested basis set is 6-311++G(d,p)
 There are 248 shells and 592 basis functions

 Total QAlloc Memory Limit   4000 MB
 Mega-Array Size       392 MB
 MEM_STATIC part       400 MB
 A cutoff of  1.0D-12 yielded  25618 shell pairs
 There are    144768 function pairs (    153132 Cartesian)
 
 -------------------------------------------------------
 OpenMP Integral Computing Module                       
 Release: version 1.0, May 2013, Q-Chem Inc. Pittsburgh 
 -------------------------------------------------------
 Integral Job Info:
 Integral job number is                      11
 Integral operator is                         1
 short-range coefficients                     0
 long-range coefficients              100000000
 Omega coefficients                           0
 if combine SR and LR in K                    0
 Integral screening is                        0
 Integral computing path is                   2
 max size of driver memory is            800000
 size of driver memory is                593474
 size of scratch memory is              2361544
 max col of scratch BK array               1296
 max len of scratch array in speh3          155
 max len of scratch index in speh4           18
 max int batch size is                      520
 min int batch size is                       52
 fixed nKL is                                52
 max L of basis functions is                  2
 order of int derivative is                   0
 number of shells is                        248
 number of basis is                         610
 number of cartesian basis is               610
 number of contracted shell pairs         25618
 number of primitive shell pairs          53291
 maxK2 (contraction) of shell pair           36
 max number of K2 of shell pair               1
 max number of CS2 of shell pair           4662
 max number of PS2 of shell pair           8016
 mem total for path MDJ                  198666
 -------------------------------------------------------
 Smallest overlap matrix eigenvalue = 2.58E-07
 Linear dependence detected in AO basis
 Number of orthogonalized atomic orbitals = 590
 Maximum deviation from orthogonality = 1.879E-10

 Scale SEOQF with 1.000000e-02/1.000000e-02/1.000000e-01

 Standard Electronic Orientation quadrupole field applied
 Nucleus-field energy     =    -0.0000000403 hartrees
 Guess from superposition of atomic densities
 Warning:  Energy on first SCF cycle will be non-variational

 Q-Chem warning in module /opt/software/qchem/qchem-5.0.1/libgen/Atomic_PolEc.C, line 58:

 No atomic polarizability available.


 Q-Chem warning in module /opt/software/qchem/qchem-5.0.1/libgen/Atomic_PolEc.C, line 73:

 No atomic polarizability available.


 Q-Chem warning in module /opt/software/qchem/qchem-5.0.1/libgen/Atomic_PolEc.C, line 58:

 No atomic polarizability available.


 Q-Chem warning in module /opt/software/qchem/qchem-5.0.1/libgen/Atomic_PolEc.C, line 73:

 No atomic polarizability available.


 Q-Chem warning in module /opt/software/qchem/qchem-5.0.1/libgen/Atomic_PolEc.C, line 58:

 No atomic polarizability available.


 Q-Chem warning in module /opt/software/qchem/qchem-5.0.1/libgen/Atomic_PolEc.C, line 73:

 No atomic polarizability available.


 Q-Chem warning in module /opt/software/qchem/qchem-5.0.1/libgen/Atomic_PolEc.C, line 58:

 No atomic polarizability available.


 Q-Chem warning in module /opt/software/qchem/qchem-5.0.1/libgen/Atomic_PolEc.C, line 73:

 No atomic polarizability available.


 Q-Chem warning in module /opt/software/qchem/qchem-5.0.1/libgen/Atomic_PolEc.C, line 58:

 No atomic polarizability available.


 Q-Chem warning in module /opt/software/qchem/qchem-5.0.1/libgen/Atomic_PolEc.C, line 73:

 No atomic polarizability available.


 Q-Chem warning in module /opt/software/qchem/qchem-5.0.1/libgen/Atomic_PolEc.C, line 58:

 No atomic polarizability available.


 Q-Chem warning in module /opt/software/qchem/qchem-5.0.1/libgen/Atomic_PolEc.C, line 73:

 No atomic polarizability available.


 Q-Chem warning in module /opt/software/qchem/qchem-5.0.1/libgen/Atomic_PolEc.C, line 58:

 No atomic polarizability available.


 Q-Chem warning in module /opt/software/qchem/qchem-5.0.1/libgen/Atomic_PolEc.C, line 73:

 No atomic polarizability available.


 Q-Chem warning in module /opt/software/qchem/qchem-5.0.1/libgen/Atomic_PolEc.C, line 58:

 No atomic polarizability available.


 Q-Chem warning in module /opt/software/qchem/qchem-5.0.1/libgen/Atomic_PolEc.C, line 73:

 No atomic polarizability available.


 Q-Chem warning in module /opt/software/qchem/qchem-5.0.1/libgen/Atomic_PolEc.C, line 58:

 No atomic polarizability available.


 Q-Chem warning in module /opt/software/qchem/qchem-5.0.1/libgen/Atomic_PolEc.C, line 73:

 No atomic polarizability available.


 Q-Chem warning in module /opt/software/qchem/qchem-5.0.1/libgen/Atomic_PolEc.C, line 58:

 No atomic polarizability available.


 Q-Chem warning in module /opt/software/qchem/qchem-5.0.1/libgen/Atomic_PolEc.C, line 73:

 No atomic polarizability available.


 Q-Chem warning in module /opt/software/qchem/qchem-5.0.1/libgen/Atomic_PolEc.C, line 58:

 No atomic polarizability available.


 Q-Chem warning in module /opt/software/qchem/qchem-5.0.1/libgen/Atomic_PolEc.C, line 73:

 No atomic polarizability available.


 Q-Chem warning in module /opt/software/qchem/qchem-5.0.1/libgen/Atomic_PolEc.C, line 58:

 No atomic polarizability available.


 Q-Chem warning in module /opt/software/qchem/qchem-5.0.1/libgen/Atomic_PolEc.C, line 73:

 No atomic polarizability available.


 Q-Chem warning in module /opt/software/qchem/qchem-5.0.1/libgen/Atomic_PolEc.C, line 58:

 No atomic polarizability available.


 Q-Chem warning in module /opt/software/qchem/qchem-5.0.1/libgen/Atomic_PolEc.C, line 73:

 No atomic polarizability available.


 Q-Chem warning in module /opt/software/qchem/qchem-5.0.1/libgen/Atomic_PolEc.C, line 58:

 No atomic polarizability available.


 Q-Chem warning in module /opt/software/qchem/qchem-5.0.1/libgen/Atomic_PolEc.C, line 73:

 No atomic polarizability available.


 Q-Chem warning in module /opt/software/qchem/qchem-5.0.1/libgen/Atomic_PolEc.C, line 58:

 No atomic polarizability available.


 Q-Chem warning in module /opt/software/qchem/qchem-5.0.1/libgen/Atomic_PolEc.C, line 73:

 No atomic polarizability available.


 Q-Chem warning in module /opt/software/qchem/qchem-5.0.1/libgen/Atomic_PolEc.C, line 58:

 No atomic polarizability available.


 Q-Chem warning in module /opt/software/qchem/qchem-5.0.1/libgen/Atomic_PolEc.C, line 73:

 No atomic polarizability available.


 Q-Chem warning in module /opt/software/qchem/qchem-5.0.1/libgen/Atomic_PolEc.C, line 58:

 No atomic polarizability available.


 Q-Chem warning in module /opt/software/qchem/qchem-5.0.1/libgen/Atomic_PolEc.C, line 73:

 No atomic polarizability available.


 Q-Chem warning in module /opt/software/qchem/qchem-5.0.1/libgen/Atomic_PolEc.C, line 58:

 No atomic polarizability available.


 Q-Chem warning in module /opt/software/qchem/qchem-5.0.1/libgen/Atomic_PolEc.C, line 73:

 No atomic polarizability available.


 Q-Chem warning in module /opt/software/qchem/qchem-5.0.1/libgen/Atomic_PolEc.C, line 58:

 No atomic polarizability available.


 Q-Chem warning in module /opt/software/qchem/qchem-5.0.1/libgen/Atomic_PolEc.C, line 73:

 No atomic polarizability available.


 Q-Chem warning in module /opt/software/qchem/qchem-5.0.1/libgen/Atomic_PolEc.C, line 58:

 No atomic polarizability available.


 Q-Chem warning in module /opt/software/qchem/qchem-5.0.1/libgen/Atomic_PolEc.C, line 73:

 No atomic polarizability available.


 Q-Chem warning in module /opt/software/qchem/qchem-5.0.1/libgen/Atomic_PolEc.C, line 58:

 No atomic polarizability available.


 Q-Chem warning in module /opt/software/qchem/qchem-5.0.1/libgen/Atomic_PolEc.C, line 73:

 No atomic polarizability available.


 Q-Chem warning in module /opt/software/qchem/qchem-5.0.1/libgen/Atomic_PolEc.C, line 58:

 No atomic polarizability available.


 Q-Chem warning in module /opt/software/qchem/qchem-5.0.1/libgen/Atomic_PolEc.C, line 73:

 No atomic polarizability available.


 Q-Chem warning in module /opt/software/qchem/qchem-5.0.1/libgen/Atomic_PolEc.C, line 58:

 No atomic polarizability available.


 Q-Chem warning in module /opt/software/qchem/qchem-5.0.1/libgen/Atomic_PolEc.C, line 73:

 No atomic polarizability available.

 A restricted hybrid HF-DFT SCF calculation will be
 performed using Pulay DIIS extrapolation
 Exchange:     0.2000 Hartree-Fock + 0.0800 Slater + 0.7200 B88
 Correlation:  0.1900 VWN1RPA + 0.8100 LYP
 Using SG-1 standard quadrature grid
 Dispersion:   Grimme D3
 SCF converges when DIIS error is below 1.0E-08
 using 4 threads for integral computing
 -------------------------------------------------------
 OpenMP Integral computing Module                
 Release: version 1.0, May 2013, Q-Chem Inc. Pittsburgh 
 -------------------------------------------------------
 -------------------------------------------------------
 OpenMP BLAS3 based DFT computing Module                
 Release: version 1.0, May 2013, Q-Chem Inc. Pittsburgh 
 -------------------------------------------------------
 ---------------------------------------
  Cycle       Energy         DIIS Error
 ---------------------------------------
    1    -390.4759637766      1.79E-02
    2    -388.4110560151      2.25E-03
    3    -388.3325244213      2.63E-03
    4    -388.6280003925      4.08E-04
    5    -388.6329805453      1.46E-04
    6    -388.6336280759      3.95E-05
    7    -388.6336728305      1.44E-05
    8    -388.6336805126      1.34E-06
    9    -388.6336805817      5.57E-07
   10    -388.6336805937      1.47E-07
   11    -388.6336805946      1.60E-08
   12    -388.6336805946      6.97E-09 Convergence criterion met
 ---------------------------------------
 SCF time:  CPU 1280.42 s  wall 323.42 s
 SCF   energy in the final basis set = -388.63368059
 Total energy in the final basis set = -388.63368059
 
 --------------------------------------------------------------
 
                    Orbital Energies (a.u.)
 --------------------------------------------------------------
 
 Alpha MOs
 -- Occupied --
-19.115 -10.224 -10.221 -10.166 -10.165 -10.162 -10.161 -10.160
-10.151  -1.049  -0.799  -0.789  -0.748  -0.717  -0.652  -0.616
 -0.562  -0.555  -0.486  -0.474  -0.464  -0.444  -0.420  -0.410
 -0.406  -0.402  -0.384  -0.360  -0.346  -0.343  -0.340  -0.333
 -0.316  -0.299  -0.261
 -- Virtual --
 -0.010   0.001   0.007   0.011   0.022   0.027   0.028   0.031
  0.036   0.043   0.048   0.051   0.054   0.056   0.061   0.062
  0.068   0.073   0.077   0.079   0.082   0.086   0.093   0.093
  0.101   0.103   0.104   0.104   0.109   0.112   0.115   0.116
  0.118   0.120   0.122   0.130   0.132   0.134   0.136   0.140
  0.142   0.147   0.150   0.152   0.153   0.156   0.159   0.161
  0.162   0.166   0.167   0.169   0.170   0.179   0.180   0.183
  0.186   0.188   0.190   0.191   0.197   0.197   0.198   0.200
  0.203   0.204   0.208   0.210   0.216   0.217   0.220   0.223
  0.224   0.228   0.231   0.232   0.240   0.241   0.242   0.244
  0.247   0.251   0.256   0.262   0.265   0.267   0.268   0.275
  0.277   0.284   0.286   0.288   0.294   0.300   0.302   0.304
  0.310   0.316   0.321   0.327   0.331   0.338   0.340   0.345
  0.348   0.356   0.360   0.361   0.365   0.365   0.376   0.381
  0.383   0.384   0.386   0.388   0.395   0.397   0.402   0.412
  0.414   0.417   0.419   0.422   0.438   0.444   0.449   0.458
  0.462   0.471   0.480   0.484   0.486   0.490   0.497   0.499
  0.504   0.511   0.522   0.530   0.543   0.544   0.550   0.560
  0.563   0.566   0.570   0.576   0.587   0.599   0.603   0.603
  0.613   0.620   0.622   0.628   0.631   0.636   0.654   0.656
  0.659   0.662   0.663   0.669   0.677   0.683   0.690   0.699
  0.702   0.705   0.710   0.715   0.719   0.726   0.730   0.738
  0.738   0.741   0.749   0.760   0.763   0.764   0.771   0.781
  0.784   0.786   0.790   0.799   0.802   0.813   0.817   0.826
  0.829   0.849   0.851   0.864   0.876   0.879   0.893   0.903
  0.920   0.927   0.939   0.941   0.955   0.978   1.002   1.011
  1.019   1.027   1.045   1.053   1.061   1.070   1.079   1.093
  1.101   1.108   1.119   1.134   1.142   1.159   1.163   1.187
  1.192   1.204   1.218   1.233   1.244   1.254   1.264   1.284
  1.292   1.302   1.308   1.317   1.329   1.337   1.364   1.394
  1.404   1.444   1.469   1.475   1.481   1.482   1.502   1.509
  1.518   1.524   1.537   1.547   1.552   1.558   1.560   1.579
  1.590   1.594   1.599   1.609   1.615   1.624   1.628   1.629
  1.647   1.652   1.655   1.672   1.684   1.696   1.710   1.716
  1.724   1.733   1.738   1.746   1.753   1.761   1.762   1.766
  1.773   1.779   1.788   1.791   1.805   1.811   1.820   1.829
  1.833   1.835   1.840   1.841   1.861   1.867   1.870   1.876
  1.883   1.890   1.906   1.914   1.918   1.924   1.937   1.944
  1.948   1.958   1.966   1.985   1.992   1.995   2.003   2.009
  2.021   2.028   2.049   2.054   2.065   2.072   2.090   2.094
  2.104   2.107   2.111   2.114   2.123   2.133   2.141   2.168
  2.172   2.182   2.201   2.216   2.229   2.234   2.244   2.251
  2.270   2.287   2.299   2.305   2.307   2.333   2.341   2.352
  2.361   2.371   2.379   2.385   2.386   2.399   2.414   2.423
  2.432   2.447   2.458   2.462   2.477   2.483   2.487   2.498
  2.512   2.521   2.522   2.533   2.544   2.547   2.561   2.573
  2.578   2.588   2.598   2.603   2.618   2.627   2.631   2.646
  2.655   2.658   2.669   2.688   2.700   2.709   2.716   2.725
  2.738   2.766   2.774   2.777   2.785   2.787   2.797   2.803
  2.822   2.825   2.836   2.852   2.864   2.882   2.892   2.904
  2.909   2.917   2.930   2.955   2.958   2.965   2.986   2.997
  3.004   3.016   3.037   3.043   3.051   3.064   3.067   3.083
  3.092   3.111   3.118   3.119   3.151   3.162   3.163   3.173
  3.224   3.249   3.261   3.262   3.284   3.291   3.310   3.327
  3.331   3.348   3.349   3.363   3.371   3.390   3.479   3.501
  3.518   3.540   3.556   3.572   3.578   3.589   3.602   3.616
  3.619   3.631   3.650   3.690   3.700   3.711   3.731   3.761
  3.806   3.819   3.835   3.859   3.885   3.910   3.914   3.920
  3.964   3.975   3.984   4.029   4.035   4.117   4.133   4.142
  4.150   4.197   4.229   4.295   4.314   4.477   4.519   4.598
  4.679   4.700   4.775   4.836   4.869   4.876   4.884   4.921
  4.923   4.945   4.966   5.022   5.031   5.085   5.098   5.178
  5.339   5.383   5.590   5.710   5.756   7.401   7.490   7.519
  7.564   7.611   7.643   7.688   7.728   7.742   7.767   7.809
  7.833   7.841   7.867   7.955   8.010   8.153   8.216   8.353
  8.422   8.473   8.482   8.733   8.830   9.902   9.938   9.989
 10.038  10.049  10.063  10.080  10.161  13.680  13.952  14.130
 18.606  23.791  23.864  23.967  23.987  24.013  24.027  24.053
 24.079  50.042  69.805  69.837  69.945  69.961  69.973  70.004
 70.048  70.053 139.837
 --------------------------------------------------------------
 
          Ground-State Mulliken Net Atomic Charges

     Atom                 Charge (a.u.)
  ----------------------------------------
      1 C                    -0.382177
      2 C                    -0.371587
      3 C                     0.175321
      4 C                    -0.508298
      5 C                    -0.504670
      6 C                     0.217489
      7 O                     0.099096
      8 H                     0.155167
      9 H                     0.138028
     10 H                     0.158542
     11 H                     0.134346
     12 C                    -0.294141
     13 C                    -0.352207
     14 H                     0.153720
     15 H                     0.152609
     16 H                     0.117681
     17 H                     0.151944
     18 H                     0.150476
     19 H                     0.100260
     20 H                     0.177433
     21 H                     0.166174
     22 H                     0.160489
     23 H                     0.186787
     24 GH                   -0.006846
     25 GH                    0.002319
     26 GH                   -0.086826
     27 GH                   -0.000163
     28 GH                   -0.017229
     29 GH                   -0.098372
     30 GH                   -0.000133
     31 GH                    0.022352
     32 GH                   -0.049309
     33 GH                    0.037784
     34 GH                   -0.024839
     35 GH                    0.023742
     36 GH                    0.008492
     37 GH                   -0.001499
     38 GH                    0.002654
     39 GH                    0.000064
     40 GH                   -0.001085
     41 GH                    0.003000
     42 GH                    0.000034
     43 GH                    0.001624
     44 GH                   -0.000214
     45 GH                   -0.000669
     46 GH                    0.002634
  ----------------------------------------
  Sum of atomic charges =     0.000000

 -----------------------------------------------------------------
                    Cartesian Multipole Moments
 -----------------------------------------------------------------
    Charge (ESU x 10^10)
                 0.0000
    Dipole Moment (Debye)
         X      -0.0354      Y       0.4282      Z       1.4991
       Tot       1.5595
    Quadrupole Moments (Debye-Ang)
        XX     -56.7288     XY       1.5904     YY     -53.2061
        XZ       7.5798     YZ       3.4010     ZZ     -51.6836
    Octopole Moments (Debye-Ang^2)
       XXX    -876.0321    XXY    -127.0300    XYY    -278.0285
       YYY    -380.0948    XXZ    -102.9247    XYZ      15.3404
       YYZ    -127.7710    XZZ    -267.1780    YZZ    -121.5634
       ZZZ    -403.4144
    Hexadecapole Moments (Debye-Ang^3)
      XXXX   -9462.5656   XXXY   -1973.7225   XXYY   -1959.6435
      XYYY   -1913.0536   YYYY   -2548.3283   XXXZ   -2014.0343
      XXYZ    -241.3148   XYYZ    -678.2977   YYYZ    -861.5613
      XXZZ   -1865.7429   XYZZ    -613.7978   YYZZ    -801.7361
      XZZZ   -2098.8317   YZZZ    -876.0707   ZZZZ   -2356.6678
 -----------------------------------------------------------------
Archival summary:
1\1\vega03.cac.cornell.edu\SP\ProcedureUnspecified\BasisUnspecified\1814h23\jj585\TueApr1700:08:522018TueApr1700:08:522018\0\\#,ProcedureUnspecified,BasisUnspecified,\\0,1\O\C,1,1.43358\C,1,1.43646,2,98.0224\C,3,1.51218,1,111.091,2,-178.393,0\H,4,1.09134,3,111.033,1,-57.0184,0\H,4,1.09192,3,109.775,1,62.6469,0\H,4,1.09264,3,110.458,1,-177.522,0\C,2,1.513,1,109.807,3,-177.944,0\H,8,1.07,2,109.471,1,-64.7983,0\H,8,1.07,2,109.471,1,55.2018,0\H,8,1.07,2,109.471,1,175.202,0\C,2,1.54115,1,102.483,3,57.1986,0\H,12,1.09096,2,110.128,1,81.1589,0\H,12,1.09186,2,112.95,1,-157.962,0\C,2,1.54738,1,103.124,3,-55.9256,0\H,15,1.07,2,113.95,1,155.255,0\H,15,1.07,2,111.379,1,-86.5463,0\C,3,1.55466,1,102.371,2,-54.4128,0\H,18,1.09132,3,109.614,1,-87.4148,0\H,18,1.09187,3,112.355,1,152.676,0\C,15,1.5685,2,101.696,1,32.1918,0\H,21,1.07,15,111.7,2,120.458,0\H,21,1.07,15,114.71,2,-121.541,0\Gh,23,1.53502,21,123.311,15,75.1709,0\Gh,24,1.09187,23,151.266,21,-25.8032,0\Gh,25,1.09132,24,107.862,23,84.6756,0\Gh,25,1.55466,24,112.355,23,-154.403,0\Gh,27,1.43646,25,102.371,24,152.676,0\Gh,28,1.43358,27,98.0224,25,-54.4128,0\Gh,27,1.51218,25,115.611,24,-86.4144,0\Gh,30,1.09134,27,111.033,25,-173.092,0\Gh,30,1.09192,27,109.775,25,-53.4265,0\Gh,30,1.09264,27,110.458,25,66.4047,0\Gh,29,1.513,28,109.807,27,-177.944,0\Gh,34,1.07,29,109.471,28,-64.7983,0\Gh,34,1.07,29,109.471,28,55.2018,0\Gh,34,1.07,29,109.471,28,175.202,0\Gh,29,1.54115,28,102.483,27,57.1986,0\Gh,38,1.09096,29,110.128,28,81.1589,0\Gh,38,1.09186,29,112.95,28,-157.962,0\Gh,29,1.54738,28,103.124,27,-55.9256,0\Gh,41,1.07,29,113.95,28,155.255,0\Gh,41,1.07,29,111.379,28,-86.5463,0\Gh,41,1.5685,29,101.696,28,32.1918,0\Gh,44,1.07,41,111.7,29,120.458,0\Gh,44,1.07,41,114.71,29,-121.541,0\\\@

 Total job time:  324.85s(wall), 1283.61s(cpu) 
 Tue Apr 17 00:08:52 2018

        *************************************************************
        *                                                           *
        *  Thank you very much for using Q-Chem.  Have a nice day.  *
        *                                                           *
        *************************************************************


0 sent ACK to 0 
now end server 0 ... 
