mFile = /opt/software/qchem/qchem-5.0.1//bin/mpi/machines
Process 0 of 1 is on vega03.cac.cornell.edu - thread support 0
initial socket setup ...start
initial socket setup ...done 
now start server 0 ... 
vega03 10.84.3
Q-Chem Developer Version! Running on 10.84.3.*
                  Welcome to Q-Chem
     A Quantum Leap Into The Future Of Chemistry


 Q-Chem 5.0, Q-Chem, Inc., Pleasanton, CA (2017)

 Yihan Shao,  Zhengting Gan,  E. Epifanovsky,  A. T. B. Gilbert,  M. Wormit,  
 J. Kussmann,  A. W. Lange,  A. Behn,  Jia Deng,  Xintian Feng,  D. Ghosh,  
 M. Goldey,  P. R. Horn,  L. D. Jacobson,  I. Kaliman,  T. Kus,  A. Landau,  
 Jie Liu,  E. I. Proynov,  R. M. Richard,  R. P. Steele,  E. J. Sundstrom,  
 H. L. Woodcock III,  P. M. Zimmerman,  D. Zuev,  B. Albrecht,  E. Alguire,  
 S. A. Baeppler,  Z. Benda,  Y. A. Bernard,  E. J. Berquist,  K. B. Bravaya,  
 D. Casanova,  Chun-Min Chang,  Yunqing Chen,  A. Chien,  K. D. Closser,  
 M. P. Coons,  S. Dasgupta,  M. Diedenhofen,  Hainam Do,  R. G. Edgar,  
 Po-Tung Fang,  S. Fatehi,  Qingguo Feng,  Qinghui Ge,  A. Ghysels,  
 J. Gomes,  J. Gonthier,  A. Gunina,  M. W. D. Hanson-Heine,  
 P. H. P. Harbach,  A. W. Hauser,  J. E. Herr,  E. G. Hohenstein,  
 Z. C. Holden,  Kerwin Hui,  T.-C. Jagau,  Hyunjun Ji,  B. Kaduk,  
 K. Khistyaev,  Jaehoon Kim,  P. Klunzinger,  K. Koh,  D. Kosenkov,  
 T. Kowalczyk,  C. M. Krauter,  A. Kunitsa,  Ka Un Lao,  A. Laurent,  
 K. V. Lawler,  Joonho Lee,  D. Lefrancois,  S. Lehtola,  D. S. Levine,  
 Yi-Pei Li,  You-Sheng Lin,  Fenglai Liu,  E. Livshits,  A. Luenser,  
 P. Manohar,  E. Mansoor,  S. F. Manzer,  Shan-Ping Mao,  Yuezhi Mao,  
 N. Mardirossian,  A. V. Marenich,  L. A. Martinez-Martinez,  S. A. Maurer,  
 N. J. Mayhall,  S. C. McKenzie,  J.-M. Mewes,  A. F. Morrison,  K. Nanda,  
 T. S. Nguyen-Beck,  R. Olivares-Amaya,  J. A. Parkhill,  T. M. Perrine,  
 F. Plasser,  S. Prager,  A. Prociuk,  D. R. Rehn,  F. Rob,  M. Schneider,  
 N. Sergueev,  S. M. Sharada,  S. Sharma,  D. W. Small,  T. Stauch,  
 T. Stein,  Yu-Chuan Su,  A. J. W. Thom,  T. Tsuchimochi,  L. Vogt,  
 O. Vydrov,  M. A. Watson,  J. Wenzel,  M. de Wergifosse,  T. A. Wesolowski,  
 A. White,  J. Witte,  A. Yamada,  Jun Yang,  K. Yao,  S. Yeganeh,  
 S. R. Yost,  Zhi-Qiang You,  A. Zech,  Igor Ying Zhang,  Xing Zhang,  
 Yan Zhao,  Ying Zhu,  B. R. Brooks,  G. K. L. Chan,  C. J. Cramer,  
 M. S. Gordon,  W. J. Hehre,  A. Klamt,  M. W. Schmidt,  C. D. Sherrill,  
 D. G. Truhlar,  A. Aspuru-Guzik,  R. Baer,  A. T. Bell,  N. A. Besley,  
 Jeng-Da Chai,  A. Dreuw,  B. D. Dunietz,  T. R. Furlani,  Chao-Ping Hsu,  
 Yousung Jung,  Jing Kong,  D. S. Lambrecht,  WanZhen Liang,  C. Ochsenfeld,  
 V. A. Rassolov,  L. V. Slipchenko,  J. E. Subotnik,  T. Van Voorhis,  
 J. M. Herbert,  A. I. Krylov,  P. M. W. Gill,  M. Head-Gordon

 Contributors to earlier versions of Q-Chem not listed above: 
 R. D. Adamson,  B. Austin,  J. Baker,  G. J. O. Beran,  K. Brandhorst,  
 S. T. Brown,  E. F. C. Byrd,  A. K. Chakraborty,  C.-L. Cheng,  
 Siu Hung Chien,  D. M. Chipman,  D. L. Crittenden,  H. Dachsel,  
 R. A. DiStasio Jr.,  R. J. Doerksen,  A. D. Dutoi,  L. Fusti-Molnar,  
 W. A. Goddard III,  A. Golubeva-Zadorozhnaya,  S. R. Gwaltney,  G. Hawkins,  
 A. Heyden,  S. Hirata,  G. Kedziora,  F. J. Keil,  C. Kelley,  Jihan Kim,  
 R. A. King,  R. Z. Khaliullin,  P. P. Korambath,  W. Kurlancheek,  
 A. M. Lee,  M. S. Lee,  S. V. Levchenko,  Ching Yeh Lin,  D. Liotard,  
 R. C. Lochan,  I. Lotan,  P. E. Maslen,  N. Nair,  D. P. O'Neill,  
 D. Neuhauser,  E. Neuscamman,  C. M. Oana,  R. Olson,  B. Peters,  
 R. Peverati,  P. A. Pieniazek,  Y. M. Rhee,  J. Ritchie,  M. A. Rohrdanz,  
 E. Rosta,  N. J. Russ,  H. F. Schaefer III,  N. E. Schultz,  N. Shenvi,  
 A. C. Simmonett,  A. Sodt,  D. Stuck,  K. S. Thanthiriwatte,  V. Vanovschi,  
 Tao Wang,  A. Warshel,  C. F. Williams,  Q. Wu,  X. Xu,  W. Zhang

 Please cite Q-Chem as follows:
 Y. Shao et al., Mol. Phys. 113, 184-215 (2015)
 DOI: 10.1080/00268976.2014.952696

 Q-Chem 5.0.1 for Intel X86 EM64T Linux

 Parts of Q-Chem use Armadillo 5.200.1 (Boston Tea Smuggler).
 http://arma.sourceforge.net/

 Q-Chem begins on Tue Apr 17 00:08:55 2018  

Host: vega03.cac.cornell.edu
0

     Scratch files written to /scratch/jj585/vdw/0110_distance_4.700_11.save//
 Parallel job on  1  processors

Checking the input file for inconsistencies... 	...done.

--------------------------------------------------------------
User input:
--------------------------------------------------------------
$molecule
0  1
--
0  1
C        +0.22270000        +1.04488000        +0.58595000
C        +0.62626000        -0.41353000        +0.99871000
C        +1.33008000        +1.39974000        -0.43491000
C        +2.63070000        +1.71700000        +0.32855000
C        +3.04336000        +0.29351000        +0.80300000
C        +1.94423000        -0.59299000        +0.15262000
O        +1.62840000        +0.13663000        -1.04376000
H        +3.37234000        +2.13782000        -0.35195000
H        +2.48236000        +2.42488000        +1.14651000
H        +4.02182000        +0.00994000        +0.41161000
H        +3.07359000        +0.18738000        +1.88928000
C        +0.90028000        +2.39077000        -1.49430000
C        +2.35450000        -2.01267000        -0.16812000
H        +3.26311000        -2.00678000        -0.77366000
H        +2.54990000        -2.57059000        +0.75079000
H        +1.57335000        -2.52896000        -0.72872000
H        +1.71845000        +2.58186000        -2.15686000
H        +0.59919000        +3.30478000        -1.02650000
H        +0.07925000        +1.98653000        -2.04874000
H        +0.81693000        -0.48905000        +2.04887000
H        -0.12524000        -1.15356000        +0.81843000
H        -0.74673000        +1.06811000        +0.13365000
H        +0.15552000        +1.72617000        +1.40828000
--
0  1
C        +3.75039000        +2.93042000        +3.05378000
C        +4.15395000        +1.47201000        +3.46654000
C        +4.85777000        +3.28528000        +2.03292000
C        +6.15839000        +3.60254000        +2.79638000
C        +6.57105000        +2.17905000        +3.27083000
C        +5.47192000        +1.29255000        +2.62045000
O        +5.15609000        +2.02217000        +1.42407000
H        +6.90003000        +4.02336000        +2.11588000
H        +6.01005000        +4.31042000        +3.61434000
H        +7.54951000        +1.89548000        +2.87944000
H        +6.60128000        +2.07292000        +4.35711000
C        +4.42797000        +4.27631000        +0.97353000
C        +5.88219000        -0.12713000        +2.29971000
H        +6.79080000        -0.12124000        +1.69417000
H        +6.07759000        -0.68505000        +3.21862000
H        +5.10104000        -0.64342000        +1.73911000
H        +5.24614000        +4.46740000        +0.31097000
H        +4.12688000        +5.19032000        +1.44133000
H        +3.60694000        +3.87207000        +0.41909000
H        +4.34462000        +1.39649000        +4.51670000
H        +3.40245000        +0.73198000        +3.28626000
H        +2.78096000        +2.95365000        +2.60148000
H        +3.68321000        +3.61171000        +3.87611000
$end

$rem
JOBTYPE                   SP
METHOD                    B3LYP
DFT_D                     d3_op
BASIS                     6-311++G(d,p)
SYMMETRY                  False
THRESH                    12
SCF_CONVERGENCE           8
MAX_SUB_FILE_NUM          128
MEM_STATIC                400
MEM_TOTAL                 4000
$end
--------------------------------------------------------------
 Adding empirical dispersion correction 
 ----------------------------------------------------------------
 Doing -D3(op) with
 s6 =   1.00000
 s8 =   0.78311
 a1 =   0.30000
 a2 =   4.25000
 n  =  10.00000
 -D3 energy without 3body term =     -0.0576392171 hartrees
 ----------------------------------------------------------------
             Standard Nuclear Orientation (Angstroms)
    I     Atom           X                Y                Z
 ----------------------------------------------------------------
    1      C       2.8631484400    -0.8061649936     1.3072667395
    2      C       2.9289302616     0.7607685324     1.3314182720
    3      C       2.4002666254    -1.0783584292    -0.1439473670
    4      C       0.8937450265    -0.7726258925    -0.2537551624
    5      C       0.9071082580     0.7818768669    -0.1826393887
    6      C       2.4303901125     1.0877855939    -0.1279091970
    7      O       2.9899275776     0.0003315573    -0.8814213608
    8      H       0.5088032602    -1.1216034173    -1.2130435110
    9      H       0.3053587150    -1.2417106007     0.5373949476
   10      H       0.4761987021     1.2266481455    -1.0812369142
   11      H       0.3715636629     1.1837782875     0.6798273660
   12      C       2.8718923080    -2.4016483885    -0.7057734719
   13      C       2.8503400536     2.4215583928    -0.7035645546
   14      H       2.4661385197     2.5223821510    -1.7206728413
   15      H       2.4554731016     3.2404560708    -0.0974802719
   16      H       3.9376750247     2.5081281024    -0.7386557590
   17      H       2.5115065062    -2.5127535655    -1.7071130766
   18      H       2.4961248267    -3.2002223296    -0.1008067217
   19      H       3.9415740598    -2.4278016821    -0.7067259751
   20      H       2.2775328903     1.1727032924     2.0736349271
   21      H       3.8889345212     1.1644201521     1.5770902500
   22      H       3.8224565139    -1.2398256088     1.4985151066
   23      H       2.2214276580    -1.2255200141     2.0537462436
   24      C      -1.8361405628    -0.8064758946     1.3892759365
   25      C      -1.7703587412     0.7604576313     1.4134274690
   26      C      -2.2990223774    -1.0786693302    -0.0619381700
   27      C      -3.8055439762    -0.7729367935    -0.1717459653
   28      C      -3.7921807448     0.7815659659    -0.1006301916
   29      C      -2.2688988903     1.0874746929    -0.0458999999
   30      O      -1.7093614252     0.0000206562    -0.7994121637
   31      H      -4.1904857425    -1.1219143183    -1.1310343139
   32      H      -4.3939302878    -1.2420215017     0.6194041446
   33      H      -4.2230903007     1.2263372445    -0.9992277172
   34      H      -4.3277253399     1.1834673865     0.7618365631
   35      C      -1.8273966948    -2.4019592895    -0.6237642748
   36      C      -1.8489489491     2.4212474918    -0.6215553576
   37      H      -2.2331504831     2.5220712500    -1.6386636443
   38      H      -2.2438159012     3.2401451698    -0.0154710749
   39      H      -0.7616139780     2.5078172013    -0.6566465620
   40      H      -2.1877824966    -2.5130644665    -1.6251038796
   41      H      -2.2031641760    -3.2005332306    -0.0187975246
   42      H      -0.7577149430    -2.4281125831    -0.6247167780
   43      H      -2.4217561125     1.1723923913     2.1556441241
   44      H      -0.8103544816     1.1641092511     1.6590994471
   45      H      -0.8768324888    -1.2401365098     1.5805243037
   46      H      -2.4778613447    -1.2258309151     2.1357554407
 ----------------------------------------------------------------
 Molecular Point Group                 C1    NOp =  1
 Largest Abelian Subgroup              C1    NOp =  1
 Nuclear Repulsion Energy =  1535.8735991810 hartrees
 There are       70 alpha and       70 beta electrons
 Requested basis set is 6-311++G(d,p)
 There are 248 shells and 592 basis functions

 Total QAlloc Memory Limit   4000 MB
 Mega-Array Size       392 MB
 MEM_STATIC part       400 MB
 A cutoff of  1.0D-12 yielded  25618 shell pairs
 There are    144768 function pairs (    153132 Cartesian)
 
 -------------------------------------------------------
 OpenMP Integral Computing Module                       
 Release: version 1.0, May 2013, Q-Chem Inc. Pittsburgh 
 -------------------------------------------------------
 Integral Job Info:
 Integral job number is                      11
 Integral operator is                         1
 short-range coefficients                     0
 long-range coefficients              100000000
 Omega coefficients                           0
 if combine SR and LR in K                    0
 Integral screening is                        0
 Integral computing path is                   2
 max size of driver memory is            800000
 size of driver memory is                593474
 size of scratch memory is              2361544
 max col of scratch BK array               1296
 max len of scratch array in speh3          155
 max len of scratch index in speh4           18
 max int batch size is                      520
 min int batch size is                       52
 fixed nKL is                                52
 max L of basis functions is                  2
 order of int derivative is                   0
 number of shells is                        248
 number of basis is                         610
 number of cartesian basis is               610
 number of contracted shell pairs         25618
 number of primitive shell pairs          53291
 maxK2 (contraction) of shell pair           36
 max number of K2 of shell pair               1
 max number of CS2 of shell pair           4662
 max number of PS2 of shell pair           8016
 mem total for path MDJ                  198666
 -------------------------------------------------------
 Smallest overlap matrix eigenvalue = 2.58E-07
 Linear dependence detected in AO basis
 Number of orthogonalized atomic orbitals = 590
 Maximum deviation from orthogonality = 2.088E-10

 Scale SEOQF with 1.000000e-01/1.000000e-01/1.000000e-01

 Standard Electronic Orientation quadrupole field applied
 Nucleus-field energy     =     0.0000000418 hartrees
 Guess from superposition of atomic densities
 Warning:  Energy on first SCF cycle will be non-variational
 A restricted hybrid HF-DFT SCF calculation will be
 performed using Pulay DIIS extrapolation
 Exchange:     0.2000 Hartree-Fock + 0.0800 Slater + 0.7200 B88
 Correlation:  0.1900 VWN1RPA + 0.8100 LYP
 Using SG-1 standard quadrature grid
 Dispersion:   Grimme D3
 SCF converges when DIIS error is below 1.0E-08
 using 4 threads for integral computing
 -------------------------------------------------------
 OpenMP Integral computing Module                
 Release: version 1.0, May 2013, Q-Chem Inc. Pittsburgh 
 -------------------------------------------------------
 -------------------------------------------------------
 OpenMP BLAS3 based DFT computing Module                
 Release: version 1.0, May 2013, Q-Chem Inc. Pittsburgh 
 -------------------------------------------------------
 ---------------------------------------
  Cycle       Energy         DIIS Error
 ---------------------------------------
    1    -781.1574032998      2.54E-02
    2    -776.8064109577      3.15E-03
    3    -776.6607595726      3.67E-03
    4    -777.2289727991      5.88E-04
    5    -777.2394452417      2.09E-04
    6    -777.2407623350      5.62E-05
    7    -777.2408529714      2.08E-05
    8    -777.2408689990      2.17E-06
    9    -777.2408691757      8.11E-07
   10    -777.2408691997      2.74E-07
   11    -777.2408692024      7.89E-08
   12    -777.2408692025      2.49E-08
   13    -777.2408692027      6.17E-09 Convergence criterion met
 ---------------------------------------
 SCF time:  CPU 1451.33 s  wall 365.85 s
 SCF   energy in the final basis set = -777.24086920
 Total energy in the final basis set = -777.24086920
 
 --------------------------------------------------------------
 
                    Orbital Energies (a.u.)
 --------------------------------------------------------------
 
 Alpha MOs
 -- Occupied --
-19.118 -19.106 -10.229 -10.225 -10.215 -10.211 -10.170 -10.169
-10.167 -10.166 -10.161 -10.157 -10.156 -10.154 -10.152 -10.151
-10.150 -10.146  -1.055  -1.040  -0.805  -0.794  -0.792  -0.781
 -0.756  -0.740  -0.721  -0.712  -0.657  -0.647  -0.626  -0.607
 -0.567  -0.566  -0.556  -0.545  -0.498  -0.488  -0.475  -0.468
 -0.467  -0.454  -0.451  -0.438  -0.424  -0.420  -0.415  -0.411
 -0.408  -0.402  -0.397  -0.396  -0.386  -0.374  -0.364  -0.356
 -0.352  -0.351  -0.347  -0.341  -0.338  -0.332  -0.329  -0.322
 -0.316  -0.308  -0.297  -0.289  -0.267  -0.248
 -- Virtual --
 -0.013  -0.004  -0.002   0.007   0.013   0.015   0.017   0.025
  0.028   0.030   0.037   0.039   0.042   0.047   0.052   0.052
  0.059   0.059   0.064   0.065   0.069   0.075   0.076   0.081
  0.083   0.089   0.090   0.096   0.098   0.099   0.106   0.107
  0.110   0.111   0.113   0.116   0.118   0.123   0.127   0.129
  0.129   0.134   0.135   0.140   0.142   0.143   0.145   0.147
  0.148   0.149   0.151   0.154   0.157   0.158   0.160   0.163
  0.164   0.165   0.170   0.172   0.173   0.174   0.177   0.178
  0.182   0.183   0.184   0.185   0.188   0.190   0.191   0.191
  0.197   0.200   0.202   0.205   0.208   0.212   0.215   0.217
  0.219   0.221   0.222   0.224   0.228   0.231   0.235   0.235
  0.241   0.245   0.248   0.252   0.255   0.257   0.263   0.266
  0.268   0.273   0.275   0.280   0.286   0.287   0.289   0.292
  0.294   0.297   0.304   0.309   0.310   0.313   0.323   0.330
  0.331   0.336   0.339   0.343   0.347   0.349   0.351   0.356
  0.360   0.362   0.367   0.370   0.371   0.376   0.377   0.381
  0.381   0.385   0.395   0.398   0.401   0.407   0.414   0.418
  0.422   0.428   0.438   0.442   0.445   0.451   0.460   0.476
  0.480   0.488   0.497   0.501   0.507   0.528   0.530   0.544
  0.548   0.550   0.555   0.555   0.563   0.571   0.576   0.578
  0.584   0.594   0.596   0.610   0.614   0.615   0.620   0.624
  0.632   0.643   0.647   0.653   0.654   0.659   0.663   0.666
  0.669   0.675   0.680   0.686   0.688   0.697   0.702   0.711
  0.712   0.712   0.720   0.727   0.736   0.737   0.743   0.750
  0.751   0.758   0.760   0.767   0.770   0.774   0.781   0.783
  0.796   0.799   0.802   0.809   0.819   0.821   0.826   0.830
  0.836   0.838   0.844   0.848   0.854   0.863   0.880   0.890
  0.909   0.917   0.920   0.941   0.952   0.957   0.963   0.977
  0.988   1.008   1.021   1.036   1.056   1.058   1.088   1.101
  1.108   1.122   1.134   1.151   1.164   1.174   1.174   1.190
  1.206   1.215   1.227   1.234   1.257   1.263   1.277   1.285
  1.294   1.302   1.315   1.330   1.345   1.355   1.372   1.388
  1.436   1.453   1.458   1.467   1.473   1.479   1.482   1.489
  1.493   1.505   1.509   1.522   1.526   1.534   1.538   1.541
  1.548   1.556   1.561   1.566   1.574   1.586   1.587   1.596
  1.598   1.603   1.609   1.610   1.617   1.627   1.635   1.641
  1.644   1.654   1.668   1.675   1.677   1.682   1.692   1.700
  1.703   1.711   1.717   1.720   1.729   1.734   1.741   1.742
  1.746   1.755   1.761   1.763   1.787   1.788   1.792   1.798
  1.804   1.820   1.827   1.836   1.849   1.862   1.869   1.872
  1.879   1.886   1.892   1.907   1.916   1.919   1.932   1.942
  1.949   1.950   1.963   1.979   1.992   1.998   2.009   2.026
  2.030   2.035   2.036   2.047   2.060   2.065   2.068   2.092
  2.101   2.111   2.122   2.141   2.145   2.157   2.171   2.176
  2.190   2.208   2.218   2.233   2.244   2.246   2.255   2.266
  2.279   2.288   2.292   2.302   2.319   2.342   2.346   2.350
  2.388   2.402   2.418   2.432   2.446   2.460   2.467   2.478
  2.498   2.502   2.513   2.515   2.523   2.527   2.544   2.550
  2.554   2.558   2.568   2.574   2.578   2.580   2.588   2.598
  2.604   2.615   2.623   2.630   2.638   2.639   2.648   2.657
  2.662   2.668   2.675   2.701   2.706   2.712   2.720   2.732
  2.745   2.763   2.767   2.775   2.786   2.792   2.808   2.817
  2.836   2.836   2.855   2.867   2.881   2.894   2.907   2.918
  2.924   2.937   2.940   2.964   2.978   2.985   3.006   3.019
  3.025   3.031   3.045   3.052   3.065   3.082   3.094   3.098
  3.113   3.127   3.144   3.149   3.154   3.170   3.180   3.192
  3.219   3.254   3.260   3.284   3.297   3.315   3.327   3.342
  3.353   3.363   3.400   3.405   3.553   3.570   3.621   3.663
  3.703   3.715   3.725   3.744   3.833   3.836   3.840   3.851
  3.883   3.889   3.897   3.917   3.971   3.985   3.996   4.028
  4.113   4.123   4.146   4.177   4.187   4.209   4.219   4.228
  4.289   4.296   4.307   4.323   4.471   4.474   4.514   4.556
  5.243   5.325   5.534   5.580   5.702   5.706  23.780  23.807
 23.857  23.875  23.960  23.979  23.984  24.002  24.007  24.017
 24.023  24.041  24.043  24.053  24.069  24.086  50.003  50.039
 --------------------------------------------------------------
 
          Ground-State Mulliken Net Atomic Charges

     Atom                 Charge (a.u.)
  ----------------------------------------
      1 C                    -0.415845
      2 C                    -0.436190
      3 C                    -0.196047
      4 C                    -0.121276
      5 C                    -0.142359
      6 C                    -0.272469
      7 O                     0.065694
      8 H                     0.218058
      9 H                    -0.079935
     10 H                     0.197169
     11 H                    -0.030452
     12 C                    -0.255842
     13 C                    -0.281534
     14 H                     0.151510
     15 H                     0.153615
     16 H                     0.163444
     17 H                     0.141033
     18 H                     0.149575
     19 H                     0.161995
     20 H                     0.122332
     21 H                     0.172895
     22 H                     0.158854
     23 H                     0.135820
     24 C                    -0.350080
     25 C                    -0.372292
     26 C                     0.077457
     27 C                    -0.531695
     28 C                    -0.509090
     29 C                     0.155870
     30 O                     0.138847
     31 H                     0.157105
     32 H                     0.138215
     33 H                     0.160876
     34 H                     0.134728
     35 C                    -0.242049
     36 C                    -0.318667
     37 H                     0.158514
     38 H                     0.151175
     39 H                     0.132319
     40 H                     0.156930
     41 H                     0.148198
     42 H                     0.126405
     43 H                     0.177300
     44 H                     0.189518
     45 H                     0.171579
     46 H                     0.188791
  ----------------------------------------
  Sum of atomic charges =     0.000000

 -----------------------------------------------------------------
                    Cartesian Multipole Moments
 -----------------------------------------------------------------
    Charge (ESU x 10^10)
                 0.0000
    Dipole Moment (Debye)
         X      -2.3688      Y       0.0289      Z       2.2907
       Tot       3.2953
    Quadrupole Moments (Debye-Ang)
        XX    -116.9926     XY       0.1719     YY    -110.2315
        XZ       2.5954     YZ      -0.2203     ZZ    -116.3185
    Octopole Moments (Debye-Ang^2)
       XXX     -26.8118    XXY      -0.1873    XYY       1.4574
       YYY       0.4466    XXZ      15.6159    XYZ       0.2754
       YYZ      -1.8655    XZZ      -7.2880    YZZ      -0.3137
       ZZZ      -5.5112
    Hexadecapole Moments (Debye-Ang^3)
      XXXX   -4557.4080   XXXY       4.3120   XXYY   -1008.8277
      XYYY       0.9049   YYYY   -1699.0617   XXXZ      43.3617
      XXYZ      -1.6548   XYYZ      -5.0212   YYYZ      -1.2957
      XXZZ    -875.9306   XYZZ       0.6538   YYZZ    -387.5082
      XZZZ      -0.8497   YZZZ       0.3487   ZZZZ    -689.7432
 -----------------------------------------------------------------
Archival summary:
1\1\vega03.cac.cornell.edu\SP\ProcedureUnspecified\BasisUnspecified\21628\jj585\TueApr1700:15:022018TueApr1700:15:022018\0\\#,ProcedureUnspecified,BasisUnspecified,\\0,1\O\C,1,1.43358\C,1,1.43646,2,98.0224\C,3,1.51218,1,111.091,2,-178.393,0\H,4,1.09134,3,111.033,1,-57.0184,0\H,4,1.09192,3,109.775,1,62.6469,0\H,4,1.09264,3,110.458,1,-177.522,0\C,2,1.513,1,109.807,3,-177.944,0\H,8,1.07,2,109.471,1,-64.7983,0\H,8,1.07,2,109.471,1,55.2018,0\H,8,1.07,2,109.471,1,175.202,0\C,2,1.54115,1,102.483,3,57.1986,0\H,12,1.09096,2,110.128,1,81.1589,0\H,12,1.09186,2,112.95,1,-157.962,0\C,2,1.54738,1,103.124,3,-55.9256,0\H,15,1.07,2,113.95,1,155.255,0\H,15,1.07,2,111.379,1,-86.5463,0\C,3,1.55466,1,102.371,2,-54.4128,0\H,18,1.09132,3,109.614,1,-87.4148,0\H,18,1.09187,3,112.355,1,152.676,0\C,15,1.5685,2,101.696,1,32.1918,0\H,21,1.07,15,111.7,2,120.458,0\H,21,1.07,15,114.71,2,-121.541,0\H,23,1.53502,21,123.311,15,75.1709,0\C,24,1.09187,23,151.266,21,-25.8032,0\H,25,1.09132,24,107.862,23,84.6756,0\C,25,1.55466,24,112.355,23,-154.403,0\O,27,1.43646,25,102.371,24,152.676,0\C,28,1.43358,27,98.0224,25,-54.4128,0\C,27,1.51218,25,115.611,24,-86.4144,0\H,30,1.09134,27,111.033,25,-173.092,0\H,30,1.09192,27,109.775,25,-53.4265,0\H,30,1.09264,27,110.458,25,66.4047,0\C,29,1.513,28,109.807,27,-177.944,0\H,34,1.07,29,109.471,28,-64.7983,0\H,34,1.07,29,109.471,28,55.2018,0\H,34,1.07,29,109.471,28,175.202,0\C,29,1.54115,28,102.483,27,57.1986,0\H,38,1.09096,29,110.128,28,81.1589,0\H,38,1.09186,29,112.95,28,-157.962,0\C,29,1.54738,28,103.124,27,-55.9256,0\H,41,1.07,29,113.95,28,155.255,0\H,41,1.07,29,111.379,28,-86.5463,0\C,41,1.5685,29,101.696,28,32.1918,0\H,44,1.07,41,111.7,29,120.458,0\H,44,1.07,41,114.71,29,-121.541,0\\\@

 Total job time:  367.12s(wall), 1454.43s(cpu) 
 Tue Apr 17 00:15:02 2018

        *************************************************************
        *                                                           *
        *  Thank you very much for using Q-Chem.  Have a nice day.  *
        *                                                           *
        *************************************************************


0 sent ACK to 0 
now end server 0 ... 
