r0115.ten.osc.edu 10.25.153
Q-Chem Developer Version! Running on 10.25.153.*
                  Welcome to Q-Chem
     A Quantum Leap Into The Future Of Chemistry


 Q-Chem 5.0, Q-Chem, Inc., Pleasanton, CA (2017)

 Yihan Shao,  Zhengting Gan,  E. Epifanovsky,  A. T. B. Gilbert,  M. Wormit,  
 J. Kussmann,  A. W. Lange,  A. Behn,  Jia Deng,  Xintian Feng,  D. Ghosh,  
 M. Goldey,  P. R. Horn,  L. D. Jacobson,  I. Kaliman,  T. Kus,  A. Landau,  
 Jie Liu,  E. I. Proynov,  R. M. Richard,  R. P. Steele,  E. J. Sundstrom,  
 H. L. Woodcock III,  P. M. Zimmerman,  D. Zuev,  B. Albrecht,  E. Alguire,  
 S. A. Baeppler,  Z. Benda,  Y. A. Bernard,  E. J. Berquist,  K. B. Bravaya,  
 D. Casanova,  Chun-Min Chang,  Yunqing Chen,  A. Chien,  K. D. Closser,  
 M. P. Coons,  S. Dasgupta,  M. Diedenhofen,  Hainam Do,  R. G. Edgar,  
 Po-Tung Fang,  S. Fatehi,  Qingguo Feng,  Qinghui Ge,  A. Ghysels,  
 J. Gomes,  J. Gonthier,  A. Gunina,  M. W. D. Hanson-Heine,  
 P. H. P. Harbach,  A. W. Hauser,  J. E. Herr,  E. G. Hohenstein,  
 Z. C. Holden,  Kerwin Hui,  T.-C. Jagau,  Hyunjun Ji,  B. Kaduk,  
 K. Khistyaev,  Jaehoon Kim,  P. Klunzinger,  K. Koh,  D. Kosenkov,  
 T. Kowalczyk,  C. M. Krauter,  A. Kunitsa,  Ka Un Lao,  A. Laurent,  
 K. V. Lawler,  Joonho Lee,  D. Lefrancois,  S. Lehtola,  D. S. Levine,  
 Yi-Pei Li,  You-Sheng Lin,  Fenglai Liu,  E. Livshits,  A. Luenser,  
 P. Manohar,  E. Mansoor,  S. F. Manzer,  Shan-Ping Mao,  Yuezhi Mao,  
 N. Mardirossian,  A. V. Marenich,  L. A. Martinez-Martinez,  S. A. Maurer,  
 N. J. Mayhall,  S. C. McKenzie,  J.-M. Mewes,  A. F. Morrison,  K. Nanda,  
 T. S. Nguyen-Beck,  R. Olivares-Amaya,  J. A. Parkhill,  T. M. Perrine,  
 F. Plasser,  S. Prager,  A. Prociuk,  D. R. Rehn,  F. Rob,  M. Schneider,  
 N. Sergueev,  S. M. Sharada,  S. Sharma,  D. W. Small,  T. Stauch,  
 T. Stein,  Yu-Chuan Su,  A. J. W. Thom,  T. Tsuchimochi,  L. Vogt,  
 O. Vydrov,  M. A. Watson,  J. Wenzel,  M. de Wergifosse,  T. A. Wesolowski,  
 A. White,  J. Witte,  A. Yamada,  Jun Yang,  K. Yao,  S. Yeganeh,  
 S. R. Yost,  Zhi-Qiang You,  A. Zech,  Igor Ying Zhang,  Xing Zhang,  
 Yan Zhao,  Ying Zhu,  B. R. Brooks,  G. K. L. Chan,  C. J. Cramer,  
 M. S. Gordon,  W. J. Hehre,  A. Klamt,  M. W. Schmidt,  C. D. Sherrill,  
 D. G. Truhlar,  A. Aspuru-Guzik,  R. Baer,  A. T. Bell,  N. A. Besley,  
 Jeng-Da Chai,  A. Dreuw,  B. D. Dunietz,  T. R. Furlani,  Chao-Ping Hsu,  
 Yousung Jung,  Jing Kong,  D. S. Lambrecht,  WanZhen Liang,  C. Ochsenfeld,  
 V. A. Rassolov,  L. V. Slipchenko,  J. E. Subotnik,  T. Van Voorhis,  
 J. M. Herbert,  A. I. Krylov,  P. M. W. Gill,  M. Head-Gordon

 Contributors to earlier versions of Q-Chem not listed above: 
 R. D. Adamson,  B. Austin,  J. Baker,  G. J. O. Beran,  K. Brandhorst,  
 S. T. Brown,  E. F. C. Byrd,  A. K. Chakraborty,  C.-L. Cheng,  
 Siu Hung Chien,  D. M. Chipman,  D. L. Crittenden,  H. Dachsel,  
 R. A. DiStasio Jr.,  R. J. Doerksen,  A. D. Dutoi,  L. Fusti-Molnar,  
 W. A. Goddard III,  A. Golubeva-Zadorozhnaya,  S. R. Gwaltney,  G. Hawkins,  
 A. Heyden,  S. Hirata,  G. Kedziora,  F. J. Keil,  C. Kelley,  Jihan Kim,  
 R. A. King,  R. Z. Khaliullin,  P. P. Korambath,  W. Kurlancheek,  
 A. M. Lee,  M. S. Lee,  S. V. Levchenko,  Ching Yeh Lin,  D. Liotard,  
 R. C. Lochan,  I. Lotan,  P. E. Maslen,  N. Nair,  D. P. O'Neill,  
 D. Neuhauser,  E. Neuscamman,  C. M. Oana,  R. Olson,  B. Peters,  
 R. Peverati,  P. A. Pieniazek,  Y. M. Rhee,  J. Ritchie,  M. A. Rohrdanz,  
 E. Rosta,  N. J. Russ,  H. F. Schaefer III,  N. E. Schultz,  N. Shenvi,  
 A. C. Simmonett,  A. Sodt,  D. Stuck,  K. S. Thanthiriwatte,  V. Vanovschi,  
 Tao Wang,  A. Warshel,  C. F. Williams,  Q. Wu,  X. Xu,  W. Zhang

 Please cite Q-Chem as follows:
 Y. Shao et al., Mol. Phys. 113, 184-215 (2015)
 DOI: 10.1080/00268976.2014.952696

 Q-Chem 5.0.1 for Intel X86 EM64T Linux

 Parts of Q-Chem use Armadillo 5.200.1 (Boston Tea Smuggler).
 http://arma.sourceforge.net/

 Q-Chem begins on Sat Oct 14 18:57:17 2017  

Host: r0115.ten.osc.edu
0

     Scratch files written to /tmp/pbstmp.1310478/09//
Processing $rem in /users/PAS0291/osu6415/.qchemrc.
molden_format             true

Checking the input file for inconsistencies... 	...done.

--------------------------------------------------------------
User input:
--------------------------------------------------------------
$molecule
0 1
C 0.29053210 0.82216866 0.62093798
C 0.25609216 -0.75846263 0.60021890
C -0.83318818 1.44567404 -0.18996425
C -0.99775746 -1.32960304 -0.03014299
O -1.92158723 1.61415981 0.60403147
O -0.82687178 1.71933237 -1.36053523
O -1.89238742 -1.65466198 0.93435899
O -1.21122345 -1.48907505 -1.20504044
C -3.15930456 -2.15569958 0.47270966
C -3.10946919 2.09212928 -0.05374294
C 1.71951008 1.08625762 0.05002230
C 2.73737317 0.62776788 1.13594976
C 2.71503773 -0.91243342 0.96803809
C 1.61574443 -1.09008839 -0.11141730
O 1.83810335 0.05722540 -0.94488717
H 0.18845209 1.18041892 1.64506253
H 0.26931902 -1.11998996 1.62769791
H -3.02328332 -3.07438688 -0.10021286
H -3.36724859 1.44367062 -0.89260883
H 3.72283684 1.04045606 0.91428960
H 2.45383148 0.96318011 2.13616004
H 3.66398448 -1.28233876 0.57539123
H 2.49695702 -1.45496606 1.89024006
H -3.74097225 -2.34725395 1.37174372
H -3.65655116 -1.41463392 -0.15551765
H -2.96021643 3.10829099 -0.42264653
H -3.88897785 2.07319355 0.70502505
C 1.69453345 -2.36917075 -0.91471873
H 2.70079438 -2.48179153 -1.32427918
H 1.48667300 -3.23160153 -0.27431272
H 0.97650329 -2.35850138 -1.73301813
C 1.99778392 2.45520339 -0.53313785
H 3.03646980 2.50549013 -0.86709760
H 1.34444742 2.66328082 -1.37797366
H 1.84751757 3.22497757 0.23000523
$end

$rem
sym_ignore      true
jobtype         opt
method          b3lyp
basis           6-311++G(d,p)
dft_d           d3_op
mem_total       62000
MEM_STATIC      4000
ao2mo_disk      350000
max_scf_cycles  200
geom_opt_max_cycles 1000
geom_opt_tol_displacement 1
GEOM_OPT_TOL_GRADIENT       1
GEOM_OPT_TOL_ENERGY         1
$end

--------------------------------------------------------------
 Adding empirical dispersion correction 
 ----------------------------------------------------------------
 Doing -D3(op) with
 s6 =   1.00000
 s8 =   0.78311
 a1 =   0.30000
 a2 =   4.25000
 n  =  10.00000
 -D3 energy without 3body term =     -0.0412742035 hartrees
 ----------------------------------------------------------------
             Standard Nuclear Orientation (Angstroms)
    I     Atom           X                Y                Z
 ----------------------------------------------------------------
    1      C       0.2905321000     0.8221686600     0.6209379800
    2      C       0.2560921600    -0.7584626300     0.6002189000
    3      C      -0.8331881800     1.4456740400    -0.1899642500
    4      C      -0.9977574600    -1.3296030400    -0.0301429900
    5      O      -1.9215872300     1.6141598100     0.6040314700
    6      O      -0.8268717800     1.7193323700    -1.3605352300
    7      O      -1.8923874200    -1.6546619800     0.9343589900
    8      O      -1.2112234500    -1.4890750500    -1.2050404400
    9      C      -3.1593045600    -2.1556995800     0.4727096600
   10      C      -3.1094691900     2.0921292800    -0.0537429400
   11      C       1.7195100800     1.0862576200     0.0500223000
   12      C       2.7373731700     0.6277678800     1.1359497600
   13      C       2.7150377300    -0.9124334200     0.9680380900
   14      C       1.6157444300    -1.0900883900    -0.1114173000
   15      O       1.8381033500     0.0572254000    -0.9448871700
   16      H       0.1884520900     1.1804189200     1.6450625300
   17      H       0.2693190200    -1.1199899600     1.6276979100
   18      H      -3.0232833200    -3.0743868800    -0.1002128600
   19      H      -3.3672485900     1.4436706200    -0.8926088300
   20      H       3.7228368400     1.0404560600     0.9142896000
   21      H       2.4538314800     0.9631801100     2.1361600400
   22      H       3.6639844800    -1.2823387600     0.5753912300
   23      H       2.4969570200    -1.4549660600     1.8902400600
   24      H      -3.7409722500    -2.3472539500     1.3717437200
   25      H      -3.6565511600    -1.4146339200    -0.1555176500
   26      H      -2.9602164300     3.1082909900    -0.4226465300
   27      H      -3.8889778500     2.0731935500     0.7050250500
   28      C       1.6945334500    -2.3691707500    -0.9147187300
   29      H       2.7007943800    -2.4817915300    -1.3242791800
   30      H       1.4866730000    -3.2316015300    -0.2743127200
   31      H       0.9765032900    -2.3585013800    -1.7330181300
   32      C       1.9977839200     2.4552033900    -0.5331378500
   33      H       3.0364698000     2.5054901300    -0.8670976000
   34      H       1.3444474200     2.6632808200    -1.3779736600
   35      H       1.8475175700     3.2249775700     0.2300052300
 ----------------------------------------------------------------
 Nuclear Repulsion Energy =  1396.6129321039 hartrees
 There are       65 alpha and       65 beta electrons
 Requested basis set is 6-311++G(d,p)
 There are 192 shells and 500 basis functions

 Total QAlloc Memory Limit  62000 MB
 Mega-Array Size      3911 MB
 MEM_STATIC part      4000 MB
 A cutoff of  1.0D-11 yielded  15013 shell pairs
 There are    103805 function pairs (    110654 Cartesian)
 
 -------------------------------------------------------
 OpenMP Integral Computing Module                       
 Release: version 1.0, May 2013, Q-Chem Inc. Pittsburgh 
 -------------------------------------------------------
 Integral Job Info:
 Integral job number is                      11
 Integral operator is                         1
 short-range coefficients                     0
 long-range coefficients              100000000
 Omega coefficients                           0
 if combine SR and LR in K                    0
 Integral screening is                        0
 Integral computing path is                   2
 max size of driver memory is            800000
 size of driver memory is                593474
 size of scratch memory is              2361544
 max col of scratch BK array               1296
 max len of scratch array in speh3          155
 max len of scratch index in speh4           18
 max int batch size is                      520
 min int batch size is                       52
 fixed nKL is                                52
 max L of basis functions is                  2
 order of int derivative is                   0
 number of shells is                        192
 number of basis is                         517
 number of cartesian basis is               517
 number of contracted shell pairs         15013
 number of primitive shell pairs          32918
 maxK2 (contraction) of shell pair           36
 max number of K2 of shell pair               1
 max number of CS2 of shell pair           2862
 max number of PS2 of shell pair           4848
 mem total for path MDJ                  181368
 -------------------------------------------------------
 Smallest overlap matrix eigenvalue = 4.04E-07

 Q-Chem warning in module /fs/scratch/osu6415/qchem-kaunlao-vdw/stvman/mkSTV.C, line 281:

 Overlap eigenvalue is smaller than square root of threshold

 Linear dependence detected in AO basis
 Number of orthogonalized atomic orbitals = 499
 Maximum deviation from orthogonality = 1.670E-10

 Scale SEOQF with 1.000000e-01/1.000000e-01/1.000000e-01

 Standard Electronic Orientation quadrupole field applied
 Nucleus-field energy     =     0.0000000336 hartrees
 Guess from superposition of atomic densities
 Warning:  Energy on first SCF cycle will be non-variational
 A restricted hybrid HF-DFT SCF calculation will be
 performed using Pulay DIIS extrapolation
 Exchange:     0.2000 Hartree-Fock + 0.0800 Slater + 0.7200 B88
 Correlation:  0.1900 VWN1RPA + 0.8100 LYP
 Using SG-1 standard quadrature grid
 Dispersion:   Grimme D3
 SCF converges when DIIS error is below 1.0E-08
 using 20 threads for integral computing
 -------------------------------------------------------
 OpenMP Integral computing Module                
 Release: version 1.0, May 2013, Q-Chem Inc. Pittsburgh 
 -------------------------------------------------------
 -------------------------------------------------------
 OpenMP BLAS3 based DFT computing Module                
 Release: version 1.0, May 2013, Q-Chem Inc. Pittsburgh 
 -------------------------------------------------------
 ---------------------------------------
  Cycle       Energy         DIIS Error
 ---------------------------------------
    1    -847.9407960287      2.82E-02
    2    -844.1553097032      3.75E-03
    3    -843.5627104962      6.33E-03
    4    -844.4585303188      1.63E-03
    5    -844.5223911013      3.69E-04
    6    -844.5246642944      1.75E-04
    7    -844.5253546530      3.28E-05
    8    -844.5253782263      1.07E-05
    9    -844.5253812249      2.22E-06
   10    -844.5253813384      8.68E-07
   11    -844.5253813537      3.83E-07
   12    -844.5253813564      1.19E-07
   13    -844.5253813562      4.44E-08
   14    -844.5253813563      1.51E-08
   15    -844.5253813621      4.15E-09 Convergence criterion met
 ---------------------------------------
 SCF time:  CPU 1159.77 s  wall 60.40 s
 SCF   energy in the final basis set = -844.52538136
 Total energy in the final basis set = -844.52538136
 
 --------------------------------------------------------------
 
                    Orbital Energies (a.u.)
 --------------------------------------------------------------
 
 Alpha MOs
 -- Occupied --
-19.175 -19.173 -19.122 -19.118 -19.115 -10.307 -10.304 -10.238
-10.237 -10.231 -10.229 -10.205 -10.205 -10.176 -10.175 -10.160
-10.160  -1.117  -1.112  -1.057  -1.029  -1.027  -0.831  -0.801
 -0.782  -0.749  -0.728  -0.720  -0.670  -0.641  -0.604  -0.581
 -0.559  -0.556  -0.527  -0.510  -0.501  -0.493  -0.483  -0.480
 -0.477  -0.472  -0.457  -0.438  -0.433  -0.426  -0.422  -0.410
 -0.406  -0.394  -0.392  -0.373  -0.370  -0.367  -0.360  -0.352
 -0.351  -0.346  -0.331  -0.323  -0.321  -0.308  -0.290  -0.275
 -0.267
 -- Virtual --
 -0.018  -0.012  -0.009  -0.004   0.002   0.008   0.012   0.018
  0.024   0.030   0.036   0.038   0.040   0.043   0.046   0.049
  0.061   0.064   0.070   0.072   0.074   0.081   0.087   0.089
  0.091   0.099   0.100   0.107   0.109   0.111   0.112   0.118
  0.119   0.121   0.126   0.130   0.130   0.134   0.137   0.139
  0.142   0.146   0.148   0.149   0.154   0.155   0.156   0.160
  0.162   0.164   0.167   0.171   0.174   0.175   0.176   0.181
  0.183   0.188   0.192   0.194   0.200   0.202   0.204   0.205
  0.209   0.216   0.217   0.221   0.224   0.228   0.236   0.237
  0.239   0.247   0.254   0.255   0.258   0.269   0.275   0.276
  0.282   0.285   0.289   0.298   0.301   0.306   0.308   0.312
  0.314   0.320   0.323   0.329   0.333   0.340   0.342   0.346
  0.347   0.353   0.356   0.358   0.364   0.367   0.368   0.374
  0.379   0.390   0.391   0.394   0.400   0.411   0.414   0.415
  0.426   0.440   0.441   0.449   0.455   0.460   0.469   0.478
  0.483   0.493   0.502   0.503   0.516   0.527   0.533   0.536
  0.555   0.557   0.564   0.575   0.583   0.586   0.595   0.605
  0.607   0.610   0.623   0.624   0.637   0.643   0.652   0.654
  0.654   0.664   0.673   0.675   0.682   0.685   0.693   0.697
  0.702   0.712   0.719   0.727   0.730   0.740   0.742   0.747
  0.750   0.758   0.762   0.771   0.780   0.788   0.793   0.800
  0.816   0.822   0.833   0.848   0.855   0.874   0.900   0.919
  0.920   0.924   0.979   0.990   1.007   1.020   1.029   1.041
  1.053   1.062   1.092   1.098   1.106   1.114   1.141   1.160
  1.172   1.183   1.184   1.209   1.217   1.224   1.240   1.251
  1.271   1.276   1.279   1.289   1.307   1.314   1.325   1.332
  1.336   1.343   1.362   1.377   1.384   1.406   1.411   1.435
  1.438   1.456   1.469   1.479   1.482   1.494   1.499   1.504
  1.509   1.530   1.541   1.554   1.557   1.564   1.570   1.574
  1.580   1.593   1.597   1.609   1.613   1.625   1.636   1.646
  1.653   1.665   1.670   1.686   1.700   1.703   1.708   1.711
  1.719   1.726   1.729   1.731   1.747   1.754   1.767   1.770
  1.785   1.797   1.811   1.818   1.834   1.838   1.857   1.864
  1.868   1.879   1.889   1.920   1.935   1.952   1.969   1.979
  1.987   2.004   2.014   2.020   2.044   2.049   2.061   2.068
  2.092   2.108   2.117   2.127   2.130   2.134   2.166   2.180
  2.181   2.197   2.212   2.230   2.235   2.248   2.270   2.294
  2.314   2.382   2.385   2.401   2.435   2.443   2.460   2.471
  2.482   2.493   2.495   2.502   2.510   2.510   2.526   2.535
  2.539   2.552   2.567   2.572   2.581   2.584   2.591   2.600
  2.614   2.644   2.663   2.667   2.673   2.681   2.685   2.729
  2.739   2.752   2.774   2.794   2.799   2.820   2.833   2.854
  2.860   2.878   2.888   2.892   2.898   2.911   2.946   2.966
  2.993   3.018   3.022   3.035   3.036   3.041   3.056   3.070
  3.080   3.096   3.101   3.115   3.131   3.137   3.166   3.178
  3.200   3.219   3.235   3.252   3.266   3.320   3.336   3.351
  3.367   3.394   3.402   3.433   3.548   3.599   3.612   3.661
  3.674   3.689   3.764   3.775   3.781   3.822   3.827   3.831
  3.849   3.850   3.865   3.962   3.982   4.051   4.076   4.105
  4.119   4.140   4.158   4.162   4.176   4.216   4.296   4.308
  4.449   4.495   5.055   5.077   5.147   5.165   5.217   5.290
  5.303   5.399   5.432   5.516   5.623   5.650   5.700   5.885
  5.902  23.760  23.839  23.860  23.889  23.896  23.930  23.942
 23.955  23.961  23.991  24.002  24.046  49.899  49.943  49.999
 50.036  50.084
 --------------------------------------------------------------
 
          Ground-State Mulliken Net Atomic Charges

     Atom                 Charge (a.u.)
  ----------------------------------------
      1 C                     0.342844
      2 C                     0.500973
      3 C                    -0.899744
      4 C                    -0.831666
      5 O                     0.046910
      6 O                    -0.150082
      7 O                     0.041078
      8 O                    -0.138413
      9 C                    -0.184740
     10 C                    -0.225560
     11 C                    -0.465887
     12 C                    -0.340219
     13 C                    -0.426172
     14 C                    -0.639942
     15 O                     0.025013
     16 H                     0.296110
     17 H                     0.295394
     18 H                     0.173723
     19 H                     0.205021
     20 H                     0.174705
     21 H                     0.137588
     22 H                     0.173508
     23 H                     0.139471
     24 H                     0.157896
     25 H                     0.166200
     26 H                     0.171607
     27 H                     0.153991
     28 C                     0.061825
     29 H                     0.163986
     30 H                     0.146566
     31 H                     0.208924
     32 C                     0.017261
     33 H                     0.156760
     34 H                     0.201525
     35 H                     0.143545
  ----------------------------------------
  Sum of atomic charges =    -0.000000

 -----------------------------------------------------------------
                    Cartesian Multipole Moments
 -----------------------------------------------------------------
    Charge (ESU x 10^10)
                -0.0000
    Dipole Moment (Debye)
         X      -1.0160      Y      -0.3145      Z       4.0601
       Tot       4.1971
    Quadrupole Moments (Debye-Ang)
        XX     -87.7422     XY      -0.1545     YY     -95.8623
        XZ       0.9461     YZ       0.4780     ZZ    -110.9338
    Octopole Moments (Debye-Ang^2)
       XXX     -70.5290    XXY      -0.4825    XYY     -18.4633
       YYY      -3.5134    XXZ       3.0928    XYZ       4.7120
       YYZ       3.1671    XZZ      -1.4138    YZZ      -2.6172
       ZZZ       5.9727
    Hexadecapole Moments (Debye-Ang^3)
      XXXX   -2391.0852   XXXY     -19.3967   XXYY    -644.7091
      XYYY     -19.5281   YYYY   -1696.6462   XXXZ     -30.0107
      XXYZ      -4.3340   XYYZ     -17.0257   YYYZ      27.7329
      XXZZ    -543.2873   XYZZ      -7.8692   YYZZ    -396.4145
      XZZZ     -14.6715   YZZZ      32.7719   ZZZZ    -548.5709
 -----------------------------------------------------------------
 Calculating analytic gradient of the SCF energy
 Gradient of SCF Energy
            1           2           3           4           5           6
    1  -0.0019792   0.0017137   0.0014176  -0.0010156   0.0000138  -0.0007564
    2  -0.0008352  -0.0007585   0.0028527   0.0019748   0.0001026  -0.0019832
    3   0.0022119  -0.0023583   0.0002269   0.0001934  -0.0000058  -0.0004167
            7           8           9          10          11          12
    1  -0.0000363   0.0005943   0.0000507  -0.0000012  -0.0000690   0.0000208
    2   0.0000271  -0.0013425  -0.0000266  -0.0000697   0.0000115   0.0000811
    3  -0.0000410   0.0001224   0.0000060   0.0000185   0.0000548  -0.0000094
           13          14          15          16          17          18
    1  -0.0000061  -0.0000551   0.0000689   0.0000338   0.0000100   0.0000127
    2  -0.0000562   0.0000337  -0.0000002  -0.0000467   0.0000050  -0.0000050
    3  -0.0000154   0.0000318  -0.0000505   0.0000139  -0.0000130  -0.0000305
           19          20          21          22          23          24
    1   0.0000089  -0.0000140  -0.0000078  -0.0000018   0.0000207   0.0000125
    2   0.0000114   0.0000185  -0.0000176   0.0000083   0.0000152  -0.0000353
    3  -0.0000118   0.0000242   0.0000127   0.0000034   0.0000060  -0.0000151
           25          26          27          28          29          30
    1  -0.0000014  -0.0000244  -0.0000170   0.0000089   0.0000032   0.0000304
    2  -0.0000139   0.0000002  -0.0000439  -0.0000379   0.0000433   0.0000205
    3  -0.0000029   0.0000377   0.0000008   0.0000226  -0.0000399  -0.0000127
           31          32          33          34          35
    1   0.0000152  -0.0000217  -0.0000144   0.0000035  -0.0000185
    2   0.0000184   0.0000377   0.0000093   0.0000040  -0.0000026
    3  -0.0000134   0.0000399  -0.0000002  -0.0000027   0.0000123
 Max gradient component =       2.853E-03
 RMS gradient           =       6.224E-04
 Gradient time:  CPU 395.04 s  wall 28.21 s
 Geometry Optimization Parameters
   NAtoms,    NIC,     NZ,  NCons,   NDum,   NFix, NCnnct, MaxDiis
       35     275       0       0       0       0       0       0


** GEOMETRY OPTIMIZATION IN DELOCALIZED INTERNAL COORDINATES **
   Searching for a Minimum

   Optimization Cycle:   1

                       Coordinates (Angstroms)
     ATOM                X               Y               Z
      1  C         0.2905321000    0.8221686600    0.6209379800
      2  C         0.2560921600   -0.7584626300    0.6002189000
      3  C        -0.8331881800    1.4456740400   -0.1899642500
      4  C        -0.9977574600   -1.3296030400   -0.0301429900
      5  O        -1.9215872300    1.6141598100    0.6040314700
      6  O        -0.8268717800    1.7193323700   -1.3605352300
      7  O        -1.8923874200   -1.6546619800    0.9343589900
      8  O        -1.2112234500   -1.4890750500   -1.2050404400
      9  C        -3.1593045600   -2.1556995800    0.4727096600
     10  C        -3.1094691900    2.0921292800   -0.0537429400
     11  C         1.7195100800    1.0862576200    0.0500223000
     12  C         2.7373731700    0.6277678800    1.1359497600
     13  C         2.7150377300   -0.9124334200    0.9680380900
     14  C         1.6157444300   -1.0900883900   -0.1114173000
     15  O         1.8381033500    0.0572254000   -0.9448871700
     16  H         0.1884520900    1.1804189200    1.6450625300
     17  H         0.2693190200   -1.1199899600    1.6276979100
     18  H        -3.0232833200   -3.0743868800   -0.1002128600
     19  H        -3.3672485900    1.4436706200   -0.8926088300
     20  H         3.7228368400    1.0404560600    0.9142896000
     21  H         2.4538314800    0.9631801100    2.1361600400
     22  H         3.6639844800   -1.2823387600    0.5753912300
     23  H         2.4969570200   -1.4549660600    1.8902400600
     24  H        -3.7409722500   -2.3472539500    1.3717437200
     25  H        -3.6565511600   -1.4146339200   -0.1555176500
     26  H        -2.9602164300    3.1082909900   -0.4226465300
     27  H        -3.8889778500    2.0731935500    0.7050250500
     28  C         1.6945334500   -2.3691707500   -0.9147187300
     29  H         2.7007943800   -2.4817915300   -1.3242791800
     30  H         1.4866730000   -3.2316015300   -0.2743127200
     31  H         0.9765032900   -2.3585013800   -1.7330181300
     32  C         1.9977839200    2.4552033900   -0.5331378500
     33  H         3.0364698000    2.5054901300   -0.8670976000
     34  H         1.3444474200    2.6632808200   -1.3779736600
     35  H         1.8475175700    3.2249775700    0.2300052300
   Point Group: c1    Number of degrees of freedom:    99


   Energy is   -844.525381362


 Attempting to Generate Delocalized Internal Coordinates

 99 Hessian modes will be used to form the next step
  Hessian Eigenvalues:
     0.002941    0.006591    0.007040    0.007174    0.007356    0.007530
     0.010023    0.010419    0.010520    0.010555    0.021237    0.021585
     0.023227    0.026040    0.035736    0.036542    0.038358    0.040277
     0.043828    0.046999    0.048885    0.050035    0.053655    0.055957
     0.057495    0.058040    0.058449    0.059976    0.060036    0.062949
     0.065400    0.066018    0.079648    0.084588    0.094386    0.099517
     0.101138    0.101215    0.105826    0.105846    0.110833    0.121009
     0.124231    0.150397    0.160000    0.160000    0.160000    0.160000
     0.160000    0.160000    0.160000    0.160000    0.160000    0.160000
     0.160000    0.160000    0.176578    0.229934    0.231600    0.249838
     0.250000    0.250000    0.250000    0.250000    0.250000    0.252027
     0.252469    0.263117    0.273522    0.304088    0.308380    0.309738
     0.311040    0.337172    0.343190    0.343401    0.345378    0.345553
     0.345583    0.345881    0.346331    0.346519    0.346541    0.346620
     0.346738    0.346782    0.346814    0.348394    0.348928    0.349618
     0.350368    0.350460    0.350690    0.396529    0.397940    0.534091
     0.539509    1.024801    1.037500

 Minimum Search - Taking Simple RFO Step
 Searching for Lamda that Minimizes Along All modes
 Value Taken    Lamda =  -0.00079724
 Calculated Step too Large.  Step scaled by  0.998272
 Step Taken.  Stepsize is  0.300000

                             Maximum     Tolerance    Cnvgd?
         Gradient           0.001642      0.000001      NO
         Displacement       0.184389      0.000001      NO
         Energy change     *********      0.000000      NO


 New Cartesian Coordinates Obtained by Inverse Iteration

 Displacement from previous Coordinates is:  0.387430
 Adding empirical dispersion correction 
 ----------------------------------------------------------------
 Doing -D3(op) with
 s6 =   1.00000
 s8 =   0.78311
 a1 =   0.30000
 a2 =   4.25000
 n  =  10.00000
 -D3 energy without 3body term =     -0.0412738705 hartrees
 ----------------------------------------------------------------
             Standard Nuclear Orientation (Angstroms)
    I     Atom           X                Y                Z
 ----------------------------------------------------------------
    1      C       0.2918848433     0.8192540665     0.6134060251
    2      C       0.2558321051    -0.7611536148     0.6053416131
    3      C      -0.8356662849     1.4388403663    -0.1952587920
    4      C      -0.9958189717    -1.3350215382    -0.0269695123
    5      O      -1.9384189675     1.5582539525     0.5877771601
    6      O      -0.7939583907     1.8261985414    -1.3325499557
    7      O      -1.8797403769    -1.6871305253     0.9379271098
    8      O      -1.2389307271    -1.4226328160    -1.2036899338
    9      C      -3.1579918961    -2.1590092174     0.4766680891
   10      C      -3.1136379271     2.0793926551    -0.0599550177
   11      C       1.7204561554     1.0834734963     0.0431784740
   12      C       2.7381092677     0.6307970990     1.1317076225
   13      C       2.7155329609    -0.9102523824     0.9723336862
   14      C       1.6161278287    -1.0939366891    -0.1060188400
   15      O       1.8386989797     0.0490000014    -0.9458227903
   16      H       0.1868089209     1.1783225621     1.6369559954
   17      H       0.2701293250    -1.1204179900     1.6336172987
   18      H      -3.0393217208    -3.0583427038    -0.1298377518
   19      H      -3.3590564807     1.4832515878    -0.9403217415
   20      H       3.7236697347     1.0420073449     0.9076787394
   21      H       2.4546257361     0.9719719488     2.1299833131
   22      H       3.6644440679    -1.2823038258     0.5816038136
   23      H       2.4974457337    -1.4478228040     1.8974351784
   24      H      -3.7294041872    -2.3761898030     1.3764521606
   25      H      -3.6558999627    -1.3914143471    -0.1182969511
   26      H      -2.9552215911     3.1152066169    -0.3648140004
   27      H      -3.9059184304     2.0181165815     0.6831845114
   28      C       1.6958905726    -2.3770288163    -0.9027829018
   29      H       2.7025538546    -2.4916467914    -1.3107990503
   30      H       1.4876486101    -3.2362499895    -0.2581722093
   31      H       0.9784942374    -2.3707630485    -1.7216835946
   32      C       1.9975055651     2.4497471105    -0.5467857646
   33      H       3.0362078468     2.4994798271    -0.8807713162
   34      H       1.3439849934     2.6530741472    -1.3926300128
   35      H       1.8463924859     3.2231474074     0.2125378057
 ----------------------------------------------------------------
 Nuclear Repulsion Energy =  1396.6695509123 hartrees
 There are       65 alpha and       65 beta electrons
 Applying Cartesian multipole field
    Component          Value
    ---------          -----
     (2,0,0)        1.00000E-11
     (0,2,0)        2.00000E-11
     (0,0,2)       -3.00000E-11
 Nucleus-field energy     =     0.0000000338 hartrees
 Requested basis set is 6-311++G(d,p)
 There are 192 shells and 500 basis functions
 A cutoff of  1.0D-11 yielded  15013 shell pairs
 There are    103840 function pairs (    110697 Cartesian)
 Smallest overlap matrix eigenvalue = 4.11E-07

 Q-Chem warning in module /fs/scratch/osu6415/qchem-kaunlao-vdw/stvman/mkSTV.C, line 281:

 Overlap eigenvalue is smaller than square root of threshold

 Linear dependence detected in AO basis
 Number of orthogonalized atomic orbitals = 499
 Maximum deviation from orthogonality = 1.066E-10
 Guess MOs from SCF MO coefficient file
 Reading MOs from coefficient file
 Reading MOs from coefficient file
 A restricted hybrid HF-DFT SCF calculation will be
 performed using Pulay DIIS extrapolation
 Exchange:     0.2000 Hartree-Fock + 0.0800 Slater + 0.7200 B88
 Correlation:  0.1900 VWN1RPA + 0.8100 LYP
 Using SG-1 standard quadrature grid
 Dispersion:   Grimme D3
 SCF converges when DIIS error is below 1.0E-08
 Geometry optimization detected.  Setting ReadMinima to 0
 Setting SaveMinima to 0
 using 20 threads for integral computing
 -------------------------------------------------------
 OpenMP Integral computing Module                
 Release: version 1.0, May 2013, Q-Chem Inc. Pittsburgh 
 -------------------------------------------------------
 -------------------------------------------------------
 OpenMP BLAS3 based DFT computing Module                
 Release: version 1.0, May 2013, Q-Chem Inc. Pittsburgh 
 -------------------------------------------------------
 ---------------------------------------
  Cycle       Energy         DIIS Error
 ---------------------------------------
    1    -844.5010014463      1.01E-03
    2    -844.5250677835      1.15E-04
    3    -844.5248495200      1.69E-04
    4    -844.5255068441      4.85E-05
    5    -844.5255564581      1.44E-05
    6    -844.5255612706      4.20E-06
    7    -844.5255616450      2.09E-06
    8    -844.5255617429      4.93E-07
    9    -844.5255617490      1.25E-07
   10    -844.5255617499      7.30E-08
   11    -844.5255617494      2.09E-08
   12    -844.5255617448      6.10E-09 Convergence criterion met
 ---------------------------------------
 SCF time:  CPU 949.90 s  wall 49.39 s
 SCF   energy in the final basis set = -844.52556174
 Total energy in the final basis set = -844.52556174
 
 --------------------------------------------------------------
 
                    Orbital Energies (a.u.)
 --------------------------------------------------------------
 
 Alpha MOs
 -- Occupied --
-19.175 -19.173 -19.122 -19.118 -19.115 -10.307 -10.305 -10.238
-10.237 -10.231 -10.229 -10.206 -10.205 -10.176 -10.175 -10.161
-10.158  -1.117  -1.112  -1.058  -1.030  -1.027  -0.831  -0.801
 -0.782  -0.749  -0.728  -0.719  -0.670  -0.641  -0.604  -0.581
 -0.560  -0.555  -0.527  -0.510  -0.501  -0.493  -0.484  -0.480
 -0.477  -0.472  -0.457  -0.438  -0.433  -0.426  -0.422  -0.410
 -0.406  -0.395  -0.391  -0.373  -0.371  -0.367  -0.359  -0.352
 -0.351  -0.346  -0.331  -0.323  -0.320  -0.309  -0.290  -0.275
 -0.268
 -- Virtual --
 -0.018  -0.014  -0.008  -0.003   0.001   0.008   0.012   0.018
  0.024   0.031   0.036   0.038   0.040   0.043   0.047   0.049
  0.061   0.064   0.069   0.072   0.074   0.080   0.086   0.089
  0.092   0.099   0.100   0.107   0.108   0.111   0.112   0.118
  0.119   0.121   0.126   0.130   0.131   0.134   0.137   0.139
  0.142   0.146   0.148   0.149   0.154   0.156   0.156   0.160
  0.161   0.164   0.168   0.171   0.173   0.176   0.176   0.181
  0.183   0.188   0.191   0.194   0.201   0.202   0.203   0.204
  0.209   0.216   0.218   0.221   0.223   0.227   0.236   0.237
  0.239   0.248   0.254   0.255   0.260   0.268   0.273   0.276
  0.281   0.286   0.289   0.299   0.303   0.305   0.309   0.311
  0.314   0.320   0.323   0.329   0.333   0.340   0.342   0.345
  0.347   0.353   0.355   0.359   0.362   0.366   0.368   0.374
  0.379   0.389   0.390   0.394   0.399   0.409   0.413   0.414
  0.426   0.439   0.440   0.448   0.455   0.459   0.470   0.479
  0.483   0.492   0.501   0.504   0.517   0.527   0.531   0.537
  0.553   0.559   0.566   0.575   0.582   0.585   0.595   0.605
  0.607   0.609   0.622   0.625   0.637   0.642   0.650   0.653
  0.654   0.666   0.671   0.677   0.681   0.687   0.693   0.700
  0.702   0.712   0.717   0.727   0.730   0.737   0.741   0.747
  0.748   0.758   0.763   0.773   0.783   0.788   0.793   0.800
  0.814   0.823   0.834   0.845   0.854   0.878   0.900   0.920
  0.923   0.926   0.974   0.988   0.997   1.016   1.031   1.043
  1.051   1.064   1.088   1.097   1.103   1.118   1.136   1.162
  1.173   1.181   1.188   1.212   1.216   1.225   1.241   1.256
  1.266   1.274   1.283   1.289   1.302   1.316   1.323   1.328
  1.338   1.348   1.362   1.374   1.386   1.400   1.418   1.435
  1.438   1.457   1.471   1.473   1.484   1.494   1.500   1.502
  1.509   1.530   1.542   1.552   1.557   1.563   1.570   1.575
  1.578   1.591   1.598   1.609   1.614   1.622   1.633   1.647
  1.656   1.665   1.672   1.685   1.700   1.702   1.706   1.712
  1.719   1.725   1.730   1.732   1.750   1.751   1.767   1.768
  1.784   1.798   1.812   1.818   1.832   1.841   1.855   1.861
  1.870   1.880   1.893   1.920   1.939   1.952   1.968   1.983
  1.990   2.005   2.016   2.020   2.041   2.051   2.058   2.071
  2.095   2.100   2.114   2.129   2.132   2.135   2.164   2.180
  2.184   2.197   2.210   2.230   2.238   2.245   2.270   2.294
  2.315   2.381   2.384   2.400   2.435   2.444   2.459   2.466
  2.482   2.492   2.497   2.502   2.509   2.512   2.526   2.536
  2.540   2.551   2.570   2.574   2.581   2.583   2.591   2.600
  2.614   2.643   2.663   2.667   2.673   2.680   2.688   2.728
  2.739   2.755   2.774   2.789   2.798   2.819   2.835   2.852
  2.859   2.881   2.887   2.892   2.899   2.910   2.947   2.965
  2.991   3.017   3.022   3.036   3.037   3.043   3.055   3.070
  3.079   3.097   3.101   3.117   3.130   3.136   3.164   3.177
  3.200   3.214   3.237   3.253   3.274   3.321   3.330   3.352
  3.369   3.398   3.406   3.429   3.549   3.600   3.611   3.665
  3.673   3.689   3.751   3.773   3.784   3.822   3.828   3.832
  3.848   3.851   3.865   3.962   3.983   4.050   4.076   4.108
  4.122   4.139   4.157   4.160   4.176   4.216   4.297   4.307
  4.449   4.496   5.054   5.072   5.143   5.178   5.215   5.289
  5.311   5.401   5.429   5.516   5.624   5.648   5.699   5.885
  5.900  23.761  23.839  23.859  23.890  23.896  23.930  23.941
 23.955  23.961  23.991  24.001  24.046  49.902  49.938  49.999
 50.041  50.079
 --------------------------------------------------------------
 
          Ground-State Mulliken Net Atomic Charges

     Atom                 Charge (a.u.)
  ----------------------------------------
      1 C                     0.332115
      2 C                     0.519909
      3 C                    -0.901387
      4 C                    -0.829179
      5 O                     0.031531
      6 O                    -0.151454
      7 O                     0.046638
      8 O                    -0.141268
      9 C                    -0.179880
     10 C                    -0.232385
     11 C                    -0.467115
     12 C                    -0.332773
     13 C                    -0.431930
     14 C                    -0.622816
     15 O                     0.024610
     16 H                     0.297769
     17 H                     0.294191
     18 H                     0.173180
     19 H                     0.206400
     20 H                     0.175939
     21 H                     0.137363
     22 H                     0.172773
     23 H                     0.139002
     24 H                     0.158699
     25 H                     0.165891
     26 H                     0.171984
     27 H                     0.151367
     28 C                     0.066431
     29 H                     0.166672
     30 H                     0.146647
     31 H                     0.206962
     32 C                     0.004251
     33 H                     0.152921
     34 H                     0.203250
     35 H                     0.143693
  ----------------------------------------
  Sum of atomic charges =    -0.000000

 -----------------------------------------------------------------
                    Cartesian Multipole Moments
 -----------------------------------------------------------------
    Charge (ESU x 10^10)
                -0.0000
    Dipole Moment (Debye)
         X      -1.0388      Y      -0.4874      Z       4.0405
       Tot       4.2002
    Quadrupole Moments (Debye-Ang)
        XX     -87.8065     XY      -0.2221     YY     -96.1627
        XZ       0.9687     YZ       0.9986     ZZ    -110.7217
    Octopole Moments (Debye-Ang^2)
       XXX     -70.6093    XXY      -0.7965    XYY     -18.5843
       YYY      -5.9814    XXZ       3.1234    XYZ       4.4160
       YYZ       3.7018    XZZ      -1.7305    YZZ      -2.8234
       ZZZ       5.5717
    Hexadecapole Moments (Debye-Ang^3)
      XXXX   -2393.9895   XXXY     -20.9348   XXYY    -645.6398
      XYYY     -19.8419   YYYY   -1702.6036   XXXZ     -29.7827
      XXYZ      -2.4537   XYYZ     -17.3378   YYYZ      40.1149
      XXZZ    -542.9388   XYZZ      -8.0611   YYZZ    -396.5743
      XZZZ     -13.8828   YZZZ      39.4420   ZZZZ    -544.5523
 -----------------------------------------------------------------
 Calculating analytic gradient of the SCF energy
 Gradient of SCF Energy
            1           2           3           4           5           6
    1   0.0000703  -0.0003554  -0.0021681   0.0023593   0.0007495   0.0017998
    2   0.0027098   0.0014382  -0.0077343  -0.0054818   0.0030901   0.0024357
    3   0.0023440  -0.0017854  -0.0023045  -0.0012269   0.0010839   0.0006667
            7           8           9          10          11          12
    1  -0.0010989  -0.0011019   0.0000009   0.0000819   0.0005365   0.0000938
    2   0.0023203   0.0012534   0.0000837  -0.0000216  -0.0000912   0.0001211
    3   0.0002461   0.0009545  -0.0000021   0.0002243   0.0001149   0.0000103
           13          14          15          16          17          18
    1  -0.0001119  -0.0005222   0.0002759   0.0002192  -0.0001090   0.0000741
    2   0.0000296   0.0002137   0.0004182  -0.0005695  -0.0000898   0.0000091
    3   0.0000374  -0.0003707   0.0002328   0.0000674   0.0000993  -0.0000515
           19          20          21          22          23          24
    1   0.0001236   0.0000430   0.0000018  -0.0000473   0.0000175  -0.0000142
    2   0.0000785  -0.0000129  -0.0000018  -0.0000059   0.0000140   0.0000015
    3  -0.0001090   0.0000257  -0.0000044  -0.0000236   0.0000258  -0.0000150
           25          26          27          28          29          30
    1  -0.0001077  -0.0001469  -0.0000029   0.0002362   0.0001444   0.0000009
    2  -0.0000972   0.0000141  -0.0000153  -0.0000984   0.0000861   0.0000173
    3  -0.0000358  -0.0000042   0.0000018  -0.0003001   0.0001340  -0.0000398
           31          32          33          34          35
    1   0.0002094  -0.0006185  -0.0002277  -0.0004315   0.0000264
    2  -0.0000351  -0.0002163   0.0001299  -0.0000081   0.0000148
    3   0.0002590   0.0004826  -0.0002528  -0.0005174   0.0000327
 Max gradient component =       7.734E-03
 RMS gradient           =       1.233E-03
 Gradient time:  CPU 397.85 s  wall 27.41 s
 Geometry Optimization Parameters
   NAtoms,    NIC,     NZ,  NCons,   NDum,   NFix, NCnnct, MaxDiis
       35     275       0       0       0       0       0       0

 Cartesian Hessian Update
 Hessian Updated using BFGS Update


** GEOMETRY OPTIMIZATION IN DELOCALIZED INTERNAL COORDINATES **
   Searching for a Minimum

   Optimization Cycle:   2

                       Coordinates (Angstroms)
     ATOM                X               Y               Z
      1  C         0.2918848433    0.8192540665    0.6134060251
      2  C         0.2558321051   -0.7611536148    0.6053416131
      3  C        -0.8356662849    1.4388403663   -0.1952587920
      4  C        -0.9958189717   -1.3350215382   -0.0269695123
      5  O        -1.9384189675    1.5582539525    0.5877771601
      6  O        -0.7939583907    1.8261985414   -1.3325499557
      7  O        -1.8797403769   -1.6871305253    0.9379271098
      8  O        -1.2389307271   -1.4226328160   -1.2036899338
      9  C        -3.1579918961   -2.1590092174    0.4766680891
     10  C        -3.1136379271    2.0793926551   -0.0599550177
     11  C         1.7204561554    1.0834734963    0.0431784740
     12  C         2.7381092677    0.6307970990    1.1317076225
     13  C         2.7155329609   -0.9102523824    0.9723336862
     14  C         1.6161278287   -1.0939366891   -0.1060188400
     15  O         1.8386989797    0.0490000014   -0.9458227903
     16  H         0.1868089209    1.1783225621    1.6369559954
     17  H         0.2701293250   -1.1204179900    1.6336172987
     18  H        -3.0393217208   -3.0583427038   -0.1298377518
     19  H        -3.3590564807    1.4832515878   -0.9403217415
     20  H         3.7236697347    1.0420073449    0.9076787394
     21  H         2.4546257361    0.9719719488    2.1299833131
     22  H         3.6644440679   -1.2823038258    0.5816038136
     23  H         2.4974457337   -1.4478228040    1.8974351784
     24  H        -3.7294041872   -2.3761898030    1.3764521606
     25  H        -3.6558999627   -1.3914143471   -0.1182969511
     26  H        -2.9552215911    3.1152066169   -0.3648140004
     27  H        -3.9059184304    2.0181165815    0.6831845114
     28  C         1.6958905726   -2.3770288163   -0.9027829018
     29  H         2.7025538546   -2.4916467914   -1.3107990503
     30  H         1.4876486101   -3.2362499895   -0.2581722093
     31  H         0.9784942374   -2.3707630485   -1.7216835946
     32  C         1.9975055651    2.4497471105   -0.5467857646
     33  H         3.0362078468    2.4994798271   -0.8807713162
     34  H         1.3439849934    2.6530741472   -1.3926300128
     35  H         1.8463924859    3.2231474074    0.2125378057
   Point Group: c1    Number of degrees of freedom:    99


   Energy is   -844.525561745

 Hessian Updated using BFGS Update

 86 Hessian modes will be used to form the next step
  Hessian Eigenvalues:
     0.002185    0.002989    0.006984    0.007040    0.007357    0.007530
     0.010363    0.010409    0.010554    0.021213    0.021584    0.023216
     0.025861    0.035237    0.035790    0.038316    0.039514    0.043778
     0.045164    0.047400    0.048803    0.051599    0.054049    0.056071
     0.057478    0.058040    0.058449    0.059984    0.060132    0.064965
     0.065721    0.067403    0.082356    0.085240    0.094921    0.099558
     0.101139    0.101233    0.105827    0.105849    0.110832    0.121341
     0.124587    0.151576    0.159999    0.160541    0.176375    0.229911
     0.234993    0.249920    0.249999    0.252008    0.252389    0.256878
     0.263458    0.273522    0.304955    0.309001    0.309853    0.311042
     0.337396    0.343190    0.343401    0.345378    0.345555    0.345599
     0.345882    0.346331    0.346524    0.346541    0.346620    0.346738
     0.346782    0.346815    0.348411    0.348942    0.349694    0.350460
     0.350690    0.350929    0.396530    0.397949    0.534160    0.539602
     1.025292    1.037562

 Minimum Search - Taking Simple RFO Step
 Searching for Lamda that Minimizes Along All modes
 Value Taken    Lamda =  -0.00137562
 Calculated Step too Large.  Step scaled by  0.667925
 Step Taken.  Stepsize is  0.300000

                             Maximum     Tolerance    Cnvgd?
         Gradient           0.004171      0.000001      NO
         Displacement       0.170069      0.000001      NO
         Energy change     -0.000180      0.000000      NO


 New Cartesian Coordinates Obtained by Inverse Iteration

 Displacement from previous Coordinates is:  0.773243
 Adding empirical dispersion correction 
 ----------------------------------------------------------------
 Doing -D3(op) with
 s6 =   1.00000
 s8 =   0.78311
 a1 =   0.30000
 a2 =   4.25000
 n  =  10.00000
 -D3 energy without 3body term =     -0.0414714077 hartrees
 ----------------------------------------------------------------
             Standard Nuclear Orientation (Angstroms)
    I     Atom           X                Y                Z
 ----------------------------------------------------------------
    1      C       0.3094767739     0.8558904182     0.6126834903
    2      C       0.2459093199    -0.7232641789     0.6184632258
    3      C      -0.8159467826     1.4879467582    -0.1904568738
    4      C      -1.0160397934    -1.2764307783    -0.0109037673
    5      O      -1.9502778668     1.4964898034     0.5555195822
    6      O      -0.7600074231     1.9413241468    -1.3024324210
    7      O      -1.8642168697    -1.7060536510     0.9545452748
    8      O      -1.2866487747    -1.3059721409    -1.1846888198
    9      C      -3.1452184680    -2.1776493902     0.5006636081
   10      C      -3.1293798147     1.9955584987    -0.1025989698
   11      C       1.7423515759     1.0949165421     0.0428914399
   12      C       2.7521925987     0.6218437453     1.1305040110
   13      C       2.7040733053    -0.9181796094     0.9686827437
   14      C       1.5953810113    -1.0804495512    -0.1029835078
   15      O       1.8366065750     0.0572836855    -0.9452112324
   16      H       0.2078341676     1.2178777012     1.6356524804
   17      H       0.2619542629    -1.0827850995     1.6465692918
   18      H      -3.0259457053    -3.0369912907    -0.1611769790
   19      H      -3.3153328949     1.4404371157    -1.0234234878
   20      H       3.7444701663     1.0164476653     0.9062778355
   21      H       2.4755923540     0.9663829319     2.1295618172
   22      H       3.6445565708    -1.3051708430     0.5720538558
   23      H       2.4817513876    -1.4538455634     1.8938690016
   24      H      -3.6865771242    -2.4596522661     1.4010446690
   25      H      -3.6745879272    -1.3870146171    -0.0338906558
   26      H      -3.0146547346     3.0540501626    -0.3421035724
   27      H      -3.9409914631     1.8514504374     0.6075052774
   28      C       1.6435605908    -2.3648660967    -0.9000808223
   29      H       2.6446875448    -2.5006304249    -1.3150828034
   30      H       1.4218112757    -3.2196272138    -0.2540024681
   31      H       0.9207904538    -2.3436723881    -1.7142315401
   32      C       2.0496193870     2.4552701829    -0.5461144446
   33      H       3.0901636288     2.4824420307    -0.8771583829
   34      H       1.4026889052     2.6736253199    -1.3928160587
   35      H       1.9138116971     3.2312363676     0.2134976626
 ----------------------------------------------------------------
 Nuclear Repulsion Energy =  1398.2139897909 hartrees
 There are       65 alpha and       65 beta electrons
 Applying Cartesian multipole field
    Component          Value
    ---------          -----
     (2,0,0)        1.00000E-11
     (0,2,0)        2.00000E-11
     (0,0,2)       -3.00000E-11
 Nucleus-field energy     =     0.0000000337 hartrees
 Requested basis set is 6-311++G(d,p)
 There are 192 shells and 500 basis functions
 A cutoff of  1.0D-11 yielded  15043 shell pairs
 There are    103992 function pairs (    110873 Cartesian)
 Smallest overlap matrix eigenvalue = 4.20E-07

 Q-Chem warning in module /fs/scratch/osu6415/qchem-kaunlao-vdw/stvman/mkSTV.C, line 281:

 Overlap eigenvalue is smaller than square root of threshold

 Linear dependence detected in AO basis
 Number of orthogonalized atomic orbitals = 499
 Maximum deviation from orthogonality = 2.185E-10
 Guess MOs from SCF MO coefficient file
 Reading MOs from coefficient file
 Reading MOs from coefficient file
 A restricted hybrid HF-DFT SCF calculation will be
 performed using Pulay DIIS extrapolation
 Exchange:     0.2000 Hartree-Fock + 0.0800 Slater + 0.7200 B88
 Correlation:  0.1900 VWN1RPA + 0.8100 LYP
 Using SG-1 standard quadrature grid
 Dispersion:   Grimme D3
 SCF converges when DIIS error is below 1.0E-08
 Geometry optimization detected.  Setting ReadMinima to 0
 Setting SaveMinima to 0
 using 20 threads for integral computing
 -------------------------------------------------------
 OpenMP Integral computing Module                
 Release: version 1.0, May 2013, Q-Chem Inc. Pittsburgh 
 -------------------------------------------------------
 -------------------------------------------------------
 OpenMP BLAS3 based DFT computing Module                
 Release: version 1.0, May 2013, Q-Chem Inc. Pittsburgh 
 -------------------------------------------------------
 ---------------------------------------
  Cycle       Energy         DIIS Error
 ---------------------------------------
    1    -844.5162747906      1.18E-03
    2    -844.5259185667      1.12E-04
    3    -844.5256783036      1.68E-04
    4    -844.5263375119      4.40E-05
    5    -844.5263730734      1.69E-05
    6    -844.5263796922      5.79E-06
    7    -844.5263803767      2.73E-06
    8    -844.5263805372      7.19E-07
    9    -844.5263805480      2.40E-07
   10    -844.5263805496      7.69E-08
   11    -844.5263805506      2.45E-08
   12    -844.5263805473      6.26E-09 Convergence criterion met
 ---------------------------------------
 SCF time:  CPU 958.23 s  wall 49.54 s
 SCF   energy in the final basis set = -844.52638055
 Total energy in the final basis set = -844.52638055
 
 --------------------------------------------------------------
 
                    Orbital Energies (a.u.)
 --------------------------------------------------------------
 
 Alpha MOs
 -- Occupied --
-19.175 -19.172 -19.123 -19.118 -19.115 -10.307 -10.305 -10.239
-10.237 -10.231 -10.228 -10.206 -10.205 -10.175 -10.175 -10.162
-10.157  -1.117  -1.112  -1.058  -1.030  -1.027  -0.831  -0.801
 -0.782  -0.749  -0.727  -0.719  -0.670  -0.641  -0.604  -0.581
 -0.560  -0.555  -0.527  -0.510  -0.501  -0.493  -0.485  -0.480
 -0.476  -0.473  -0.457  -0.438  -0.433  -0.425  -0.422  -0.410
 -0.405  -0.395  -0.392  -0.373  -0.371  -0.367  -0.359  -0.352
 -0.351  -0.346  -0.331  -0.323  -0.319  -0.310  -0.289  -0.275
 -0.268
 -- Virtual --
 -0.017  -0.014  -0.007  -0.001   0.001   0.009   0.013   0.018
  0.024   0.031   0.036   0.039   0.040   0.043   0.047   0.050
  0.061   0.064   0.068   0.071   0.075   0.080   0.085   0.088
  0.092   0.099   0.101   0.107   0.108   0.110   0.112   0.118
  0.119   0.121   0.126   0.130   0.131   0.134   0.138   0.140
  0.142   0.145   0.148   0.149   0.155   0.156   0.157   0.160
  0.161   0.163   0.169   0.171   0.173   0.177   0.177   0.182
  0.183   0.188   0.192   0.193   0.200   0.201   0.203   0.204
  0.210   0.216   0.218   0.221   0.223   0.226   0.235   0.236
  0.240   0.247   0.253   0.255   0.260   0.269   0.272   0.276
  0.281   0.286   0.290   0.300   0.303   0.304   0.307   0.310
  0.315   0.318   0.324   0.331   0.333   0.338   0.341   0.345
  0.347   0.350   0.355   0.360   0.364   0.366   0.370   0.374
  0.378   0.385   0.389   0.394   0.401   0.406   0.412   0.415
  0.427   0.438   0.440   0.448   0.455   0.461   0.467   0.478
  0.485   0.490   0.502   0.505   0.518   0.524   0.527   0.537
  0.551   0.561   0.570   0.574   0.581   0.585   0.597   0.605
  0.607   0.609   0.621   0.627   0.638   0.646   0.651   0.653
  0.654   0.667   0.670   0.678   0.681   0.687   0.692   0.701
  0.704   0.712   0.717   0.724   0.731   0.736   0.741   0.746
  0.748   0.758   0.765   0.776   0.784   0.789   0.796   0.799
  0.813   0.823   0.834   0.841   0.854   0.878   0.900   0.917
  0.924   0.931   0.967   0.987   0.990   1.017   1.030   1.044
  1.056   1.063   1.085   1.097   1.106   1.118   1.137   1.166
  1.175   1.182   1.191   1.209   1.214   1.226   1.244   1.256
  1.265   1.277   1.285   1.288   1.301   1.313   1.321   1.336
  1.338   1.354   1.362   1.372   1.384   1.396   1.418   1.433
  1.438   1.456   1.468   1.471   1.481   1.493   1.499   1.506
  1.514   1.529   1.541   1.548   1.558   1.563   1.569   1.575
  1.578   1.590   1.600   1.610   1.615   1.621   1.630   1.648
  1.658   1.665   1.676   1.684   1.697   1.702   1.707   1.712
  1.718   1.724   1.733   1.736   1.752   1.754   1.762   1.767
  1.782   1.799   1.811   1.823   1.829   1.845   1.853   1.863
  1.873   1.883   1.893   1.918   1.945   1.953   1.966   1.985
  1.992   2.008   2.014   2.019   2.040   2.048   2.056   2.080
  2.092   2.099   2.113   2.128   2.134   2.137   2.165   2.179
  2.187   2.199   2.207   2.229   2.239   2.247   2.268   2.296
  2.312   2.379   2.384   2.398   2.435   2.447   2.455   2.462
  2.483   2.492   2.499   2.504   2.509   2.514   2.526   2.537
  2.541   2.549   2.568   2.576   2.581   2.582   2.594   2.602
  2.618   2.641   2.664   2.669   2.670   2.680   2.691   2.724
  2.736   2.764   2.766   2.794   2.798   2.821   2.837   2.848
  2.862   2.884   2.886   2.892   2.901   2.911   2.948   2.963
  2.989   3.011   3.026   3.037   3.039   3.047   3.056   3.070
  3.075   3.099   3.101   3.122   3.130   3.136   3.163   3.178
  3.198   3.211   3.238   3.257   3.276   3.321   3.328   3.353
  3.374   3.396   3.413   3.423   3.550   3.601   3.610   3.670
  3.673   3.691   3.741   3.773   3.787   3.821   3.828   3.832
  3.847   3.850   3.865   3.962   3.984   4.046   4.078   4.108
  4.122   4.139   4.157   4.164   4.175   4.216   4.297   4.307
  4.447   4.496   5.063   5.072   5.143   5.196   5.215   5.289
  5.312   5.406   5.424   5.516   5.627   5.645   5.698   5.887
  5.900  23.762  23.841  23.858  23.889  23.898  23.932  23.939
 23.956  23.959  23.990  23.999  24.045  49.909  49.927  49.999
 50.044  50.075
 --------------------------------------------------------------
 
          Ground-State Mulliken Net Atomic Charges

     Atom                 Charge (a.u.)
  ----------------------------------------
      1 C                     0.281958
      2 C                     0.573640
      3 C                    -0.809046
      4 C                    -0.916427
      5 O                     0.015801
      6 O                    -0.161496
      7 O                     0.048240
      8 O                    -0.141958
      9 C                    -0.187393
     10 C                    -0.223084
     11 C                    -0.490474
     12 C                    -0.330641
     13 C                    -0.430723
     14 C                    -0.572874
     15 O                     0.026385
     16 H                     0.291272
     17 H                     0.297288
     18 H                     0.173797
     19 H                     0.206643
     20 H                     0.176018
     21 H                     0.138250
     22 H                     0.171818
     23 H                     0.139095
     24 H                     0.157878
     25 H                     0.163889
     26 H                     0.172516
     27 H                     0.149959
     28 C                     0.065128
     29 H                     0.169435
     30 H                     0.146631
     31 H                     0.206167
     32 C                    -0.008095
     33 H                     0.151742
     34 H                     0.203847
     35 H                     0.144818
  ----------------------------------------
  Sum of atomic charges =    -0.000000

 -----------------------------------------------------------------
                    Cartesian Multipole Moments
 -----------------------------------------------------------------
    Charge (ESU x 10^10)
                -0.0000
    Dipole Moment (Debye)
         X      -1.0224      Y      -0.7025      Z       3.9990
       Tot       4.1870
    Quadrupole Moments (Debye-Ang)
        XX     -87.8978     XY       0.0445     YY     -96.5876
        XZ       1.0158     YZ       1.5907     ZZ    -110.3784
    Octopole Moments (Debye-Ang^2)
       XXX     -70.2547    XXY      -2.5400    XYY     -18.1462
       YYY     -12.4901    XXZ       2.8279    XYZ       4.5397
       YYZ       3.9233    XZZ      -2.0456    YZZ      -4.5413
       ZZZ       4.2462
    Hexadecapole Moments (Debye-Ang^3)
      XXXX   -2400.2668   XXXY     -33.4127   XXYY    -646.0045
      XYYY     -28.8757   YYYY   -1695.7736   XXXZ     -31.0409
      XXYZ      -1.1260   XYYZ     -17.9205   YYYZ      55.9339
      XXZZ    -543.4555   XYZZ     -11.7316   YYZZ    -393.0843
      XZZZ     -14.6454   YZZZ      49.9716   ZZZZ    -540.1828
 -----------------------------------------------------------------
 Calculating analytic gradient of the SCF energy
 Gradient of SCF Energy
            1           2           3           4           5           6
    1   0.0000166   0.0000564  -0.0007761   0.0017868  -0.0001607   0.0011430
    2   0.0013489   0.0000482  -0.0037036  -0.0028123   0.0019921   0.0008207
    3   0.0007767  -0.0001545  -0.0001061  -0.0025930   0.0006859  -0.0000959
            7           8           9          10          11          12
    1  -0.0010025  -0.0009041  -0.0001491   0.0000657   0.0011888  -0.0000369
    2   0.0019303   0.0002499   0.0001055  -0.0001792  -0.0000969   0.0001948
    3   0.0008011   0.0011030   0.0001172   0.0002688  -0.0005272   0.0001555
           13          14          15          16          17          18
    1  -0.0000543  -0.0009985   0.0003371  -0.0000532   0.0000949   0.0000453
    2   0.0000032   0.0006520   0.0008723  -0.0010305  -0.0004683  -0.0000126
    3  -0.0000357  -0.0001858   0.0003581  -0.0002853   0.0003035  -0.0000395
           19          20          21          22          23          24
    1   0.0000355   0.0000290   0.0000258   0.0000023  -0.0000066  -0.0000009
    2   0.0002695  -0.0000470  -0.0000040  -0.0000243   0.0000200   0.0000133
    3  -0.0001454  -0.0000671  -0.0000059   0.0000246   0.0000272  -0.0000133
           25          26          27          28          29          30
    1  -0.0000721  -0.0001102  -0.0000435   0.0002804   0.0002011  -0.0000193
    2  -0.0001490   0.0000186  -0.0000519  -0.0001311   0.0000859   0.0000090
    3  -0.0001568  -0.0000614  -0.0000683  -0.0005104   0.0002284  -0.0000392
           31          32          33          34          35
    1   0.0001882  -0.0006453  -0.0002700  -0.0002784   0.0000845
    2   0.0000018  -0.0000989   0.0001612  -0.0000136   0.0000261
    3   0.0004185   0.0005545  -0.0002768  -0.0005401   0.0000845
 Max gradient component =       3.704E-03
 RMS gradient           =       7.338E-04
 Gradient time:  CPU 395.00 s  wall 28.24 s
 Geometry Optimization Parameters
   NAtoms,    NIC,     NZ,  NCons,   NDum,   NFix, NCnnct, MaxDiis
       35     275       0       0       0       0       0       0

 Cartesian Hessian Update
 Hessian Updated using BFGS Update


** GEOMETRY OPTIMIZATION IN DELOCALIZED INTERNAL COORDINATES **
   Searching for a Minimum

   Optimization Cycle:   3

                       Coordinates (Angstroms)
     ATOM                X               Y               Z
      1  C         0.3094767739    0.8558904182    0.6126834903
      2  C         0.2459093199   -0.7232641789    0.6184632258
      3  C        -0.8159467826    1.4879467582   -0.1904568738
      4  C        -1.0160397934   -1.2764307783   -0.0109037673
      5  O        -1.9502778668    1.4964898034    0.5555195822
      6  O        -0.7600074231    1.9413241468   -1.3024324210
      7  O        -1.8642168697   -1.7060536510    0.9545452748
      8  O        -1.2866487747   -1.3059721409   -1.1846888198
      9  C        -3.1452184680   -2.1776493902    0.5006636081
     10  C        -3.1293798147    1.9955584987   -0.1025989698
     11  C         1.7423515759    1.0949165421    0.0428914399
     12  C         2.7521925987    0.6218437453    1.1305040110
     13  C         2.7040733053   -0.9181796094    0.9686827437
     14  C         1.5953810113   -1.0804495512   -0.1029835078
     15  O         1.8366065750    0.0572836855   -0.9452112324
     16  H         0.2078341676    1.2178777012    1.6356524804
     17  H         0.2619542629   -1.0827850995    1.6465692918
     18  H        -3.0259457053   -3.0369912907   -0.1611769790
     19  H        -3.3153328949    1.4404371157   -1.0234234878
     20  H         3.7444701663    1.0164476653    0.9062778355
     21  H         2.4755923540    0.9663829319    2.1295618172
     22  H         3.6445565708   -1.3051708430    0.5720538558
     23  H         2.4817513876   -1.4538455634    1.8938690016
     24  H        -3.6865771242   -2.4596522661    1.4010446690
     25  H        -3.6745879272   -1.3870146171   -0.0338906558
     26  H        -3.0146547346    3.0540501626   -0.3421035724
     27  H        -3.9409914631    1.8514504374    0.6075052774
     28  C         1.6435605908   -2.3648660967   -0.9000808223
     29  H         2.6446875448   -2.5006304249   -1.3150828034
     30  H         1.4218112757   -3.2196272138   -0.2540024681
     31  H         0.9207904538   -2.3436723881   -1.7142315401
     32  C         2.0496193870    2.4552701829   -0.5461144446
     33  H         3.0901636288    2.4824420307   -0.8771583829
     34  H         1.4026889052    2.6736253199   -1.3928160587
     35  H         1.9138116971    3.2312363676    0.2134976626
   Point Group: c1    Number of degrees of freedom:    99


   Energy is   -844.526380547

 Hessian Updated using BFGS Update

 88 Hessian modes will be used to form the next step
  Hessian Eigenvalues:
     0.000170    0.003038    0.007039    0.007306    0.007363    0.007536
     0.010405    0.010539    0.011298    0.021270    0.021590    0.023216
     0.025974    0.035610    0.036373    0.038309    0.039232    0.043801
     0.044564    0.048777    0.049611    0.053519    0.055732    0.057267
     0.057955    0.058421    0.059973    0.060022    0.062142    0.065366
     0.065987    0.079381    0.080839    0.087187    0.094576    0.101085
     0.101179    0.105615    0.105831    0.109124    0.110862    0.122197
     0.130049    0.154348    0.159967    0.160003    0.164694    0.176243
     0.229908    0.234170    0.249602    0.249980    0.250008    0.252025
     0.252427    0.261904    0.273522    0.281395    0.305319    0.308786
     0.310216    0.311081    0.342343    0.343267    0.343403    0.345378
     0.345554    0.345598    0.345881    0.346337    0.346538    0.346542
     0.346625    0.346739    0.346791    0.346815    0.348753    0.349580
     0.350294    0.350460    0.350689    0.362673    0.396903    0.398575
     0.534831    0.542262    1.024736    1.038219

 Minimum Search - Taking Simple RFO Step
 Searching for Lamda that Minimizes Along All modes
 Value Taken    Lamda =  -0.00281162
 Calculated Step too Large.  Step scaled by  0.335085
 Step Taken.  Stepsize is  0.300000

                             Maximum     Tolerance    Cnvgd?
         Gradient           0.003383      0.000001      NO
         Displacement       0.169062      0.000001      NO
         Energy change     -0.000819      0.000000      NO


 New Cartesian Coordinates Obtained by Inverse Iteration

 Displacement from previous Coordinates is:  0.782565
 Adding empirical dispersion correction 
 ----------------------------------------------------------------
 Doing -D3(op) with
 s6 =   1.00000
 s8 =   0.78311
 a1 =   0.30000
 a2 =   4.25000
 n  =  10.00000
 -D3 energy without 3body term =     -0.0416108930 hartrees
 ----------------------------------------------------------------
             Standard Nuclear Orientation (Angstroms)
    I     Atom           X                Y                Z
 ----------------------------------------------------------------
    1      C       0.3233299478     0.8984926893     0.6118563419
    2      C       0.2319763059    -0.6788254188     0.6350027642
    3      C      -0.8002597578     1.5385218115    -0.1891731088
    4      C      -1.0392702680    -1.2145345054     0.0114426935
    5      O      -1.9528434089     1.4611777125     0.5235326669
    6      O      -0.7363133893     2.0468097226    -1.2765566555
    7      O      -1.8401559134    -1.7443478787     0.9668434326
    8      O      -1.3351398836    -1.1879027054    -1.1566456726
    9      C      -3.1174817460    -2.2293259461     0.5171505086
   10      C      -3.1358576435     1.9380858048    -0.1438750418
   11      C       1.7604913781     1.1074225796     0.0424717107
   12      C       2.7614830772     0.6130645333     1.1295750626
   13      C       2.6869666705    -0.9254439136     0.9660281192
   14      C       1.5682349334    -1.0650016086    -0.0974243325
   15      O       1.8284246421     0.0653984446    -0.9437693634
   16      H       0.2257871916     1.2689350487     1.6328577843
   17      H       0.2509111739    -1.0365558484     1.6632320641
   18      H      -2.9898553505    -3.0311411132    -0.2118814089
   19      H      -3.2794527477     1.4090061369    -1.0873646947
   20      H       3.7605260385     0.9901023280     0.9052198882
   21      H       2.4921772336     0.9615519889     2.1292763745
   22      H       3.6179822140    -1.3282488476     0.5628306786
   23      H       2.4605569355    -1.4585495579     1.8916762288
   24      H      -3.6182612084    -2.5987885741     1.4093443149
   25      H      -3.6917213159    -1.4207237423     0.0616716697
   26      H      -3.0574788630     3.0082344794    -0.3425935437
   27      H      -3.9562541709     1.7368490198     0.5418486247
   28      C       1.5786158959    -2.3509586153    -0.8933784941
   29      H       2.5716646576    -2.5115762896    -1.3185847037
   30      H       1.3426257936    -3.1996077033    -0.2442457017
   31      H       0.8487954002    -2.3133268931    -1.7012123387
   32      C       2.1042332765     2.4588614084    -0.5471983712
   33      H       3.1468978451     2.4581313292    -0.8731713801
   34      H       1.4663366150     2.6938158486    -1.3955435651
   35      H       1.9857863510     3.2386166852     0.2113859083
 ----------------------------------------------------------------
 Nuclear Repulsion Energy =  1399.4967558828 hartrees
 There are       65 alpha and       65 beta electrons
 Applying Cartesian multipole field
    Component          Value
    ---------          -----
     (2,0,0)        1.00000E-11
     (0,2,0)        2.00000E-11
     (0,0,2)       -3.00000E-11
 Nucleus-field energy     =     0.0000000338 hartrees
 Requested basis set is 6-311++G(d,p)
 There are 192 shells and 500 basis functions
 A cutoff of  1.0D-11 yielded  15043 shell pairs
 There are    104030 function pairs (    110912 Cartesian)
 Smallest overlap matrix eigenvalue = 4.26E-07

 Q-Chem warning in module /fs/scratch/osu6415/qchem-kaunlao-vdw/stvman/mkSTV.C, line 281:

 Overlap eigenvalue is smaller than square root of threshold

 Linear dependence detected in AO basis
 Number of orthogonalized atomic orbitals = 499
 Maximum deviation from orthogonality = 1.567E-10
 Guess MOs from SCF MO coefficient file
 Reading MOs from coefficient file
 Reading MOs from coefficient file
 A restricted hybrid HF-DFT SCF calculation will be
 performed using Pulay DIIS extrapolation
 Exchange:     0.2000 Hartree-Fock + 0.0800 Slater + 0.7200 B88
 Correlation:  0.1900 VWN1RPA + 0.8100 LYP
 Using SG-1 standard quadrature grid
 Dispersion:   Grimme D3
 SCF converges when DIIS error is below 1.0E-08
 Geometry optimization detected.  Setting ReadMinima to 0
 Setting SaveMinima to 0
 using 20 threads for integral computing
 -------------------------------------------------------
 OpenMP Integral computing Module                
 Release: version 1.0, May 2013, Q-Chem Inc. Pittsburgh 
 -------------------------------------------------------
 -------------------------------------------------------
 OpenMP BLAS3 based DFT computing Module                
 Release: version 1.0, May 2013, Q-Chem Inc. Pittsburgh 
 -------------------------------------------------------
 ---------------------------------------
  Cycle       Energy         DIIS Error
 ---------------------------------------
    1    -844.5204446826      1.19E-03
    2    -844.5267317771      1.08E-04
    3    -844.5266164621      1.46E-04
    4    -844.5271476360      4.04E-05
    5    -844.5271767682      1.77E-05
    6    -844.5271840308      4.92E-06
    7    -844.5271845814      2.25E-06
    8    -844.5271846924      7.34E-07
    9    -844.5271847038      2.01E-07
   10    -844.5271847055      8.21E-08
   11    -844.5271847058      2.56E-08
   12    -844.5271847050      6.89E-09 Convergence criterion met
 ---------------------------------------
 SCF time:  CPU 955.34 s  wall 50.29 s
 SCF   energy in the final basis set = -844.52718470
 Total energy in the final basis set = -844.52718470
 
 --------------------------------------------------------------
 
                    Orbital Energies (a.u.)
 --------------------------------------------------------------
 
 Alpha MOs
 -- Occupied --
-19.175 -19.172 -19.123 -19.118 -19.115 -10.307 -10.305 -10.239
-10.237 -10.231 -10.227 -10.205 -10.204 -10.176 -10.175 -10.163
-10.157  -1.117  -1.111  -1.058  -1.029  -1.026  -0.831  -0.801
 -0.783  -0.749  -0.727  -0.719  -0.670  -0.641  -0.604  -0.581
 -0.560  -0.555  -0.527  -0.510  -0.501  -0.493  -0.485  -0.480
 -0.475  -0.472  -0.457  -0.438  -0.433  -0.424  -0.421  -0.410
 -0.405  -0.395  -0.392  -0.373  -0.371  -0.367  -0.359  -0.353
 -0.351  -0.346  -0.331  -0.324  -0.318  -0.312  -0.289  -0.276
 -0.269
 -- Virtual --
 -0.018  -0.014  -0.007   0.000   0.001   0.009   0.013   0.018
  0.024   0.031   0.036   0.038   0.040   0.043   0.048   0.051
  0.062   0.065   0.068   0.071   0.075   0.080   0.085   0.087
  0.092   0.099   0.102   0.107   0.107   0.110   0.113   0.118
  0.119   0.121   0.127   0.129   0.131   0.135   0.138   0.141
  0.142   0.144   0.148   0.149   0.155   0.156   0.157   0.159
  0.161   0.163   0.169   0.172   0.174   0.178   0.178   0.182
  0.183   0.189   0.192   0.193   0.199   0.201   0.203   0.205
  0.209   0.216   0.219   0.222   0.223   0.226   0.234   0.234
  0.241   0.247   0.252   0.256   0.260   0.269   0.272   0.276
  0.282   0.286   0.291   0.298   0.300   0.305   0.306   0.312
  0.315   0.316   0.325   0.333   0.335   0.338   0.340   0.345
  0.347   0.348   0.356   0.361   0.366   0.367   0.371   0.376
  0.379   0.383   0.389   0.394   0.403   0.407   0.411   0.416
  0.425   0.435   0.441   0.450   0.454   0.461   0.464   0.475
  0.485   0.486   0.499   0.507   0.516   0.525   0.526   0.538
  0.549   0.564   0.571   0.575   0.580   0.586   0.600   0.605
  0.608   0.610   0.621   0.629   0.639   0.649   0.652   0.653
  0.654   0.668   0.669   0.678   0.681   0.688   0.690   0.700
  0.705   0.712   0.718   0.721   0.733   0.737   0.741   0.745
  0.747   0.756   0.765   0.779   0.785   0.790   0.797   0.799
  0.811   0.825   0.831   0.840   0.854   0.874   0.897   0.911
  0.924   0.937   0.964   0.985   0.987   1.018   1.029   1.045
  1.059   1.067   1.082   1.098   1.108   1.116   1.140   1.168
  1.177   1.187   1.193   1.206   1.215   1.226   1.246   1.252
  1.267   1.278   1.288   1.289   1.300   1.313   1.325   1.337
  1.345   1.362   1.365   1.377   1.381   1.395   1.417   1.429
  1.437   1.455   1.464   1.471   1.479   1.491   1.498   1.510
  1.515   1.528   1.538   1.546   1.558   1.562   1.569   1.573
  1.580   1.590   1.601   1.611   1.614   1.624   1.629   1.647
  1.659   1.666   1.678   1.684   1.695   1.701   1.709   1.712
  1.719   1.721   1.735   1.741   1.753   1.755   1.760   1.769
  1.781   1.801   1.811   1.820   1.832   1.845   1.856   1.863
  1.875   1.885   1.892   1.916   1.943   1.953   1.969   1.983
  1.996   2.011   2.013   2.023   2.037   2.045   2.054   2.087
  2.091   2.097   2.115   2.125   2.137   2.141   2.166   2.179
  2.189   2.201   2.206   2.228   2.237   2.255   2.268   2.297
  2.311   2.376   2.383   2.398   2.434   2.448   2.453   2.461
  2.483   2.492   2.500   2.506   2.509   2.517   2.526   2.538
  2.541   2.549   2.566   2.576   2.582   2.583   2.595   2.604
  2.621   2.638   2.661   2.668   2.673   2.680   2.696   2.718
  2.733   2.755   2.771   2.794   2.811   2.823   2.840   2.846
  2.866   2.880   2.889   2.891   2.907   2.914   2.948   2.960
  2.989   3.004   3.028   3.039   3.042   3.049   3.060   3.068
  3.073   3.100   3.104   3.124   3.132   3.136   3.162   3.181
  3.195   3.211   3.239   3.260   3.276   3.320   3.326   3.353
  3.375   3.394   3.419   3.420   3.551   3.601   3.609   3.672
  3.676   3.695   3.739   3.773   3.790   3.821   3.828   3.832
  3.846   3.849   3.867   3.961   3.986   4.042   4.080   4.107
  4.123   4.137   4.158   4.169   4.175   4.216   4.296   4.307
  4.445   4.496   5.065   5.087   5.146   5.204   5.214   5.289
  5.312   5.408   5.423   5.515   5.630   5.642   5.697   5.887
  5.901  23.763  23.843  23.857  23.889  23.899  23.933  23.938
 23.955  23.957  23.989  23.997  24.045  49.915  49.919  50.000
 50.044  50.072
 --------------------------------------------------------------
 
          Ground-State Mulliken Net Atomic Charges

     Atom                 Charge (a.u.)
  ----------------------------------------
      1 C                     0.237623
      2 C                     0.633437
      3 C                    -0.732374
      4 C                    -1.014508
      5 O                    -0.001049
      6 O                    -0.171005
      7 O                     0.047572
      8 O                    -0.146006
      9 C                    -0.192351
     10 C                    -0.208415
     11 C                    -0.505613
     12 C                    -0.328648
     13 C                    -0.430471
     14 C                    -0.516295
     15 O                     0.027652
     16 H                     0.284815
     17 H                     0.299925
     18 H                     0.174973
     19 H                     0.204634
     20 H                     0.175491
     21 H                     0.139636
     22 H                     0.170927
     23 H                     0.139604
     24 H                     0.156574
     25 H                     0.160254
     26 H                     0.173646
     27 H                     0.148226
     28 C                     0.064625
     29 H                     0.173045
     30 H                     0.147143
     31 H                     0.205373
     32 C                    -0.019153
     33 H                     0.151012
     34 H                     0.203357
     35 H                     0.146343
  ----------------------------------------
  Sum of atomic charges =     0.000000

 -----------------------------------------------------------------
                    Cartesian Multipole Moments
 -----------------------------------------------------------------
    Charge (ESU x 10^10)
                -0.0000
    Dipole Moment (Debye)
         X      -0.9834      Y      -0.9144      Z       3.9525
       Tot       4.1744
    Quadrupole Moments (Debye-Ang)
        XX     -88.0541     XY       0.4256     YY     -96.9153
        XZ       1.0395     YZ       2.1513     ZZ    -110.0113
    Octopole Moments (Debye-Ang^2)
       XXX     -68.9066    XXY      -4.3630    XYY     -18.0844
       YYY     -19.2249    XXZ       2.4777    XYZ       4.5712
       YYZ       4.0312    XZZ      -2.2222    YZZ      -6.3323
       ZZZ       2.7986
    Hexadecapole Moments (Debye-Ang^3)
      XXXX   -2396.5671   XXXY     -46.1706   XXYY    -645.0510
      XYYY     -37.5844   YYYY   -1704.6110   XXXZ     -32.9677
      XXYZ       0.7050   XYYZ     -19.1113   YYYZ      70.8651
      XXZZ    -541.9108   XYZZ     -15.5516   YYZZ    -391.9235
      XZZZ     -16.5490   YZZZ      60.8361   ZZZZ    -535.3641
 -----------------------------------------------------------------
 Calculating analytic gradient of the SCF energy
 Gradient of SCF Energy
            1           2           3           4           5           6
    1  -0.0002306   0.0010241  -0.0004285  -0.0001644  -0.0002486   0.0002293
    2   0.0008609  -0.0019258  -0.0012877   0.0019566   0.0009031  -0.0002673
    3  -0.0005472   0.0007239   0.0013372  -0.0023658   0.0001325  -0.0007163
            7           8           9          10          11          12
    1  -0.0006182   0.0001319  -0.0000478   0.0001062   0.0014456  -0.0001875
    2   0.0004055  -0.0012227   0.0002424  -0.0002584  -0.0001188   0.0002497
    3   0.0009182   0.0007948   0.0001643   0.0002564  -0.0008565   0.0002424
           13          14          15          16          17          18
    1   0.0001197  -0.0011710   0.0002458  -0.0003422   0.0002560  -0.0000436
    2   0.0000665   0.0010733   0.0010218  -0.0012423  -0.0007786  -0.0000693
    3  -0.0000913   0.0001529   0.0003634  -0.0002613   0.0001750  -0.0000009
           19          20          21          22          23          24
    1  -0.0002777   0.0000151   0.0000801   0.0000221  -0.0000354   0.0000346
    2   0.0004435  -0.0000863   0.0000105  -0.0000672   0.0000317   0.0000016
    3  -0.0001763  -0.0001581  -0.0000125   0.0000842   0.0000365   0.0000136
           25          26          27          28          29          30
    1   0.0000077  -0.0000312   0.0000108   0.0002283   0.0001616  -0.0000384
    2  -0.0000626   0.0000374  -0.0000753  -0.0000736   0.0000471  -0.0000050
    3  -0.0001762  -0.0001121  -0.0000695  -0.0005311   0.0002407  -0.0000143
           31          32          33          34          35
    1   0.0000664  -0.0004126  -0.0001419   0.0001148   0.0001196
    2   0.0000117   0.0000997   0.0001206  -0.0000602   0.0000174
    3   0.0003584   0.0004132  -0.0001680  -0.0002586   0.0001084
 Max gradient component =       2.366E-03
 RMS gradient           =       5.815E-04
[...]
     0.00002662      0.00005705      0.00000233
    -0.00001890      0.00007189      0.00003006
     0.00007089     -0.00007581     -0.00004135
    -0.00056887      0.00041300      0.00022903
    -0.03883317      0.01490053      0.04670222
     0.04741410     -0.01523058     -0.04689616
     0.00082690     -0.00021672     -0.00041430
     0.00001378     -0.00010907     -0.00002516
    -0.01005067     -0.03879999     -0.09935261
     0.00888506      0.02752945     -0.09186074
     0.00029393     -0.00032713     -0.00081267
    -0.00013644     -0.00002576     -0.00016988
     0.41966756      0.07153909     -0.16608500
     0.04371485     -0.25061646     -0.38966636
    -0.43469786      0.29103906      0.12015339
    -0.12995890     -0.11117683      0.43813740
    -0.00005892     -0.00020748      0.00020738
     0.00011374     -0.00011695      0.00006799
     0.00007446      0.00117012     -0.00007215
    -0.00063039     -0.00021036      0.00060049
    -0.00728471     -0.00097369      0.00145273
     0.05248415     -0.01341832     -0.02026755
     0.00811400      0.02405905     -0.02665191
     0.02433691      0.00231768      0.03022013
     0.00925689     -0.01005431     -0.00823052
    -0.10518611      0.01441225      0.03679729
    -0.00211721     -0.00207674     -0.00864203
    -0.00129603      0.10780119      0.07037866
vibration 90
     0.00037623      0.00045419      0.00032448
    -0.00082963     -0.00205113      0.00728028
     0.00016665      0.00037329     -0.00038249
    -0.00014389     -0.00019811      0.00012278
    -0.00008771     -0.00002377      0.00008327
    -0.00006774     -0.00024087      0.00013574
    -0.00000140      0.00002563     -0.00002066
     0.00001001      0.00001893     -0.00002770
     0.00011136     -0.00002744      0.00000011
    -0.00004029     -0.00029561      0.00004732
    -0.00106224      0.00070418      0.00137671
     0.00469748     -0.00177865     -0.00562116
     0.01847049     -0.00578389     -0.01825744
     0.00030337     -0.00021828     -0.00005147
     0.00004339     -0.00032466     -0.00019378
    -0.00053796     -0.00295964     -0.00848169
     0.00939594      0.02528033     -0.08642053
     0.00005432     -0.00012875     -0.00022141
    -0.00000540      0.00010666      0.00018960
    -0.04937450     -0.00953846      0.02144186
    -0.00500089      0.03039649      0.04386862
    -0.16860408      0.11320910      0.04678145
    -0.05071582     -0.04363998      0.16943678
    -0.00007089     -0.00029179      0.00022036
    -0.00116487      0.00097238     -0.00016323
     0.00035493      0.00327666     -0.00028643
     0.00047978      0.00011274     -0.00047345
    -0.00450867     -0.00053614      0.00100957
     0.03412043     -0.00906806     -0.01337730
     0.00479624      0.01467515     -0.01606190
     0.01419979      0.00129986      0.01754678
    -0.04959677      0.05368740      0.04893025
     0.60745074     -0.07888613     -0.21951750
    -0.01750780      0.01420619      0.00583106
     0.00545411     -0.57820211     -0.37405088
vibration 91
     0.00022944      0.00006024      0.00074201
     0.00352297      0.00959278     -0.03211915
     0.00033998     -0.00029638      0.00008777
     0.00050755      0.00083639     -0.00064506
    -0.00012653      0.00001959      0.00002987
    -0.00004151      0.00006315     -0.00009144
    -0.00003312     -0.00018546      0.00010543
     0.00005142     -0.00019908      0.00020669
     0.00041016     -0.00075403     -0.00052356
    -0.00002714     -0.00035645      0.00003052
    -0.00143483      0.00064423      0.00106853
    -0.04099850      0.01369017      0.04602877
    -0.03087560      0.01022436      0.02915959
    -0.00029892     -0.00001743      0.00007886
     0.00013627     -0.00031868     -0.00020712
     0.00107435     -0.00282179     -0.00996479
    -0.04196410     -0.11170255      0.37908493
    -0.00302669      0.00332369      0.00927928
     0.00002754      0.00016891      0.00043721
     0.45139233      0.07870029     -0.17901265
     0.04097035     -0.24118528     -0.37143044
     0.28700133     -0.19489161     -0.08007979
     0.08062726      0.07092197     -0.26710522
     0.00065440      0.00172022     -0.00157377
    -0.00336059      0.00310383     -0.00064846
     0.00035644      0.00382761     -0.00027544
     0.00011235      0.00008535     -0.00022553
     0.03127349      0.00423199     -0.00950540
    -0.24791238      0.06811014      0.09966970
    -0.03650716     -0.11102085      0.12150246
    -0.08857386     -0.00789181     -0.10755385
    -0.01243889      0.01326623      0.01327117
     0.16236633     -0.01999445     -0.06019685
    -0.01123956      0.00447066     -0.00791233
     0.00105699     -0.14377602     -0.09232761
vibration 92
    -0.00024301     -0.00128221     -0.00228059
     0.00324537      0.00768484     -0.02720301
     0.00014825     -0.00018788      0.00002819
     0.00054467      0.00020442     -0.00021328
    -0.00004203      0.00002854      0.00000963
    -0.00001507      0.00004373     -0.00004951
    -0.00009868      0.00004589      0.00004365
     0.00000984     -0.00004834      0.00003430
    -0.00142346      0.00130414      0.00118158
     0.00009203      0.00032777      0.00026807
    -0.00040859      0.00019174      0.00028622
    -0.00889578      0.00260622      0.00951656
    -0.01139111      0.00462162      0.00925159
    -0.00188552      0.00019210      0.00102630
     0.00021301      0.00008138     -0.00019175
     0.00404911      0.01229870      0.02833419
    -0.03549582     -0.09400289      0.31834133
     0.00539497     -0.00511556     -0.01519885
    -0.00066837     -0.00147348     -0.00328310
     0.09958331      0.01759461     -0.03941016
     0.00812403     -0.04903264     -0.07495898
     0.11501942     -0.07592543     -0.03006562
     0.02367804      0.02011863     -0.08026732
    -0.00034054      0.00015370      0.00009400
     0.01207718     -0.01055549      0.00197666
    -0.00029165     -0.00263344      0.00026129
    -0.00004298      0.00007061      0.00002725
    -0.07111938     -0.01582097      0.04317455
     0.63621912     -0.17973546     -0.25330801
     0.12536747      0.36171330     -0.39533552
     0.09279503      0.00634183      0.12859084
    -0.00234003      0.00237787      0.00257219
     0.03199975     -0.00380392     -0.01189325
    -0.00326692      0.00104013     -0.00269367
     0.00011976     -0.02588168     -0.01656628
vibration 93
     0.00051376      0.00198233      0.00424708
    -0.00263930     -0.00800357      0.02647476
    -0.00010886      0.00004470      0.00007087
    -0.00033129     -0.00059311      0.00024565
     0.00003822      0.00000569     -0.00002099
     0.00002311      0.00002946     -0.00003839
     0.00002880      0.00009738     -0.00003241
    -0.00012984      0.00018105     -0.00006430
    -0.00064912      0.00081663      0.00085595
     0.00013124      0.00022286      0.00009885
    -0.00016113      0.00027071      0.00022420
    -0.00984595      0.00379887      0.01157750
    -0.01433046      0.00389208      0.01644394
    -0.00138992      0.00016599     -0.00066489
     0.00022461     -0.00015844     -0.00009837
    -0.00567589     -0.02191183     -0.05309024
     0.03574736      0.09274278     -0.31293110
     0.00400551     -0.00423962     -0.01202750
    -0.00051226     -0.00090517     -0.00217211
     0.10839136      0.01903498     -0.04314569
     0.01084745     -0.06309655     -0.09585496
     0.13034113     -0.08582239     -0.03518048
     0.04714171      0.04079757     -0.15799033
    -0.00026401     -0.00019928      0.00045394
     0.00496241     -0.00443676      0.00096158
    -0.00021616     -0.00162130      0.00013001
    -0.00060290     -0.00022229      0.00065582
    -0.04905781      0.02343908     -0.06278517
     0.20679842     -0.05375602     -0.10117778
    -0.11945485     -0.28016462      0.30553450
     0.50196780      0.05173299      0.54837905
    -0.00159077      0.00177773      0.00191801
     0.02204668     -0.00260385     -0.00833438
    -0.00245477      0.00066518     -0.00228689
     0.00010397     -0.01963439     -0.01248677
vibration 94
    -0.00095513     -0.00414506     -0.00859349
     0.00656333      0.01822139     -0.06147031
     0.00019300     -0.00020044     -0.00017713
     0.00080587      0.00130588     -0.00133956
    -0.00008284      0.00001812      0.00005243
    -0.00003218     -0.00004136      0.00007252
    -0.00001677     -0.00021414      0.00024906
     0.00015221     -0.00026638      0.00060646
    -0.00191256      0.00103476      0.00109852
    -0.00001536      0.00061022      0.00050947
     0.00005528     -0.00092574     -0.00045098
     0.01414266     -0.00555520     -0.01706478
     0.01982484     -0.00367029     -0.02481821
     0.00019048      0.00094026     -0.00187487
    -0.00024339     -0.00023019      0.00081685
     0.01181496      0.04551476      0.10896003
    -0.08409147     -0.21373222      0.72850420
     0.00443141     -0.00354374     -0.01158642
    -0.00089815     -0.00221626     -0.00491608
    -0.15462790     -0.02787165      0.06178041
    -0.01600907      0.09347888      0.14363867
    -0.16263317      0.11029098      0.04529305
    -0.07563967     -0.06492342      0.25525767
     0.00080790      0.00390366     -0.00274187
     0.01645798     -0.01387151      0.00265954
    -0.00057041     -0.00578693      0.00055071
     0.00135125      0.00066143     -0.00131929
    -0.00737329      0.01544270     -0.03997921
    -0.03984204      0.01366212      0.00744579
    -0.08749935     -0.22309948      0.24179682
     0.21598143      0.02358442      0.23107303
     0.00225514     -0.00220863     -0.00219071
    -0.02851356      0.00335588      0.01072054
     0.00092397     -0.00073193      0.00051525
    -0.00004774      0.02471877      0.01548194
vibration 95
    -0.00006560     -0.00014020     -0.00029739
     0.00031334      0.00028828     -0.00157530
     0.00009246      0.00000889     -0.00003319
    -0.00009528      0.00014412      0.00002028
    -0.00003904      0.00000340      0.00002326
    -0.00002266     -0.00000341      0.00002104
    -0.00024436      0.00026032      0.00020930
    -0.00007900      0.00009111      0.00009546
     0.06142959     -0.05669437     -0.04469451
    -0.00082906     -0.00333241     -0.00153282
     0.00002085     -0.00004963     -0.00003661
     0.00036873     -0.00018346     -0.00049120
     0.00036882     -0.00002514     -0.00051373
    -0.00000588      0.00001240      0.00000205
    -0.00000417      0.00003116      0.00002879
     0.00040085      0.00152592      0.00364074
    -0.00210274     -0.00507164      0.01711565
    -0.21571206      0.21001332      0.63368580
     0.00478144      0.00955832      0.02268596
    -0.00395655     -0.00067548      0.00155625
    -0.00047668      0.00289135      0.00444545
    -0.00264777      0.00187124      0.00080161
    -0.00159991     -0.00140809      0.00537997
     0.01673628      0.00163717     -0.01855893
    -0.52737083      0.45761937     -0.08703467
     0.00316409      0.02981303     -0.00248216
     0.00188708      0.00023019     -0.00221409
    -0.00293010      0.00023197     -0.00081831
     0.01893815     -0.00507674     -0.00788877
    -0.00052518      0.00077272     -0.00115250
     0.01616293      0.00144513      0.01895218
     0.00015878     -0.00017579     -0.00016110
    -0.00203675      0.00024464      0.00074343
     0.00009032     -0.00006397     -0.00002760
     0.00000922      0.00199992      0.00126313
vibration 96
    -0.00006070     -0.00022126     -0.00023818
     0.00009065      0.00010765     -0.00038315
    -0.00002935      0.00000270      0.00029797
    -0.00011659      0.00008931     -0.00015210
     0.00015762      0.00027874      0.00015086
    -0.00006961      0.00020035     -0.00001462
     0.00002097     -0.00002241      0.00001184
     0.00007980     -0.00003727      0.00006635
    -0.00248947      0.00206861      0.00197892
    -0.01776994     -0.08091944     -0.04667845
    -0.00000549     -0.00002749     -0.00001374
     0.00012921     -0.00010001     -0.00021988
     0.00007129      0.00000268     -0.00011856
    -0.00004017      0.00000148      0.00001498
     0.00000919      0.00001519      0.00000802
     0.00000680      0.00086963      0.00127928
    -0.00052427     -0.00134803      0.00478725
     0.00894084     -0.00871643     -0.02597005
     0.13174829      0.26116903      0.62447846
    -0.00133342     -0.00022385      0.00052331
    -0.00023606      0.00140012      0.00219638
    -0.00035891      0.00031627      0.00014211
    -0.00041000     -0.00033439      0.00129541
     0.00014285      0.00198548     -0.00085593
     0.02034174     -0.01744055      0.00342030
     0.07836933      0.70965427     -0.06050015
     0.00076872     -0.01363225     -0.01246347
    -0.00047873      0.00009912     -0.00025381
     0.00303759     -0.00084234     -0.00131368
    -0.00039183     -0.00069972      0.00078639
     0.00317940      0.00035512      0.00360381
     0.00011758     -0.00019304     -0.00016725
    -0.00148010      0.00020962      0.00051938
     0.00010299     -0.00010270      0.00003729
     0.00001564      0.00218610      0.00142019
vibration 97
     0.00003062      0.00005599     -0.00004010
    -0.00003010     -0.00004437      0.00016460
     0.00059985     -0.00078476      0.00081573
    -0.00005319     -0.00011923      0.00011357
     0.00021295      0.00015652     -0.00025173
    -0.00014956      0.00035942     -0.00041610
     0.00004421      0.00004473     -0.00003063
    -0.00000681      0.00005191     -0.00004539
    -0.00021402      0.00053058     -0.00021792
    -0.04921569     -0.03193751      0.07430275
     0.00001496     -0.00002827      0.00000181
     0.00000140      0.00000584      0.00000680
    -0.00000283     -0.00002176      0.00004369
     0.00000306     -0.00000480      0.00000810
    -0.00000252      0.00001503     -0.00000587
    -0.00033845     -0.00005118     -0.00056591
     0.00015699      0.00064234     -0.00200431
     0.00023253     -0.00011691     -0.00053571
    -0.07331638     -0.14025230     -0.28297736
    -0.00002136      0.00000377      0.00000830
     0.00001906     -0.00004343     -0.00005177
    -0.00016368      0.00011747      0.00005143
     0.00018289      0.00014945     -0.00059456
    -0.00119455     -0.00338216      0.00265555
     0.00334533     -0.00273071      0.00057712
     0.02599849      0.30398148     -0.00446196
     0.62536898      0.21680816     -0.59552430
    -0.00001707     -0.00002899      0.00003191
     0.00002044      0.00000650      0.00001149
     0.00011873      0.00036300     -0.00039019
     0.00000647     -0.00001775      0.00004229
    -0.00021832     -0.00010056     -0.00038033
    -0.00037378      0.00005337      0.00000117
     0.00306140     -0.00053312      0.00333215
    -0.00002444      0.00174770      0.00109598
vibration 98
     0.00001167      0.00000927      0.00002988
    -0.00003549      0.00001684      0.00005312
     0.00002454      0.00002815      0.00001235
     0.00082036      0.00007712      0.00094833
    -0.00000332     -0.00001477     -0.00001043
    -0.00000567     -0.00000948     -0.00000082
     0.00002158      0.00028361     -0.00026818
    -0.00028824      0.00005554     -0.00045925
    -0.00992403     -0.06447592      0.06829699
    -0.00020881      0.00008165      0.00052796
     0.00001113      0.00000707      0.00000072
     0.00001746      0.00001352      0.00000870
     0.00000709     -0.00003402      0.00004894
     0.00000913     -0.00002413     -0.00001332
    -0.00001118      0.00000252     -0.00000332
    -0.00009846     -0.00016034     -0.00038663
    -0.00012284      0.00025564     -0.00145861
     0.10205696     -0.11228331     -0.27027534
    -0.00076442     -0.00136234     -0.00332228
    -0.00028144     -0.00003915      0.00011406
     0.00003085     -0.00014003     -0.00020310
    -0.00042608      0.00022889      0.00010796
     0.00020232      0.00012539     -0.00061753
     0.23507261      0.69234660     -0.52646377
    -0.22396045      0.18110645     -0.01527080
    -0.00012359     -0.00061998      0.00010364
     0.00323773      0.00116699     -0.00303017
     0.00014004     -0.00009689      0.00018563
    -0.00100056      0.00027849      0.00034566
     0.00035924      0.00102678     -0.00120376
    -0.00099881     -0.00021200     -0.00135092
    -0.00007863     -0.00000713     -0.00010903
    -0.00004814     -0.00000175      0.00000136
     0.00104102     -0.00015378      0.00117941
    -0.00001535      0.00024923      0.00014890
vibration 99
     0.00013032      0.00005461     -0.00029972
     0.00004961      0.00005878     -0.00014781
     0.00013049      0.00018395     -0.00031588
    -0.00000419      0.00002852     -0.00003852
    -0.00004892     -0.00002035      0.00006688
    -0.00079864     -0.00002721      0.00031543
    -0.00000083     -0.00001024      0.00001377
    -0.00000069     -0.00001495      0.00002338
     0.00001999      0.00009942     -0.00009035
     0.00023475      0.00016816     -0.00033099
    -0.00117180     -0.00042709     -0.00076719
    -0.00052102     -0.00017135      0.00096595
    -0.00001215     -0.00004768     -0.00004093
     0.00004446      0.00010960     -0.00007238
     0.00011618      0.00009745      0.00014864
    -0.00015092      0.00093133      0.00309305
    -0.00026480     -0.00051552      0.00181540
    -0.00013839      0.00015508      0.00036275
     0.00032767      0.00064149      0.00121306
     0.01004902      0.00090521     -0.00302247
     0.00044133     -0.00251633     -0.00420935
     0.00062559     -0.00017474     -0.00016079
    -0.00009531     -0.00005149      0.00113273
    -0.00035548     -0.00106143      0.00081976
     0.00032038     -0.00025684      0.00002463
    -0.00012954     -0.00170099     -0.00000096
    -0.00283608     -0.00102587      0.00274799
    -0.00009093      0.00003928     -0.00010714
     0.00039856     -0.00010154     -0.00023346
    -0.00025329     -0.00060907      0.00060519
     0.00100821      0.00017302      0.00108190
    -0.06551487     -0.00292639     -0.06185021
     0.20703958     -0.03367832     -0.08809767
     0.60685671     -0.10184989      0.72102534
    -0.01696680      0.17404216      0.10404625
[INT]
    0.067577
    0.814742
    4.125721
    0.735645
    0.578044
    0.624253
    1.357306
    0.705061
    0.688568
    1.805700
    3.996331
    0.650897
    1.598478
    0.948843
    3.768667
    1.520598
   12.909792
    0.823307
    2.038654
    8.262281
    8.333603
    2.781389
   12.006170
   11.133088
   10.385407
    3.544274
    2.420977
    0.543994
    7.264355
    3.035741
    2.350058
    5.255597
    5.507130
    7.983457
   24.490720
   16.421231
   14.565049
   10.623061
   26.794168
    8.567879
    3.418439
    5.587472
    2.507285
   68.209117
   45.834987
    8.055918
   14.927998
   29.886278
  109.495049
    0.528834
   20.484148
   75.924899
  385.049352
   13.589917
   11.245640
  125.011369
   22.798485
   35.888113
    3.595575
   18.966596
   14.426724
    1.872623
    4.165221
  109.988927
   43.953873
   18.469623
   12.163277
   12.747237
   14.792781
    2.251646
    6.694463
   11.830667
    8.088272
    0.855620
   20.644338
    5.970428
    1.988271
    8.829105
    9.075167
   92.038580
  325.277740
   21.264846
    9.170143
   26.709130
   43.215539
   30.275332
   16.560446
   34.477724
    0.476767
   11.088812
   20.602608
   25.421029
   15.705426
   31.394679
   19.460585
   16.022516
   14.100599
   14.475549
    2.754197

======= END OF MOLDEN-FORMATTED INPUT FILE =======


        *************************************************************
        *                                                           *
        *  Thank you very much for using Q-Chem.  Have a nice day.  *
        *                                                           *
        *************************************************************


