r0189.ten.osc.edu 10.25.155
Q-Chem Developer Version! Running on 10.25.155.*
                  Welcome to Q-Chem
     A Quantum Leap Into The Future Of Chemistry


 Q-Chem 5.0, Q-Chem, Inc., Pleasanton, CA (2017)

 Yihan Shao,  Zhengting Gan,  E. Epifanovsky,  A. T. B. Gilbert,  M. Wormit,  
 J. Kussmann,  A. W. Lange,  A. Behn,  Jia Deng,  Xintian Feng,  D. Ghosh,  
 M. Goldey,  P. R. Horn,  L. D. Jacobson,  I. Kaliman,  T. Kus,  A. Landau,  
 Jie Liu,  E. I. Proynov,  R. M. Richard,  R. P. Steele,  E. J. Sundstrom,  
 H. L. Woodcock III,  P. M. Zimmerman,  D. Zuev,  B. Albrecht,  E. Alguire,  
 S. A. Baeppler,  Z. Benda,  Y. A. Bernard,  E. J. Berquist,  K. B. Bravaya,  
 D. Casanova,  Chun-Min Chang,  Yunqing Chen,  A. Chien,  K. D. Closser,  
 M. P. Coons,  S. Dasgupta,  M. Diedenhofen,  Hainam Do,  R. G. Edgar,  
 Po-Tung Fang,  S. Fatehi,  Qingguo Feng,  Qinghui Ge,  A. Ghysels,  
 J. Gomes,  J. Gonthier,  A. Gunina,  M. W. D. Hanson-Heine,  
 P. H. P. Harbach,  A. W. Hauser,  J. E. Herr,  E. G. Hohenstein,  
 Z. C. Holden,  Kerwin Hui,  T.-C. Jagau,  Hyunjun Ji,  B. Kaduk,  
 K. Khistyaev,  Jaehoon Kim,  P. Klunzinger,  K. Koh,  D. Kosenkov,  
 T. Kowalczyk,  C. M. Krauter,  A. Kunitsa,  Ka Un Lao,  A. Laurent,  
 K. V. Lawler,  Joonho Lee,  D. Lefrancois,  S. Lehtola,  D. S. Levine,  
 Yi-Pei Li,  You-Sheng Lin,  Fenglai Liu,  E. Livshits,  A. Luenser,  
 P. Manohar,  E. Mansoor,  S. F. Manzer,  Shan-Ping Mao,  Yuezhi Mao,  
 N. Mardirossian,  A. V. Marenich,  L. A. Martinez-Martinez,  S. A. Maurer,  
 N. J. Mayhall,  S. C. McKenzie,  J.-M. Mewes,  A. F. Morrison,  K. Nanda,  
 T. S. Nguyen-Beck,  R. Olivares-Amaya,  J. A. Parkhill,  T. M. Perrine,  
 F. Plasser,  S. Prager,  A. Prociuk,  D. R. Rehn,  F. Rob,  M. Schneider,  
 N. Sergueev,  S. M. Sharada,  S. Sharma,  D. W. Small,  T. Stauch,  
 T. Stein,  Yu-Chuan Su,  A. J. W. Thom,  T. Tsuchimochi,  L. Vogt,  
 O. Vydrov,  M. A. Watson,  J. Wenzel,  M. de Wergifosse,  T. A. Wesolowski,  
 A. White,  J. Witte,  A. Yamada,  Jun Yang,  K. Yao,  S. Yeganeh,  
 S. R. Yost,  Zhi-Qiang You,  A. Zech,  Igor Ying Zhang,  Xing Zhang,  
 Yan Zhao,  Ying Zhu,  B. R. Brooks,  G. K. L. Chan,  C. J. Cramer,  
 M. S. Gordon,  W. J. Hehre,  A. Klamt,  M. W. Schmidt,  C. D. Sherrill,  
 D. G. Truhlar,  A. Aspuru-Guzik,  R. Baer,  A. T. Bell,  N. A. Besley,  
 Jeng-Da Chai,  A. Dreuw,  B. D. Dunietz,  T. R. Furlani,  Chao-Ping Hsu,  
 Yousung Jung,  Jing Kong,  D. S. Lambrecht,  WanZhen Liang,  C. Ochsenfeld,  
 V. A. Rassolov,  L. V. Slipchenko,  J. E. Subotnik,  T. Van Voorhis,  
 J. M. Herbert,  A. I. Krylov,  P. M. W. Gill,  M. Head-Gordon

 Contributors to earlier versions of Q-Chem not listed above: 
 R. D. Adamson,  B. Austin,  J. Baker,  G. J. O. Beran,  K. Brandhorst,  
 S. T. Brown,  E. F. C. Byrd,  A. K. Chakraborty,  C.-L. Cheng,  
 Siu Hung Chien,  D. M. Chipman,  D. L. Crittenden,  H. Dachsel,  
 R. A. DiStasio Jr.,  R. J. Doerksen,  A. D. Dutoi,  L. Fusti-Molnar,  
 W. A. Goddard III,  A. Golubeva-Zadorozhnaya,  S. R. Gwaltney,  G. Hawkins,  
 A. Heyden,  S. Hirata,  G. Kedziora,  F. J. Keil,  C. Kelley,  Jihan Kim,  
 R. A. King,  R. Z. Khaliullin,  P. P. Korambath,  W. Kurlancheek,  
 A. M. Lee,  M. S. Lee,  S. V. Levchenko,  Ching Yeh Lin,  D. Liotard,  
 R. C. Lochan,  I. Lotan,  P. E. Maslen,  N. Nair,  D. P. O'Neill,  
 D. Neuhauser,  E. Neuscamman,  C. M. Oana,  R. Olson,  B. Peters,  
 R. Peverati,  P. A. Pieniazek,  Y. M. Rhee,  J. Ritchie,  M. A. Rohrdanz,  
 E. Rosta,  N. J. Russ,  H. F. Schaefer III,  N. E. Schultz,  N. Shenvi,  
 A. C. Simmonett,  A. Sodt,  D. Stuck,  K. S. Thanthiriwatte,  V. Vanovschi,  
 Tao Wang,  A. Warshel,  C. F. Williams,  Q. Wu,  X. Xu,  W. Zhang

 Please cite Q-Chem as follows:
 Y. Shao et al., Mol. Phys. 113, 184-215 (2015)
 DOI: 10.1080/00268976.2014.952696

 Q-Chem 5.0.1 for Intel X86 EM64T Linux

 Parts of Q-Chem use Armadillo 5.200.1 (Boston Tea Smuggler).
 http://arma.sourceforge.net/

 Q-Chem begins on Tue Oct 17 15:00:00 2017  

Host: r0189.ten.osc.edu
0

     Scratch files written to /tmp/pbstmp.1311788/2//
Processing $rem in /users/PAS0291/osu6415/.qchemrc.
molden_format             true

Checking the input file for inconsistencies... 	...done.

--------------------------------------------------------------
User input:
--------------------------------------------------------------
$molecule
0 1
  C      0.51525345      0.88621088      0.64035314
  C      0.16941250     -0.63598708      0.64795647
  C     -0.43782585      1.74638894     -0.17706138
  C     -1.27315087     -0.96843906      0.30666881
  O     -1.01226003      2.68448624      0.60826039
  O     -0.62787834      1.66439617     -1.36352026
  O     -1.44899655     -2.29267347      0.12863769
  O     -2.18655083     -0.18007822      0.30406072
  C     -2.79887255     -2.72462517     -0.12857784
  C     -2.00377205      3.50433645     -0.03547115
  C      1.94215997      0.85236454      0.00197986
  C      2.90106313      0.15384986      1.01102848
  C      2.56037082     -1.34447009      0.79586499
  C      1.36841193     -1.24733883     -0.19179384
  O      1.77495623     -0.14574608     -1.01522076
  H      0.53932799      1.28892803      1.65179171
  H      0.25917737     -1.00804087      1.67350074
  H     -3.18975176     -2.23793066     -1.02300412
  H     -2.81558349      2.87785712     -0.40813275
  H      3.93819342      0.37075490      0.75040214
  H      2.73725712      0.49478636      2.03594797
  H      3.38660662     -1.87033542      0.31321863
  H      2.30988004     -1.87887524      1.71450016
  H     -2.73366839     -3.80066064     -0.27431566
  H     -3.44301330     -2.48931507      0.72012079
  H     -1.56520802      4.06027287     -0.86560898
  H     -2.36397598      4.18381382      0.73416416
  C      1.13539195     -2.46755939     -1.05373841
  H      2.06207399     -2.70566282     -1.58117656
  H      0.83979966     -3.32422561     -0.44753543
  H      0.35380447     -2.28232487     -1.79061038
  C      2.45770982      2.14822778     -0.58422359
  H      3.44989319      1.99186885     -1.01321225
  H      1.79528161      2.51183012     -1.36972349
  H      2.53690269      2.91060567      0.19602002
$end

$rem
sym_ignore      true
jobtype         ts
method          b3lyp
basis           6-311++G(d,p)
dft_d           d3_op
mem_total       62000
MEM_STATIC      4000
ao2mo_disk      350000
max_scf_cycles  200
geom_opt_max_cycles 1000
geom_opt_tol_displacement 1
GEOM_OPT_TOL_GRADIENT       1
GEOM_OPT_TOL_ENERGY         1
geom_opt_dmax    50
$end

--------------------------------------------------------------
 Adding empirical dispersion correction 
 ----------------------------------------------------------------
 Doing -D3(op) with
 s6 =   1.00000
 s8 =   0.78311
 a1 =   0.30000
 a2 =   4.25000
 n  =  10.00000
 -D3 energy without 3body term =     -0.0407229834 hartrees
 ----------------------------------------------------------------
             Standard Nuclear Orientation (Angstroms)
    I     Atom           X                Y                Z
 ----------------------------------------------------------------
    1      C       0.5152534500     0.8862108800     0.6403531400
    2      C       0.1694125000    -0.6359870800     0.6479564700
    3      C      -0.4378258500     1.7463889400    -0.1770613800
    4      C      -1.2731508700    -0.9684390600     0.3066688100
    5      O      -1.0122600300     2.6844862400     0.6082603900
    6      O      -0.6278783400     1.6643961700    -1.3635202600
    7      O      -1.4489965500    -2.2926734700     0.1286376900
    8      O      -2.1865508300    -0.1800782200     0.3040607200
    9      C      -2.7988725500    -2.7246251700    -0.1285778400
   10      C      -2.0037720500     3.5043364500    -0.0354711500
   11      C       1.9421599700     0.8523645400     0.0019798600
   12      C       2.9010631300     0.1538498600     1.0110284800
   13      C       2.5603708200    -1.3444700900     0.7958649900
   14      C       1.3684119300    -1.2473388300    -0.1917938400
   15      O       1.7749562300    -0.1457460800    -1.0152207600
   16      H       0.5393279900     1.2889280300     1.6517917100
   17      H       0.2591773700    -1.0080408700     1.6735007400
   18      H      -3.1897517600    -2.2379306600    -1.0230041200
   19      H      -2.8155834900     2.8778571200    -0.4081327500
   20      H       3.9381934200     0.3707549000     0.7504021400
   21      H       2.7372571200     0.4947863600     2.0359479700
   22      H       3.3866066200    -1.8703354200     0.3132186300
   23      H       2.3098800400    -1.8788752400     1.7145001600
   24      H      -2.7336683900    -3.8006606400    -0.2743156600
   25      H      -3.4430133000    -2.4893150700     0.7201207900
   26      H      -1.5652080200     4.0602728700    -0.8656089800
   27      H      -2.3639759800     4.1838138200     0.7341641600
   28      C       1.1353919500    -2.4675593900    -1.0537384100
   29      H       2.0620739900    -2.7056628200    -1.5811765600
   30      H       0.8397996600    -3.3242256100    -0.4475354300
   31      H       0.3538044700    -2.2823248700    -1.7906103800
   32      C       2.4577098200     2.1482277800    -0.5842235900
   33      H       3.4498931900     1.9918688500    -1.0132122500
   34      H       1.7952816100     2.5118301200    -1.3697234900
   35      H       2.5369026900     2.9106056700     0.1960200200
 ----------------------------------------------------------------
 Nuclear Repulsion Energy =  1389.2259813781 hartrees
 There are       65 alpha and       65 beta electrons
 Requested basis set is 6-311++G(d,p)
 There are 192 shells and 500 basis functions

 Total QAlloc Memory Limit  62000 MB
 Mega-Array Size      3911 MB
 MEM_STATIC part      4000 MB
 A cutoff of  1.0D-11 yielded  14941 shell pairs
 There are    103123 function pairs (    109892 Cartesian)
 
 -------------------------------------------------------
 OpenMP Integral Computing Module                       
 Release: version 1.0, May 2013, Q-Chem Inc. Pittsburgh 
 -------------------------------------------------------
 Integral Job Info:
 Integral job number is                      11
 Integral operator is                         1
 short-range coefficients                     0
 long-range coefficients              100000000
 Omega coefficients                           0
 if combine SR and LR in K                    0
 Integral screening is                        0
 Integral computing path is                   2
 max size of driver memory is            800000
 size of driver memory is                593474
 size of scratch memory is              2361544
 max col of scratch BK array               1296
 max len of scratch array in speh3          155
 max len of scratch index in speh4           18
 max int batch size is                      520
 min int batch size is                       52
 fixed nKL is                                52
 max L of basis functions is                  2
 order of int derivative is                   0
 number of shells is                        192
 number of basis is                         517
 number of cartesian basis is               517
 number of contracted shell pairs         14941
 number of primitive shell pairs          32776
 maxK2 (contraction) of shell pair           36
 max number of K2 of shell pair               1
 max number of CS2 of shell pair           2848
 max number of PS2 of shell pair           4806
 mem total for path MDJ                  180328
 -------------------------------------------------------
 Smallest overlap matrix eigenvalue = 3.96E-07

 Q-Chem warning in module /fs/scratch/osu6415/qchem-kaunlao-vdw/stvman/mkSTV.C, line 281:

 Overlap eigenvalue is smaller than square root of threshold

 Linear dependence detected in AO basis
 Number of orthogonalized atomic orbitals = 499
 Maximum deviation from orthogonality = 1.129E-10

 Scale SEOQF with 1.000000e-01/1.000000e-01/1.000000e-01

 Standard Electronic Orientation quadrupole field applied
 Nucleus-field energy     =     0.0000000424 hartrees
 Guess from superposition of atomic densities
 Warning:  Energy on first SCF cycle will be non-variational
 A restricted hybrid HF-DFT SCF calculation will be
 performed using Pulay DIIS extrapolation
 Exchange:     0.2000 Hartree-Fock + 0.0800 Slater + 0.7200 B88
 Correlation:  0.1900 VWN1RPA + 0.8100 LYP
 Using SG-1 standard quadrature grid
 Dispersion:   Grimme D3
 SCF converges when DIIS error is below 1.0E-08
 using 20 threads for integral computing
 -------------------------------------------------------
 OpenMP Integral computing Module                
 Release: version 1.0, May 2013, Q-Chem Inc. Pittsburgh 
 -------------------------------------------------------
 -------------------------------------------------------
 OpenMP BLAS3 based DFT computing Module                
 Release: version 1.0, May 2013, Q-Chem Inc. Pittsburgh 
 -------------------------------------------------------
 ---------------------------------------
  Cycle       Energy         DIIS Error
 ---------------------------------------
    1    -847.9510680916      2.82E-02
    2    -844.1598153511      3.73E-03
    3    -843.6581361689      6.00E-03
    4    -844.4736896009      1.44E-03
    5    -844.5228830034      3.30E-04
    6    -844.5247201638      1.58E-04
    7    -844.5252794766      2.97E-05
    8    -844.5252984349      9.75E-06
    9    -844.5253008089      2.58E-06
   10    -844.5253009260      1.44E-06
   11    -844.5253009688      4.38E-07
   12    -844.5253009734      1.20E-07
   13    -844.5253009730      4.07E-08
   14    -844.5253009757      1.31E-08
   15    -844.5253009821      3.73E-09 Convergence criterion met
 ---------------------------------------
 SCF time:  CPU 1165.21 s  wall 63.57 s
 SCF   energy in the final basis set = -844.52530098
 Total energy in the final basis set = -844.52530098
 
 --------------------------------------------------------------
 
                    Orbital Energies (a.u.)
 --------------------------------------------------------------
 
 Alpha MOs
 -- Occupied --
-19.177 -19.161 -19.123 -19.120 -19.100 -10.311 -10.294 -10.240
-10.238 -10.232 -10.217 -10.207 -10.196 -10.176 -10.176 -10.163
-10.161  -1.120  -1.101  -1.059  -1.032  -1.014  -0.828  -0.803
 -0.779  -0.747  -0.723  -0.722  -0.669  -0.641  -0.598  -0.580
 -0.568  -0.550  -0.523  -0.507  -0.496  -0.490  -0.489  -0.480
 -0.471  -0.465  -0.455  -0.439  -0.430  -0.424  -0.412  -0.408
 -0.407  -0.400  -0.383  -0.371  -0.365  -0.363  -0.360  -0.353
 -0.351  -0.346  -0.328  -0.323  -0.318  -0.299  -0.291  -0.275
 -0.261
 -- Virtual --
 -0.020  -0.006  -0.003   0.001   0.007   0.010   0.013   0.020
  0.027   0.028   0.033   0.039   0.042   0.046   0.048   0.053
  0.058   0.066   0.067   0.071   0.075   0.081   0.084   0.090
  0.094   0.100   0.101   0.103   0.106   0.112   0.114   0.116
  0.119   0.121   0.127   0.129   0.132   0.135   0.137   0.138
  0.140   0.142   0.147   0.148   0.153   0.154   0.158   0.160
  0.162   0.167   0.170   0.171   0.173   0.175   0.180   0.181
  0.183   0.188   0.193   0.196   0.198   0.199   0.203   0.207
  0.210   0.212   0.214   0.221   0.225   0.227   0.234   0.240
  0.246   0.248   0.252   0.256   0.262   0.266   0.271   0.274
  0.281   0.285   0.289   0.294   0.300   0.301   0.311   0.314
  0.316   0.319   0.328   0.329   0.340   0.342   0.344   0.346
  0.352   0.355   0.360   0.361   0.366   0.368   0.373   0.382
  0.384   0.388   0.391   0.397   0.403   0.405   0.410   0.415
  0.419   0.432   0.437   0.442   0.449   0.458   0.467   0.474
  0.479   0.481   0.497   0.502   0.513   0.524   0.541   0.544
  0.551   0.557   0.561   0.579   0.583   0.591   0.597   0.610
  0.621   0.626   0.632   0.637   0.643   0.647   0.653   0.653
  0.665   0.670   0.673   0.675   0.677   0.687   0.692   0.694
  0.697   0.710   0.714   0.716   0.724   0.735   0.739   0.746
  0.751   0.757   0.766   0.773   0.776   0.786   0.793   0.807
  0.809   0.817   0.828   0.836   0.842   0.848   0.889   0.907
  0.925   0.940   0.959   0.987   0.999   1.017   1.033   1.045
  1.056   1.065   1.073   1.083   1.109   1.130   1.135   1.138
  1.191   1.193   1.204   1.210   1.217   1.226   1.235   1.239
  1.248   1.272   1.275   1.278   1.294   1.318   1.325   1.343
  1.346   1.355   1.373   1.388   1.389   1.396   1.413   1.434
  1.437   1.443   1.449   1.457   1.481   1.486   1.501   1.506
  1.518   1.531   1.550   1.554   1.559   1.567   1.573   1.576
  1.579   1.595   1.602   1.604   1.612   1.622   1.639   1.646
  1.654   1.667   1.680   1.684   1.694   1.707   1.711   1.716
  1.721   1.728   1.732   1.742   1.748   1.759   1.761   1.770
  1.788   1.794   1.800   1.812   1.826   1.830   1.842   1.850
  1.861   1.878   1.906   1.915   1.921   1.938   1.963   1.977
  1.986   2.002   2.012   2.027   2.034   2.039   2.057   2.080
  2.092   2.106   2.120   2.128   2.133   2.156   2.169   2.175
  2.185   2.197   2.211   2.223   2.236   2.249   2.270   2.301
  2.305   2.363   2.399   2.404   2.412   2.443   2.453   2.460
  2.478   2.493   2.496   2.507   2.518   2.523   2.525   2.532
  2.537   2.551   2.558   2.560   2.572   2.591   2.593   2.606
  2.618   2.643   2.660   2.666   2.681   2.686   2.709   2.716
  2.733   2.756   2.768   2.791   2.813   2.826   2.833   2.867
  2.872   2.881   2.892   2.900   2.922   2.927   2.953   2.960
  2.997   3.017   3.026   3.048   3.053   3.066   3.072   3.075
  3.089   3.096   3.103   3.130   3.135   3.157   3.176   3.179
  3.203   3.223   3.237   3.258   3.270   3.314   3.333   3.360
  3.382   3.402   3.407   3.418   3.545   3.605   3.621   3.667
  3.671   3.686   3.755   3.775   3.796   3.823   3.830   3.833
  3.843   3.853   3.866   3.953   3.963   4.033   4.054   4.119
  4.128   4.137   4.159   4.172   4.186   4.258   4.289   4.313
  4.444   4.507   5.057   5.071   5.116   5.176   5.251   5.296
  5.312   5.395   5.424   5.523   5.631   5.649   5.691   5.892
  5.910  23.764  23.836  23.853  23.881  23.898  23.927  23.946
 23.956  23.959  23.989  23.995  24.033  49.905  49.931  49.998
 50.028  50.067
 --------------------------------------------------------------
 
          Ground-State Mulliken Net Atomic Charges

     Atom                 Charge (a.u.)
  ----------------------------------------
      1 C                     0.488587
      2 C                     0.386238
      3 C                    -1.292094
      4 C                    -0.624666
      5 O                     0.053052
      6 O                    -0.157815
      7 O                    -0.065965
      8 O                    -0.184436
      9 C                    -0.239267
     10 C                    -0.193190
     11 C                    -0.190417
     12 C                    -0.332295
     13 C                    -0.479023
     14 C                    -0.397870
     15 O                     0.054998
     16 H                     0.295052
     17 H                     0.254953
     18 H                     0.194730
     19 H                     0.187577
     20 H                     0.172727
     21 H                     0.145401
     22 H                     0.170430
     23 H                     0.145415
     24 H                     0.150188
     25 H                     0.175247
     26 H                     0.167975
     27 H                     0.144586
     28 C                    -0.074283
     29 H                     0.154419
     30 H                     0.191079
     31 H                     0.184892
     32 C                    -0.000688
     33 H                     0.174133
     34 H                     0.192088
     35 H                     0.148239
  ----------------------------------------
  Sum of atomic charges =    -0.000000

 -----------------------------------------------------------------
                    Cartesian Multipole Moments
 -----------------------------------------------------------------
    Charge (ESU x 10^10)
                -0.0000
    Dipole Moment (Debye)
         X       0.3764      Y      -1.5150      Z       2.6188
       Tot       3.0488
    Quadrupole Moments (Debye-Ang)
        XX     -95.7312     XY       3.7103     YY     -90.2820
        XZ       3.3225     YZ       1.4220     ZZ    -106.3330
    Octopole Moments (Debye-Ang^2)
       XXX     -71.1849    XXY     -15.3334    XYY     -50.9172
       YYY     -12.5128    XXZ      -1.1329    XYZ      -2.0798
       YYZ      -5.2851    XZZ     -23.0523    YZZ     -17.6091
       ZZZ      13.1299
    Hexadecapole Moments (Debye-Ang^3)
      XXXX   -2186.9310   XXXY      22.2910   XXYY    -655.7379
      XYYY     -34.3696   YYYY   -2191.6192   XXXZ     -14.6885
      XXYZ       5.4417   XYYZ      -7.8205   YYYZ       0.1795
      XXZZ    -462.1594   XYZZ       5.0365   YYZZ    -474.8592
      XZZZ     -14.4688   YZZZ       8.9449   ZZZZ    -466.0915
 -----------------------------------------------------------------
 Calculating analytic gradient of the SCF energy
 Gradient of SCF Energy
            1           2           3           4           5           6
    1   0.0000104   0.0000004  -0.0000070   0.0000014  -0.0000069   0.0000017
    2  -0.0000050  -0.0000067  -0.0000132   0.0000182   0.0000123   0.0000049
    3   0.0000045  -0.0000073  -0.0000296  -0.0000228   0.0000025   0.0000156
            7           8           9          10          11          12
    1   0.0000053  -0.0000003   0.0000091  -0.0000115  -0.0000108  -0.0000042
    2  -0.0000218  -0.0000091  -0.0000037  -0.0000138   0.0000150   0.0000057
    3   0.0000103  -0.0000065  -0.0000387  -0.0000034   0.0000184   0.0000128
           13          14          15          16          17          18
    1   0.0000012   0.0000063   0.0000078  -0.0000127  -0.0000073   0.0000095
    2   0.0000112  -0.0000024  -0.0000031  -0.0000020  -0.0000030  -0.0000040
    3   0.0000081  -0.0000011   0.0000070   0.0000026  -0.0000000  -0.0000109
           19          20          21          22          23          24
    1  -0.0000031  -0.0000046  -0.0000086   0.0000014  -0.0000052   0.0000112
    2  -0.0000061   0.0000077   0.0000019   0.0000040   0.0000022  -0.0000070
    3  -0.0000111   0.0000122   0.0000099   0.0000124   0.0000057  -0.0000195
           25          26          27          28          29          30
    1   0.0000025  -0.0000053  -0.0000144   0.0000093   0.0000125   0.0000097
    2  -0.0000167   0.0000012  -0.0000072   0.0000019   0.0000079   0.0000011
    3  -0.0000134  -0.0000016  -0.0000058   0.0000016   0.0000023  -0.0000027
           31          32          33          34          35
    1   0.0000132  -0.0000049  -0.0000011   0.0000005  -0.0000054
    2   0.0000021   0.0000080   0.0000084   0.0000067   0.0000044
    3  -0.0000043   0.0000147   0.0000142   0.0000095   0.0000141
 Max gradient component =       3.873E-05
 RMS gradient           =       1.014E-05
 Gradient time:  CPU 392.19 s  wall 29.22 s
 Geometry Optimization Parameters
   NAtoms,    NIC,     NZ,  NCons,   NDum,   NFix, NCnnct, MaxDiis
       35     275       0       0       0       0       0       0


** GEOMETRY OPTIMIZATION IN DELOCALIZED INTERNAL COORDINATES **
   Searching for a Transition State

   Optimization Cycle:   1

                       Coordinates (Angstroms)
     ATOM                X               Y               Z
      1  C         0.5152534500    0.8862108800    0.6403531400
      2  C         0.1694125000   -0.6359870800    0.6479564700
      3  C        -0.4378258500    1.7463889400   -0.1770613800
      4  C        -1.2731508700   -0.9684390600    0.3066688100
      5  O        -1.0122600300    2.6844862400    0.6082603900
      6  O        -0.6278783400    1.6643961700   -1.3635202600
      7  O        -1.4489965500   -2.2926734700    0.1286376900
      8  O        -2.1865508300   -0.1800782200    0.3040607200
      9  C        -2.7988725500   -2.7246251700   -0.1285778400
     10  C        -2.0037720500    3.5043364500   -0.0354711500
     11  C         1.9421599700    0.8523645400    0.0019798600
     12  C         2.9010631300    0.1538498600    1.0110284800
     13  C         2.5603708200   -1.3444700900    0.7958649900
     14  C         1.3684119300   -1.2473388300   -0.1917938400
     15  O         1.7749562300   -0.1457460800   -1.0152207600
     16  H         0.5393279900    1.2889280300    1.6517917100
     17  H         0.2591773700   -1.0080408700    1.6735007400
     18  H        -3.1897517600   -2.2379306600   -1.0230041200
     19  H        -2.8155834900    2.8778571200   -0.4081327500
     20  H         3.9381934200    0.3707549000    0.7504021400
     21  H         2.7372571200    0.4947863600    2.0359479700
     22  H         3.3866066200   -1.8703354200    0.3132186300
     23  H         2.3098800400   -1.8788752400    1.7145001600
     24  H        -2.7336683900   -3.8006606400   -0.2743156600
     25  H        -3.4430133000   -2.4893150700    0.7201207900
     26  H        -1.5652080200    4.0602728700   -0.8656089800
     27  H        -2.3639759800    4.1838138200    0.7341641600
     28  C         1.1353919500   -2.4675593900   -1.0537384100
     29  H         2.0620739900   -2.7056628200   -1.5811765600
     30  H         0.8397996600   -3.3242256100   -0.4475354300
     31  H         0.3538044700   -2.2823248700   -1.7906103800
     32  C         2.4577098200    2.1482277800   -0.5842235900
     33  H         3.4498931900    1.9918688500   -1.0132122500
     34  H         1.7952816100    2.5118301200   -1.3697234900
     35  H         2.5369026900    2.9106056700    0.1960200200
   Point Group: c1    Number of degrees of freedom:    99


   Energy is   -844.525300982


 Attempting to Generate Delocalized Internal Coordinates

 99 Hessian modes will be used to form the next step
  Hessian Eigenvalues:
     0.002918    0.006271    0.006638    0.006902    0.007480    0.007590
     0.010130    0.010294    0.010536    0.010833    0.022052    0.022568
     0.022705    0.024696    0.034738    0.035854    0.037531    0.038396
     0.044023    0.045400    0.050377    0.050617    0.054180    0.056032
     0.057062    0.058013    0.058287    0.059670    0.060362    0.063219
     0.065166    0.065967    0.079863    0.086137    0.094262    0.101186
     0.101550    0.102034    0.106017    0.106078    0.111128    0.123095
     0.125949    0.153278    0.160000    0.160000    0.160000    0.160000
     0.160000    0.160000    0.160000    0.160000    0.160000    0.160000
     0.160000    0.160000    0.177986    0.226742    0.240259    0.249141
     0.249769    0.250000    0.250000    0.250000    0.250000    0.251331
     0.251955    0.259084    0.273207    0.301763    0.304431    0.310667
     0.311490    0.338740    0.342826    0.343838    0.345218    0.345267
     0.345593    0.345951    0.345991    0.346798    0.346817    0.346841
     0.346915    0.347303    0.347791    0.348089    0.348165    0.348965
     0.349366    0.350431    0.350663    0.395233    0.397747    0.546895
     0.555202    1.015884    1.026534
**WARNING** Hessian does not have the Desired Local Structure

 Transition State Search - Taking P-RFO Step
 Searching for Lamda that Maximizes Along the Lowest mode
 Value Taken    Lamda =   0.00291765
 Searching for Lamda that Minimizes Along All other modes
 Value Taken    Lamda =   0.00000000
 Calculated Step too Large.  Step scaled by  0.000048
 Step Taken.  Stepsize is  0.050000

                             Maximum     Tolerance    Cnvgd?
         Gradient           0.000020      0.000001      NO
         Displacement       0.021517      0.000001      NO
         Energy change     *********      0.000000      NO


 New Cartesian Coordinates Obtained by Inverse Iteration

 Displacement from previous Coordinates is:  0.136697
 Adding empirical dispersion correction 
 ----------------------------------------------------------------
 Doing -D3(op) with
 s6 =   1.00000
 s8 =   0.78311
 a1 =   0.30000
 a2 =   4.25000
 n  =  10.00000
 -D3 energy without 3body term =     -0.0407193147 hartrees
 ----------------------------------------------------------------
             Standard Nuclear Orientation (Angstroms)
    I     Atom           X                Y                Z
 ----------------------------------------------------------------
    1      C       0.5159407893     0.8846243145     0.6404410467
    2      C       0.1680037658    -0.6371392346     0.6474318114
    3      C      -0.4390328963     1.7471756660    -0.1722479270
    4      C      -1.2734819814    -0.9676752182     0.2997890815
    5      O      -1.0097360788     2.6845864317     0.6166059163
    6      O      -0.6332764832     1.6673513162    -1.3581758086
    7      O      -1.4504083591    -2.2917278992     0.1214772520
    8      O      -2.1857390345    -0.1780190095     0.2927716427
    9      C      -2.7997272157    -2.7218623304    -0.1416392809
   10      C      -2.0025849110     3.5065636123    -0.0223349727
   11      C       1.9410065509     0.8509677768    -0.0025041363
   12      C       2.9043922513     0.1584880758     1.0061301179
   13      C       2.5600374513    -1.3407516273     0.8035092949
   14      C       1.3695936367    -1.2502949512    -0.1869081459
   15      O       1.7741869738    -0.1517049665    -1.0152542433
   16      H       0.5437961750     1.2857896008     1.6523991278
   17      H       0.2526594899    -1.0088958183     1.6735181892
   18      H      -3.1858889329    -2.2349621597    -1.0380007180
   19      H      -2.8163550961     2.8815726275    -0.3932193053
   20      H       3.9403385717     0.3717376684     0.7378896320
   21      H       2.7470867772     0.5071334632     2.0294733884
   22      H       3.3857692278    -1.8730348182     0.3270755732
   23      H       2.3068372687    -1.8662390028     1.7265357065
   24      H      -2.7353986903    -3.7980460975    -0.2866695103
   25      H      -3.4473416964    -2.4853065340     0.7040641852
   26      H      -1.5662962285     4.0634034709    -0.8530660274
   27      H      -2.3593921508     4.1851513374     0.7496638426
   28      C       1.1402766592    -2.4751236496    -1.0432920264
   29      H       2.0682326027    -2.7139670226    -1.5681495870
   30      H       0.8454153726    -3.3294223498    -0.4334031678
   31      H       0.3594684775    -2.2949818826    -1.7822498354
   32      C       2.4521025219     2.1456277769    -0.5952300946
   33      H       3.4434139972     1.9897236970    -1.0263944508
   34      H       1.7866865287     2.5047170288    -1.3802806364
   35      H       2.5318346255     2.9112307179     0.1817940859
 ----------------------------------------------------------------
 Nuclear Repulsion Energy =  1389.2448499868 hartrees
 There are       65 alpha and       65 beta electrons
 Applying Cartesian multipole field
    Component          Value
    ---------          -----
     (2,0,0)        1.00000E-11
     (0,2,0)        2.00000E-11
     (0,0,2)       -3.00000E-11
 Nucleus-field energy     =     0.0000000424 hartrees
 Requested basis set is 6-311++G(d,p)
 There are 192 shells and 500 basis functions
 A cutoff of  1.0D-11 yielded  14940 shell pairs
 There are    103118 function pairs (    109886 Cartesian)
 Smallest overlap matrix eigenvalue = 3.93E-07

 Q-Chem warning in module /fs/scratch/osu6415/qchem-kaunlao-vdw/stvman/mkSTV.C, line 281:

 Overlap eigenvalue is smaller than square root of threshold

 Linear dependence detected in AO basis
 Number of orthogonalized atomic orbitals = 499
 Maximum deviation from orthogonality = 1.188E-10
 Guess MOs from SCF MO coefficient file
 Reading MOs from coefficient file
 Reading MOs from coefficient file
 A restricted hybrid HF-DFT SCF calculation will be
 performed using Pulay DIIS extrapolation
 Exchange:     0.2000 Hartree-Fock + 0.0800 Slater + 0.7200 B88
 Correlation:  0.1900 VWN1RPA + 0.8100 LYP
 Using SG-1 standard quadrature grid
 Dispersion:   Grimme D3
 SCF converges when DIIS error is below 1.0E-08
 Geometry optimization detected.  Setting ReadMinima to 0
 Setting SaveMinima to 0
 using 20 threads for integral computing
 -------------------------------------------------------
 OpenMP Integral computing Module                
 Release: version 1.0, May 2013, Q-Chem Inc. Pittsburgh 
 -------------------------------------------------------
 -------------------------------------------------------
 OpenMP BLAS3 based DFT computing Module                
 Release: version 1.0, May 2013, Q-Chem Inc. Pittsburgh 
 -------------------------------------------------------
 ---------------------------------------
  Cycle       Energy         DIIS Error
 ---------------------------------------
    1    -844.5203595816      2.02E-04
    2    -844.5252484599      3.72E-05
    3    -844.5252009951      5.84E-05
    4    -844.5252890139      1.11E-05
    5    -844.5252916224      3.35E-06
    6    -844.5252918721      8.40E-07
    7    -844.5252918879      3.20E-07
    8    -844.5252918896      1.22E-07
    9    -844.5252918898      3.33E-08
   10    -844.5252918935      1.55E-08
   11    -844.5252918878      3.76E-09 Convergence criterion met
 ---------------------------------------
 SCF time:  CPU 852.70 s  wall 45.20 s
 SCF   energy in the final basis set = -844.52529189
 Total energy in the final basis set = -844.52529189
 
 --------------------------------------------------------------
 
                    Orbital Energies (a.u.)
 --------------------------------------------------------------
 
 Alpha MOs
 -- Occupied --
-19.177 -19.161 -19.123 -19.120 -19.100 -10.311 -10.294 -10.240
-10.238 -10.232 -10.217 -10.207 -10.196 -10.176 -10.176 -10.163
-10.161  -1.120  -1.101  -1.059  -1.032  -1.014  -0.828  -0.803
 -0.779  -0.747  -0.723  -0.722  -0.669  -0.641  -0.598  -0.580
 -0.568  -0.550  -0.523  -0.506  -0.496  -0.490  -0.488  -0.480
 -0.471  -0.465  -0.455  -0.439  -0.430  -0.424  -0.412  -0.408
 -0.407  -0.400  -0.383  -0.371  -0.364  -0.363  -0.360  -0.353
 -0.351  -0.346  -0.328  -0.323  -0.318  -0.299  -0.291  -0.275
 -0.261
 -- Virtual --
 -0.020  -0.006  -0.003   0.001   0.007   0.010   0.013   0.020
  0.027   0.028   0.033   0.039   0.042   0.046   0.048   0.053
  0.058   0.066   0.067   0.071   0.075   0.081   0.084   0.090
  0.094   0.100   0.101   0.103   0.106   0.112   0.114   0.117
  0.119   0.121   0.127   0.129   0.132   0.135   0.137   0.138
  0.140   0.142   0.147   0.148   0.153   0.154   0.158   0.160
  0.162   0.167   0.170   0.171   0.173   0.175   0.180   0.181
  0.183   0.188   0.193   0.196   0.198   0.199   0.203   0.207
  0.210   0.212   0.214   0.221   0.225   0.227   0.234   0.240
  0.246   0.248   0.252   0.256   0.262   0.266   0.271   0.274
  0.281   0.285   0.288   0.294   0.300   0.301   0.311   0.314
  0.317   0.319   0.328   0.329   0.340   0.342   0.344   0.346
  0.353   0.355   0.360   0.361   0.366   0.368   0.373   0.383
  0.384   0.388   0.391   0.397   0.403   0.405   0.410   0.415
  0.419   0.432   0.437   0.441   0.449   0.458   0.467   0.474
  0.479   0.481   0.497   0.502   0.513   0.524   0.541   0.544
  0.551   0.558   0.561   0.579   0.583   0.591   0.597   0.610
  0.621   0.626   0.632   0.637   0.643   0.647   0.653   0.654
  0.665   0.669   0.672   0.675   0.677   0.687   0.692   0.694
  0.697   0.710   0.714   0.716   0.724   0.735   0.738   0.746
  0.751   0.757   0.766   0.774   0.776   0.785   0.793   0.807
  0.809   0.817   0.828   0.836   0.842   0.848   0.890   0.907
  0.924   0.940   0.959   0.987   0.999   1.017   1.033   1.045
  1.056   1.066   1.073   1.084   1.109   1.129   1.135   1.139
  1.192   1.193   1.203   1.209   1.217   1.227   1.235   1.239
  1.249   1.272   1.276   1.278   1.294   1.318   1.325   1.342
  1.346   1.356   1.373   1.388   1.389   1.395   1.413   1.434
  1.437   1.444   1.449   1.457   1.481   1.486   1.501   1.506
  1.518   1.531   1.551   1.554   1.559   1.567   1.573   1.576
  1.579   1.595   1.602   1.604   1.611   1.622   1.639   1.646
  1.653   1.667   1.680   1.684   1.694   1.707   1.711   1.716
  1.721   1.728   1.733   1.742   1.748   1.759   1.761   1.770
  1.787   1.794   1.800   1.812   1.826   1.830   1.842   1.851
  1.861   1.879   1.907   1.915   1.921   1.938   1.963   1.977
  1.986   2.002   2.012   2.028   2.034   2.038   2.057   2.080
  2.092   2.106   2.120   2.128   2.133   2.156   2.169   2.175
  2.185   2.197   2.211   2.223   2.237   2.249   2.270   2.301
  2.305   2.364   2.399   2.403   2.411   2.443   2.453   2.460
  2.478   2.493   2.496   2.507   2.518   2.523   2.525   2.532
  2.537   2.550   2.558   2.560   2.572   2.591   2.593   2.606
  2.618   2.643   2.660   2.667   2.681   2.686   2.709   2.716
  2.733   2.755   2.768   2.791   2.814   2.826   2.833   2.867
  2.872   2.881   2.892   2.901   2.922   2.928   2.954   2.960
  2.998   3.017   3.026   3.048   3.053   3.066   3.072   3.075
  3.089   3.095   3.102   3.130   3.135   3.158   3.176   3.179
  3.203   3.223   3.237   3.258   3.270   3.315   3.332   3.359
  3.381   3.402   3.406   3.418   3.544   3.605   3.621   3.667
  3.671   3.686   3.756   3.775   3.796   3.823   3.830   3.833
  3.843   3.853   3.866   3.952   3.963   4.034   4.054   4.119
  4.128   4.137   4.158   4.172   4.186   4.259   4.290   4.313
  4.444   4.507   5.057   5.071   5.116   5.177   5.250   5.296
  5.313   5.395   5.424   5.523   5.631   5.649   5.692   5.892
  5.910  23.763  23.836  23.853  23.882  23.898  23.927  23.946
 23.956  23.959  23.990  23.995  24.033  49.905  49.931  49.998
 50.028  50.067
 --------------------------------------------------------------
 
          Ground-State Mulliken Net Atomic Charges

     Atom                 Charge (a.u.)
  ----------------------------------------
      1 C                     0.497320
      2 C                     0.384705
      3 C                    -1.294887
      4 C                    -0.630125
      5 O                     0.052954
      6 O                    -0.158671
      7 O                    -0.066208
      8 O                    -0.183926
      9 C                    -0.239263
     10 C                    -0.192543
     11 C                    -0.196650
     12 C                    -0.331184
     13 C                    -0.479605
     14 C                    -0.394742
     15 O                     0.054408
     16 H                     0.295188
     17 H                     0.254094
     18 H                     0.194750
     19 H                     0.187479
     20 H                     0.172585
     21 H                     0.144894
     22 H                     0.170785
     23 H                     0.145229
     24 H                     0.150141
     25 H                     0.175194
     26 H                     0.167958
     27 H                     0.144631
     28 C                    -0.075228
     29 H                     0.154487
     30 H                     0.190983
     31 H                     0.185079
     32 C                     0.005478
     33 H                     0.174132
     34 H                     0.192284
     35 H                     0.148273
  ----------------------------------------
  Sum of atomic charges =    -0.000000

 -----------------------------------------------------------------
                    Cartesian Multipole Moments
 -----------------------------------------------------------------
    Charge (ESU x 10^10)
                -0.0000
    Dipole Moment (Debye)
         X       0.3774      Y      -1.5135      Z       2.6237
       Tot       3.0524
    Quadrupole Moments (Debye-Ang)
        XX     -95.7327     XY       3.7124     YY     -90.2957
        XZ       3.2809     YZ       1.4556     ZZ    -106.3140
    Octopole Moments (Debye-Ang^2)
       XXX     -71.2032    XXY     -15.3542    XYY     -50.8660
       YYY     -12.4209    XXZ      -1.0528    XYZ      -2.3230
       YYZ      -5.2209    XZZ     -23.0492    YZZ     -17.5856
       ZZZ      13.0993
    Hexadecapole Moments (Debye-Ang^3)
      XXXX   -2186.9598   XXXY      23.1732   XXYY    -656.1150
      XYYY     -33.7891   YYYY   -2192.8441   XXXZ     -15.4868
      XXYZ       5.2925   XYYZ      -8.0657   YYYZ      -0.7509
      XXZZ    -461.9401   XYZZ       5.5291   YYZZ    -474.9643
      XZZZ     -14.9601   YZZZ       7.0962   ZZZZ    -465.0422
 -----------------------------------------------------------------
 Calculating analytic gradient of the SCF energy
 Gradient of SCF Energy
            1           2           3           4           5           6
    1   0.0000937  -0.0001099   0.0000250   0.0000730   0.0000232  -0.0001647
    2  -0.0000580   0.0000509   0.0000201   0.0000255   0.0000283  -0.0000971
    3   0.0001550  -0.0001796   0.0000666   0.0000082  -0.0000315   0.0000309
            7           8           9          10          11          12
    1   0.0000039   0.0000412   0.0000134   0.0000087  -0.0002598   0.0002126
    2  -0.0000210   0.0001310  -0.0000066  -0.0000269   0.0000197  -0.0000464
    3   0.0000164  -0.0001535  -0.0000344   0.0000040  -0.0000628  -0.0000924
           13          14          15          16          17          18
    1  -0.0001516   0.0002627   0.0000477  -0.0000334   0.0000235   0.0000128
    2   0.0000436  -0.0001549  -0.0000450  -0.0000255   0.0000127  -0.0000054
    3   0.0001310  -0.0000042   0.0000372   0.0000249  -0.0000132  -0.0000172
           19          20          21          22          23          24
    1  -0.0000138   0.0000222   0.0000064  -0.0000314  -0.0000309   0.0000105
    2   0.0000019   0.0000162   0.0000423   0.0000263   0.0000335  -0.0000059
    3  -0.0000044   0.0000661   0.0000351  -0.0000325   0.0000546  -0.0000211
           25          26          27          28          29          30
    1   0.0000032  -0.0000076  -0.0000144  -0.0000052   0.0000023   0.0000282
    2  -0.0000192   0.0000065  -0.0000102   0.0000027   0.0000145   0.0000177
    3  -0.0000121  -0.0000051  -0.0000068   0.0000408  -0.0000194  -0.0000052
           31          32          33          34          35
    1  -0.0000131  -0.0000392  -0.0000077  -0.0000297  -0.0000018
    2   0.0000166  -0.0000042   0.0000104   0.0000007   0.0000055
    3  -0.0000318   0.0000431  -0.0000002  -0.0000002   0.0000135
 Max gradient component =       2.627E-04
 RMS gradient           =       6.757E-05
 Gradient time:  CPU 385.64 s  wall 26.39 s
 Geometry Optimization Parameters
   NAtoms,    NIC,     NZ,  NCons,   NDum,   NFix, NCnnct, MaxDiis
       35     275       0       0       0       0       0       0

 Cartesian Hessian Update
 Hessian Updated using Powell/Murtagh-Sargent Update
  Mixing factors:     0.000025 Powell
                      0.999975 Murtagh-Sargent


** GEOMETRY OPTIMIZATION IN DELOCALIZED INTERNAL COORDINATES **
   Searching for a Transition State

   Optimization Cycle:   2

                       Coordinates (Angstroms)
     ATOM                X               Y               Z
      1  C         0.5159407893    0.8846243145    0.6404410467
      2  C         0.1680037658   -0.6371392346    0.6474318114
      3  C        -0.4390328963    1.7471756660   -0.1722479270
      4  C        -1.2734819814   -0.9676752182    0.2997890815
      5  O        -1.0097360788    2.6845864317    0.6166059163
      6  O        -0.6332764832    1.6673513162   -1.3581758086
      7  O        -1.4504083591   -2.2917278992    0.1214772520
      8  O        -2.1857390345   -0.1780190095    0.2927716427
      9  C        -2.7997272157   -2.7218623304   -0.1416392809
     10  C        -2.0025849110    3.5065636123   -0.0223349727
     11  C         1.9410065509    0.8509677768   -0.0025041363
     12  C         2.9043922513    0.1584880758    1.0061301179
     13  C         2.5600374513   -1.3407516273    0.8035092949
     14  C         1.3695936367   -1.2502949512   -0.1869081459
     15  O         1.7741869738   -0.1517049665   -1.0152542433
     16  H         0.5437961750    1.2857896008    1.6523991278
     17  H         0.2526594899   -1.0088958183    1.6735181892
     18  H        -3.1858889329   -2.2349621597   -1.0380007180
     19  H        -2.8163550961    2.8815726275   -0.3932193053
     20  H         3.9403385717    0.3717376684    0.7378896320
     21  H         2.7470867772    0.5071334632    2.0294733884
     22  H         3.3857692278   -1.8730348182    0.3270755732
     23  H         2.3068372687   -1.8662390028    1.7265357065
     24  H        -2.7353986903   -3.7980460975   -0.2866695103
     25  H        -3.4473416964   -2.4853065340    0.7040641852
     26  H        -1.5662962285    4.0634034709   -0.8530660274
     27  H        -2.3593921508    4.1851513374    0.7496638426
     28  C         1.1402766592   -2.4751236496   -1.0432920264
     29  H         2.0682326027   -2.7139670226   -1.5681495870
     30  H         0.8454153726   -3.3294223498   -0.4334031678
     31  H         0.3594684775   -2.2949818826   -1.7822498354
     32  C         2.4521025219    2.1456277769   -0.5952300946
     33  H         3.4434139972    1.9897236970   -1.0263944508
     34  H         1.7866865287    2.5047170288   -1.3802806364
     35  H         2.5318346255    2.9112307179    0.1817940859
   Point Group: c1    Number of degrees of freedom:    99


   Energy is   -844.525291888

 Hessian Updated using Powell/Murtagh-Sargent Update
  Mixing factors:     0.976993 Powell
                      0.023007 Murtagh-Sargent

 98 Hessian modes will be used to form the next step
  Hessian Eigenvalues:
    -0.000774    0.006489    0.006796    0.007476    0.007582    0.009021
     0.010294    0.010350    0.010538    0.012757    0.022052    0.022576
     0.022734    0.024753    0.034886    0.035940    0.037531    0.038450
     0.044039    0.045406    0.050382    0.050859    0.054223    0.056122
     0.057134    0.058013    0.058288    0.059673    0.060364    0.063465
     0.065202    0.065988    0.079884    0.086246    0.094268    0.101186
     0.101553    0.102183    0.106018    0.106078    0.111173    0.123351
     0.126207    0.153730    0.160000    0.160000    0.160000    0.160000
     0.160000    0.160000    0.160000    0.160000    0.160000    0.160000
     0.160000    0.160018    0.178133    0.226794    0.240491    0.249245
     0.249784    0.250000    0.250000    0.250000    0.250110    0.251344
     0.252085    0.259098    0.273212    0.301767    0.304504    0.310675
     0.311491    0.338757    0.342827    0.343838    0.345273    0.345593
     0.345956    0.345993    0.346799    0.346817    0.346841    0.346915
     0.347303    0.347793    0.348097    0.348168    0.349000    0.349367
     0.350431    0.350663    0.395233    0.397748    0.546896    0.555202
     1.015900    1.026536

 Transition State Search - Taking P-RFO Step
 Searching for Lamda that Maximizes Along the Lowest mode
 Value Taken    Lamda =   0.00000090
 Searching for Lamda that Minimizes Along All other modes
 Value Taken    Lamda =  -0.00001410
 Step Taken.  Stepsize is  0.045386

                             Maximum     Tolerance    Cnvgd?
         Gradient           0.000315      0.000001      NO
         Displacement       0.018717      0.000001      NO
         Energy change      0.000009      0.000000      NO


 New Cartesian Coordinates Obtained by Inverse Iteration

 Displacement from previous Coordinates is:  0.127394
 Adding empirical dispersion correction 
 ----------------------------------------------------------------
 Doing -D3(op) with
 s6 =   1.00000
 s8 =   0.78311
 a1 =   0.30000
 a2 =   4.25000
 n  =  10.00000
 -D3 energy without 3body term =     -0.0407215709 hartrees
 ----------------------------------------------------------------
             Standard Nuclear Orientation (Angstroms)
    I     Atom           X                Y                Z
 ----------------------------------------------------------------
    1      C       0.5153455745     0.8861348808     0.6403130892
    2      C       0.1692476291    -0.6360364787     0.6478210342
    3      C      -0.4376663422     1.7466869714    -0.1767595826
    4      C      -1.2732665734    -0.9683736301     0.3061090576
    5      O      -1.0127245856     2.6839531133     0.6090796838
    6      O      -0.6268604406     1.6658467251    -1.3634429713
    7      O      -1.4491326073    -2.2925456513     0.1277463685
    8      O      -2.1867388230    -0.1800978971     0.3039845673
    9      C      -2.7990580675    -2.7243982532    -0.1293760230
   10      C      -2.0040000402     3.5042101002    -0.0345026761
   11      C       1.9421630705     0.8522841561     0.0016227683
   12      C       2.9014034240     0.1541465394     1.0105518580
   13      C       2.5602297831    -1.3442054247     0.7964324363
   14      C       1.3684515241    -1.2474750357    -0.1915265102
   15      O       1.7749021055    -0.1460915812    -1.0152910917
   16      H       0.5397506142     1.2886181363     1.6518356146
   17      H       0.2585810042    -1.0081603745     1.6733772569
   18      H      -3.1897067061    -2.2382037321    -1.0241826308
   19      H      -2.8156489717     2.8779466625    -0.4078865260
   20      H       3.9384129478     0.3705764908     0.7490613879
   21      H       2.7384006234     0.4957562509     2.0353728614
   22      H       3.3864226290    -1.8707871281     0.3144861891
   23      H       2.3093059293    -1.8777569364     1.7154391610
   24      H      -2.7340529693    -3.8005379934    -0.2744300499
   25      H      -3.4432774041    -2.4883906023     0.7190617313
   26      H      -1.5651163704     4.0606704675    -0.8641156061
   27      H      -2.3645170521     4.1831792974     0.7354337740
   28      C       1.1358080503    -2.4680551010    -1.0530615867
   29      H       2.0626734220    -2.7062728872    -1.5801274079
   30      H       0.8401409075    -3.3245142607    -0.4465995472
   31      H       0.3544052390    -2.2832042727    -1.7902155480
   32      C       2.4574478239     2.1480555623    -0.5850268122
   33      H       3.4496432826     1.9917426241    -1.0140036943
   34      H       1.7949164295     2.5112947157    -1.3706026997
   35      H       2.5365349003     2.9106945565     0.1949721440
 ----------------------------------------------------------------
 Nuclear Repulsion Energy =  1389.2079455537 hartrees
 There are       65 alpha and       65 beta electrons
 Applying Cartesian multipole field
    Component          Value
    ---------          -----
     (2,0,0)        1.00000E-11
     (0,2,0)        2.00000E-11
     (0,0,2)       -3.00000E-11
 Nucleus-field energy     =     0.0000000424 hartrees
 Requested basis set is 6-311++G(d,p)
 There are 192 shells and 500 basis functions
 A cutoff of  1.0D-11 yielded  14941 shell pairs
 There are    103123 function pairs (    109892 Cartesian)
 Smallest overlap matrix eigenvalue = 3.95E-07

 Q-Chem warning in module /fs/scratch/osu6415/qchem-kaunlao-vdw/stvman/mkSTV.C, line 281:

 Overlap eigenvalue is smaller than square root of threshold

 Linear dependence detected in AO basis
 Number of orthogonalized atomic orbitals = 499
 Maximum deviation from orthogonality = 1.438E-10
 Guess MOs from SCF MO coefficient file
 Reading MOs from coefficient file
 Reading MOs from coefficient file
 A restricted hybrid HF-DFT SCF calculation will be
 performed using Pulay DIIS extrapolation
 Exchange:     0.2000 Hartree-Fock + 0.0800 Slater + 0.7200 B88
 Correlation:  0.1900 VWN1RPA + 0.8100 LYP
 Using SG-1 standard quadrature grid
 Dispersion:   Grimme D3
 SCF converges when DIIS error is below 1.0E-08
 Geometry optimization detected.  Setting ReadMinima to 0
 Setting SaveMinima to 0
 using 20 threads for integral computing
 -------------------------------------------------------
 OpenMP Integral computing Module                
 Release: version 1.0, May 2013, Q-Chem Inc. Pittsburgh 
 -------------------------------------------------------
 -------------------------------------------------------
 OpenMP BLAS3 based DFT computing Module                
 Release: version 1.0, May 2013, Q-Chem Inc. Pittsburgh 
 -------------------------------------------------------
 ---------------------------------------
  Cycle       Energy         DIIS Error
 ---------------------------------------
    1    -844.5299455363      1.90E-04
    2    -844.5252618266      3.49E-05
    3    -844.5252207377      5.46E-05
    4    -844.5252979159      1.05E-05
    5    -844.5253002173      3.16E-06
    6    -844.5253004401      7.86E-07
    7    -844.5253004535      3.00E-07
    8    -844.5253004557      1.13E-07
    9    -844.5253004559      2.79E-08
   10    -844.5253004526      1.34E-08
   11    -844.5253004620      4.21E-09 Convergence criterion met
 ---------------------------------------
 SCF time:  CPU 846.00 s  wall 45.68 s
 SCF   energy in the final basis set = -844.52530046
 Total energy in the final basis set = -844.52530046
 
 --------------------------------------------------------------
 
                    Orbital Energies (a.u.)
 --------------------------------------------------------------
 
 Alpha MOs
 -- Occupied --
-19.177 -19.161 -19.123 -19.120 -19.100 -10.311 -10.294 -10.240
-10.238 -10.232 -10.217 -10.207 -10.196 -10.176 -10.176 -10.163
-10.161  -1.120  -1.101  -1.059  -1.032  -1.014  -0.828  -0.803
 -0.779  -0.747  -0.723  -0.722  -0.669  -0.641  -0.598  -0.580
 -0.568  -0.550  -0.523  -0.507  -0.496  -0.490  -0.489  -0.480
 -0.471  -0.465  -0.455  -0.439  -0.430  -0.424  -0.412  -0.408
 -0.407  -0.400  -0.383  -0.371  -0.365  -0.363  -0.360  -0.353
 -0.351  -0.346  -0.328  -0.323  -0.318  -0.299  -0.291  -0.275
 -0.261
 -- Virtual --
 -0.020  -0.006  -0.003   0.001   0.007   0.010   0.013   0.020
  0.027   0.028   0.033   0.039   0.042   0.046   0.048   0.053
  0.058   0.066   0.067   0.071   0.075   0.081   0.084   0.090
  0.094   0.100   0.101   0.103   0.106   0.112   0.114   0.116
  0.119   0.121   0.127   0.129   0.132   0.135   0.137   0.138
  0.140   0.142   0.147   0.148   0.153   0.154   0.158   0.160
  0.162   0.167   0.170   0.171   0.173   0.175   0.180   0.181
  0.183   0.188   0.193   0.196   0.198   0.199   0.203   0.207
  0.210   0.212   0.214   0.221   0.225   0.227   0.234   0.240
  0.246   0.248   0.252   0.256   0.262   0.266   0.271   0.274
  0.281   0.285   0.289   0.294   0.300   0.301   0.311   0.314
  0.316   0.319   0.328   0.329   0.340   0.342   0.344   0.346
  0.352   0.355   0.360   0.361   0.366   0.368   0.373   0.382
  0.384   0.388   0.391   0.397   0.403   0.405   0.410   0.415
  0.419   0.432   0.437   0.442   0.449   0.458   0.467   0.474
  0.479   0.481   0.497   0.502   0.513   0.524   0.541   0.544
  0.551   0.557   0.561   0.579   0.583   0.591   0.597   0.610
  0.621   0.626   0.632   0.637   0.643   0.647   0.653   0.653
  0.665   0.670   0.673   0.675   0.677   0.687   0.692   0.694
  0.697   0.710   0.714   0.716   0.724   0.735   0.739   0.746
  0.751   0.757   0.766   0.773   0.776   0.786   0.793   0.807
  0.809   0.817   0.828   0.836   0.842   0.848   0.889   0.907
  0.924   0.940   0.959   0.987   0.999   1.017   1.033   1.045
  1.056   1.065   1.073   1.083   1.109   1.130   1.135   1.138
  1.191   1.193   1.204   1.209   1.217   1.226   1.235   1.239
  1.248   1.272   1.275   1.278   1.294   1.318   1.325   1.343
  1.346   1.355   1.373   1.388   1.390   1.396   1.413   1.434
  1.437   1.443   1.449   1.457   1.481   1.486   1.501   1.506
  1.518   1.531   1.550   1.554   1.559   1.567   1.573   1.576
  1.579   1.595   1.602   1.604   1.612   1.622   1.639   1.646
  1.654   1.667   1.680   1.684   1.694   1.707   1.711   1.716
  1.721   1.728   1.733   1.742   1.748   1.759   1.761   1.770
  1.788   1.794   1.800   1.812   1.826   1.830   1.842   1.850
  1.861   1.878   1.906   1.915   1.921   1.938   1.963   1.977
  1.986   2.002   2.012   2.027   2.034   2.039   2.057   2.080
  2.092   2.106   2.120   2.128   2.133   2.156   2.169   2.175
  2.185   2.197   2.211   2.223   2.236   2.249   2.270   2.301
  2.305   2.363   2.399   2.404   2.411   2.443   2.453   2.460
  2.478   2.493   2.496   2.507   2.518   2.523   2.525   2.532
  2.537   2.550   2.558   2.560   2.572   2.591   2.593   2.606
  2.618   2.643   2.660   2.666   2.681   2.686   2.709   2.716
  2.733   2.756   2.768   2.791   2.813   2.826   2.833   2.867
  2.872   2.881   2.892   2.900   2.922   2.927   2.953   2.960
  2.997   3.017   3.026   3.048   3.053   3.066   3.072   3.075
  3.089   3.096   3.103   3.130   3.135   3.157   3.176   3.179
  3.203   3.223   3.237   3.258   3.270   3.314   3.333   3.360
  3.382   3.402   3.407   3.418   3.545   3.605   3.621   3.667
  3.671   3.686   3.755   3.775   3.796   3.823   3.830   3.833
  3.843   3.853   3.866   3.952   3.963   4.033   4.054   4.118
  4.128   4.137   4.159   4.172   4.186   4.258   4.289   4.313
  4.444   4.507   5.057   5.072   5.116   5.175   5.251   5.296
  5.312   5.395   5.424   5.523   5.631   5.649   5.691   5.892
  5.910  23.763  23.836  23.853  23.881  23.898  23.927  23.946
 23.956  23.959  23.989  23.995  24.033  49.905  49.931  49.998
 50.028  50.067
 --------------------------------------------------------------
 
          Ground-State Mulliken Net Atomic Charges

     Atom                 Charge (a.u.)
  ----------------------------------------
      1 C                     0.489258
      2 C                     0.386291
      3 C                    -1.291557
      4 C                    -0.625444
      5 O                     0.053010
      6 O                    -0.157914
      7 O                    -0.065997
      8 O                    -0.184440
      9 C                    -0.239289
     10 C                    -0.193299
     11 C                    -0.191142
     12 C                    -0.332344
     13 C                    -0.479029
     14 C                    -0.397700
     15 O                     0.055000
     16 H                     0.295115
     17 H                     0.254867
     18 H                     0.194708
     19 H                     0.187579
     20 H                     0.172686
     21 H                     0.145364
     22 H                     0.170472
     23 H                     0.145387
     24 H                     0.150190
     25 H                     0.175253
     26 H                     0.167964
     27 H                     0.144599
     28 C                    -0.074250
     29 H                     0.154423
     30 H                     0.191065
     31 H                     0.184891
     32 C                    -0.000081
     33 H                     0.174102
     34 H                     0.192056
     35 H                     0.148207
  ----------------------------------------
  Sum of atomic charges =    -0.000000

 -----------------------------------------------------------------
                    Cartesian Multipole Moments
 -----------------------------------------------------------------
    Charge (ESU x 10^10)
                -0.0000
    Dipole Moment (Debye)
         X       0.3751      Y      -1.5161      Z       2.6189
       Tot       3.0493
    Quadrupole Moments (Debye-Ang)
        XX     -95.7305     XY       3.7097     YY     -90.2853
        XZ       3.3263     YZ       1.4264     ZZ    -106.3345
    Octopole Moments (Debye-Ang^2)
       XXX     -71.1967    XXY     -15.3399    XYY     -50.9180
       YYY     -12.5247    XXZ      -1.1393    XYZ      -2.0891
       YYZ      -5.2569    XZZ     -23.0575    YZZ     -17.6208
       ZZZ      13.1341
    Hexadecapole Moments (Debye-Ang^3)
      XXXX   -2187.0955   XXXY      22.3011   XXYY    -655.7700
      XYYY     -34.3328   YYYY   -2191.6604   XXXZ     -14.6403
      XXYZ       5.4312   XYYZ      -7.8204   YYYZ       0.1573
      XXZZ    -462.1724   XYZZ       5.0621   YYZZ    -474.8947
      XZZZ     -14.4071   YZZZ       8.8591   ZZZZ    -466.0585
 -----------------------------------------------------------------
 Calculating analytic gradient of the SCF energy
 Gradient of SCF Energy
            1           2           3           4           5           6
    1  -0.0000007  -0.0000126  -0.0000282   0.0000035  -0.0000010   0.0000402
    2   0.0000006  -0.0000103  -0.0000378   0.0000292   0.0000163   0.0000297
    3   0.0000020   0.0000174  -0.0000391  -0.0000808   0.0000080   0.0000051
            7           8           9          10          11          12
    1  -0.0000005  -0.0000123   0.0000106  -0.0000098  -0.0000076   0.0000014
    2  -0.0000123  -0.0000461  -0.0000035  -0.0000108   0.0000111   0.0000024
    3   0.0000263   0.0000342  -0.0000357  -0.0000046   0.0000165   0.0000135
           13          14          15          16          17          18
    1  -0.0000060   0.0000109   0.0000065  -0.0000042  -0.0000050   0.0000089
    2   0.0000105   0.0000012   0.0000157  -0.0000095  -0.0000080  -0.0000038
    3   0.0000088  -0.0000005   0.0000012   0.0000038  -0.0000022  -0.0000128
           19          20          21          22          23          24
    1  -0.0000017  -0.0000052  -0.0000022   0.0000036  -0.0000086   0.0000099
    2  -0.0000077   0.0000046   0.0000058   0.0000020   0.0000099  -0.0000074
    3  -0.0000132   0.0000108   0.0000126   0.0000134   0.0000079  -0.0000189
           25          26          27          28          29          30
    1   0.0000034  -0.0000053  -0.0000139   0.0000103   0.0000138   0.0000104
    2  -0.0000147  -0.0000001  -0.0000069   0.0000038   0.0000069   0.0000016
    3  -0.0000147  -0.0000017  -0.0000052   0.0000030   0.0000024  -0.0000020
           31          32          33          34          35
    1   0.0000143  -0.0000082  -0.0000019  -0.0000047  -0.0000079
    2   0.0000037   0.0000019   0.0000091   0.0000095   0.0000035
    3  -0.0000026   0.0000167   0.0000122   0.0000061   0.0000122
 Max gradient component =       8.079E-05
 RMS gradient           =       1.579E-05
 Gradient time:  CPU 387.71 s  wall 26.64 s
 Geometry Optimization Parameters
   NAtoms,    NIC,     NZ,  NCons,   NDum,   NFix, NCnnct, MaxDiis
       35     275       0       0       0       0       0       0

 Cartesian Hessian Update
 Hessian Updated using Powell/Murtagh-Sargent Update
  Mixing factors:     0.997677 Powell
                      0.002323 Murtagh-Sargent


** GEOMETRY OPTIMIZATION IN DELOCALIZED INTERNAL COORDINATES **
   Searching for a Transition State

   Optimization Cycle:   3

                       Coordinates (Angstroms)
     ATOM                X               Y               Z
      1  C         0.5153455745    0.8861348808    0.6403130892
      2  C         0.1692476291   -0.6360364787    0.6478210342
      3  C        -0.4376663422    1.7466869714   -0.1767595826
      4  C        -1.2732665734   -0.9683736301    0.3061090576
      5  O        -1.0127245856    2.6839531133    0.6090796838
      6  O        -0.6268604406    1.6658467251   -1.3634429713
      7  O        -1.4491326073   -2.2925456513    0.1277463685
      8  O        -2.1867388230   -0.1800978971    0.3039845673
      9  C        -2.7990580675   -2.7243982532   -0.1293760230
     10  C        -2.0040000402    3.5042101002   -0.0345026761
     11  C         1.9421630705    0.8522841561    0.0016227683
     12  C         2.9014034240    0.1541465394    1.0105518580
     13  C         2.5602297831   -1.3442054247    0.7964324363
     14  C         1.3684515241   -1.2474750357   -0.1915265102
     15  O         1.7749021055   -0.1460915812   -1.0152910917
     16  H         0.5397506142    1.2886181363    1.6518356146
     17  H         0.2585810042   -1.0081603745    1.6733772569
     18  H        -3.1897067061   -2.2382037321   -1.0241826308
     19  H        -2.8156489717    2.8779466625   -0.4078865260
     20  H         3.9384129478    0.3705764908    0.7490613879
     21  H         2.7384006234    0.4957562509    2.0353728614
     22  H         3.3864226290   -1.8707871281    0.3144861891
     23  H         2.3093059293   -1.8777569364    1.7154391610
     24  H        -2.7340529693   -3.8005379934   -0.2744300499
     25  H        -3.4432774041   -2.4883906023    0.7190617313
     26  H        -1.5651163704    4.0606704675   -0.8641156061
     27  H        -2.3645170521    4.1831792974    0.7354337740
     28  C         1.1358080503   -2.4680551010   -1.0530615867
     29  H         2.0626734220   -2.7062728872   -1.5801274079
     30  H         0.8401409075   -3.3245142607   -0.4465995472
     31  H         0.3544052390   -2.2832042727   -1.7902155480
     32  C         2.4574478239    2.1480555623   -0.5850268122
     33  H         3.4496432826    1.9917426241   -1.0140036943
     34  H         1.7949164295    2.5112947157   -1.3706026997
     35  H         2.5365349003    2.9106945565    0.1949721440
   Point Group: c1    Number of degrees of freedom:    99


   Energy is   -844.525300462

 Hessian Updated using Powell/Murtagh-Sargent Update
  Mixing factors:     0.999355 Powell
                      0.000645 Murtagh-Sargent

 89 Hessian modes will be used to form the next step
  Hessian Eigenvalues:
    -0.002364    0.006473    0.006790    0.007476    0.007584    0.008761
     0.010276    0.010386    0.010538    0.014073    0.022054    0.022572
     0.022768    0.024805    0.034968    0.035912    0.037532    0.038448
     0.044049    0.045417    0.050384    0.050920    0.054229    0.056114
     0.057127    0.058013    0.058288    0.059672    0.060364    0.063523
     0.065215    0.065996    0.079899    0.086239    0.094266    0.101187
     0.101553    0.102233    0.106018    0.106079    0.111184    0.123399
     0.126253    0.153850    0.160000    0.160000    0.160018    0.178160
     0.226814    0.240510    0.249272    0.249785    0.250000    0.250001
     0.250126    0.251349    0.252082    0.259105    0.273212    0.301767
     0.304512    0.310674    0.311491    0.338760    0.342827    0.343838
     0.345218    0.345273    0.345593    0.345956    0.345993    0.346799
     0.346817    0.346841    0.346915    0.347303    0.347793    0.348097
     0.348167    0.349002    0.349367    0.350431    0.350663    0.395233
     0.397748    0.546897    0.555202    1.015903    1.026537

 Transition State Search - Taking P-RFO Step
 Searching for Lamda that Maximizes Along the Lowest mode
 Value Taken    Lamda =   0.00000103
 Searching for Lamda that Minimizes Along All other modes
 Value Taken    Lamda =   0.00000000
 Step Taken.  Stepsize is  0.021435

                             Maximum     Tolerance    Cnvgd?
         Gradient           0.000068      0.000001      NO
         Displacement       0.010525      0.000001      NO
         Energy change     -0.000009      0.000000      NO


 New Cartesian Coordinates Obtained by Inverse Iteration

 Displacement from previous Coordinates is:  0.044274
 Adding empirical dispersion correction 
 ----------------------------------------------------------------
 Doing -D3(op) with
 s6 =   1.00000
 s8 =   0.78311
 a1 =   0.30000
 a2 =   4.25000
 n  =  10.00000
 -D3 energy without 3body term =     -0.0407178952 hartrees
 ----------------------------------------------------------------
             Standard Nuclear Orientation (Angstroms)
    I     Atom           X                Y                Z
 ----------------------------------------------------------------
    1      C       0.5159221433     0.8861329656     0.6401099227
    2      C       0.1687108636    -0.6359122868     0.6476279396
    3      C      -0.4370832359     1.7479517466    -0.1756511690
    4      C      -1.2736301696    -0.9677435639     0.3044536921
    5      O      -1.0138116254     2.6827037873     0.6119521710
    6      O      -0.6248274446     1.6700643074    -1.3627637744
    7      O      -1.4494055832    -2.2917060181     0.1244695185
    8      O      -2.1872377709    -0.1796312833     0.3034153068
    9      C      -2.7993018095    -2.7233218113    -0.1332150497
   10      C      -2.0051694981     3.5036293498    -0.0306683156
   11      C       1.9423097498     0.8519636828     0.0001432919
   12      C       2.9028163816     0.1553090395     1.0086574475
   13      C       2.5596162213    -1.3431772846     0.7988962709
   14      C       1.3684933356    -1.2480784172    -0.1901493966
   15      O       1.7747117243    -0.1477187577    -1.0154275221
   16      H       0.5416561818     1.2880118059     1.6518347830
   17      H       0.2563580082    -1.0080391813     1.6733361193
   18      H      -3.1898010757    -2.2364058884    -1.0276944366
   19      H      -2.8158669264     2.8775165839    -0.4063671427
   20      H       3.9393435806     0.3697578046     0.7436742860
   21      H       2.7430188113     0.4996879671     2.0330356837
   22      H       3.3855022973    -1.8727799141     0.3197265919
   23      H       2.3069698604    -1.8732485462     1.7194240893
   24      H      -2.7342903694    -3.7993462569    -0.2791214069
   25      H      -3.4436555250    -2.4879683115     0.7152994524
   26      H      -1.5659318106     4.0624207053    -0.8585212909
   27      H      -2.3670717982     4.1804547488     0.7405042742
   28      C       1.1369573278    -2.4701802610    -1.0498470496
   29      H       2.0643770443    -2.7090043870    -1.5756597999
   30      H       0.8410232983    -3.3257208588    -0.4422008967
   31      H       0.3561421902    -2.2868565035    -1.7879729946
   32      C       2.4568208359     2.1471913140    -0.5884525326
   33      H       3.4488497922     1.9906419004    -1.0177289722
   34      H       1.7937988137     2.5092685834    -1.3741251711
   35      H       2.5361061411     2.9108232492     0.1905561002
 ----------------------------------------------------------------
 Nuclear Repulsion Energy =  1389.1571486224 hartrees
 There are       65 alpha and       65 beta electrons
 Applying Cartesian multipole field
    Component          Value
    ---------          -----
     (2,0,0)        1.00000E-11
     (0,2,0)        2.00000E-11
     (0,0,2)       -3.00000E-11
 Nucleus-field energy     =     0.0000000424 hartrees
 Requested basis set is 6-311++G(d,p)
 There are 192 shells and 500 basis functions
 A cutoff of  1.0D-11 yielded  14941 shell pairs
 There are    103123 function pairs (    109892 Cartesian)
 Smallest overlap matrix eigenvalue = 3.95E-07

 Q-Chem warning in module /fs/scratch/osu6415/qchem-kaunlao-vdw/stvman/mkSTV.C, line 281:

 Overlap eigenvalue is smaller than square root of threshold

 Linear dependence detected in AO basis
 Number of orthogonalized atomic orbitals = 499
 Maximum deviation from orthogonality = 1.397E-10
 Guess MOs from SCF MO coefficient file
 Reading MOs from coefficient file
 Reading MOs from coefficient file
 A restricted hybrid HF-DFT SCF calculation will be
 performed using Pulay DIIS extrapolation
 Exchange:     0.2000 Hartree-Fock + 0.0800 Slater + 0.7200 B88
 Correlation:  0.1900 VWN1RPA + 0.8100 LYP
 Using SG-1 standard quadrature grid
 Dispersion:   Grimme D3
 SCF converges when DIIS error is below 1.0E-08
 Geometry optimization detected.  Setting ReadMinima to 0
 Setting SaveMinima to 0
 using 20 threads for integral computing
 -------------------------------------------------------
 OpenMP Integral computing Module                
 Release: version 1.0, May 2013, Q-Chem Inc. Pittsburgh 
 -------------------------------------------------------
 -------------------------------------------------------
 OpenMP BLAS3 based DFT computing Module                
 Release: version 1.0, May 2013, Q-Chem Inc. Pittsburgh 
 -------------------------------------------------------
 ---------------------------------------
  Cycle       Energy         DIIS Error
 ---------------------------------------
    1    -844.5241604821      6.37E-05
    2    -844.5252941365      9.59E-06
    3    -844.5252907589      1.55E-05
    4    -844.5252968629      2.82E-06
    5    -844.5252970170      1.06E-06
    6    -844.5252970421      2.69E-07
    7    -844.5252970441      1.18E-07
    8    -844.5252970433      3.81E-08
    9    -844.5252970439      1.08E-08
   10    -844.5252970519      5.54E-09 Convergence criterion met
 ---------------------------------------
 SCF time:  CPU 768.02 s  wall 42.01 s
 SCF   energy in the final basis set = -844.52529705
 Total energy in the final basis set = -844.52529705
 
 --------------------------------------------------------------
 
                    Orbital Energies (a.u.)
 --------------------------------------------------------------
 
 Alpha MOs
 -- Occupied --
-19.177 -19.161 -19.123 -19.120 -19.100 -10.311 -10.294 -10.240
-10.238 -10.232 -10.217 -10.207 -10.196 -10.176 -10.176 -10.163
-10.161  -1.120  -1.101  -1.059  -1.032  -1.014  -0.828  -0.803
 -0.779  -0.747  -0.723  -0.722  -0.669  -0.641  -0.598  -0.580
 -0.568  -0.550  -0.523  -0.506  -0.496  -0.490  -0.489  -0.480
 -0.471  -0.465  -0.455  -0.439  -0.430  -0.424  -0.412  -0.408
 -0.407  -0.400  -0.383  -0.371  -0.365  -0.363  -0.360  -0.353
 -0.351  -0.346  -0.328  -0.323  -0.318  -0.299  -0.291  -0.275
 -0.261
 -- Virtual --
 -0.020  -0.006  -0.003   0.001   0.007   0.010   0.013   0.020
  0.027   0.028   0.033   0.039   0.042   0.046   0.048   0.053
  0.058   0.066   0.067   0.071   0.075   0.081   0.084   0.090
  0.094   0.100   0.101   0.103   0.106   0.112   0.114   0.116
  0.119   0.121   0.127   0.129   0.132   0.135   0.137   0.138
  0.140   0.142   0.147   0.148   0.153   0.154   0.158   0.160
  0.162   0.167   0.170   0.171   0.173   0.175   0.180   0.181
  0.183   0.188   0.193   0.196   0.198   0.199   0.203   0.207
  0.210   0.212   0.214   0.221   0.225   0.227   0.234   0.240
  0.246   0.248   0.252   0.256   0.262   0.266   0.271   0.274
  0.281   0.285   0.289   0.294   0.300   0.301   0.311   0.314
  0.316   0.319   0.328   0.329   0.340   0.342   0.344   0.346
  0.352   0.355   0.360   0.361   0.366   0.368   0.373   0.382
  0.384   0.388   0.391   0.397   0.403   0.405   0.410   0.415
  0.419   0.432   0.437   0.441   0.449   0.458   0.467   0.474
  0.479   0.481   0.497   0.502   0.513   0.524   0.540   0.544
  0.551   0.558   0.561   0.579   0.583   0.591   0.597   0.610
  0.621   0.626   0.632   0.637   0.643   0.647   0.653   0.653
  0.665   0.669   0.673   0.675   0.677   0.687   0.692   0.694
  0.697   0.710   0.714   0.716   0.724   0.735   0.739   0.746
  0.751   0.757   0.766   0.773   0.776   0.785   0.793   0.807
  0.809   0.817   0.828   0.836   0.842   0.848   0.889   0.907
  0.924   0.940   0.959   0.987   0.999   1.017   1.033   1.045
  1.056   1.066   1.073   1.083   1.109   1.130   1.135   1.138
  1.191   1.193   1.204   1.209   1.217   1.226   1.235   1.239
  1.248   1.272   1.276   1.278   1.294   1.318   1.325   1.343
  1.346   1.355   1.373   1.388   1.390   1.396   1.413   1.434
  1.437   1.443   1.449   1.457   1.481   1.485   1.501   1.506
  1.518   1.531   1.550   1.554   1.559   1.567   1.573   1.576
  1.579   1.595   1.602   1.604   1.611   1.622   1.639   1.646
  1.654   1.667   1.680   1.684   1.694   1.707   1.711   1.716
  1.721   1.728   1.733   1.742   1.748   1.759   1.761   1.770
  1.787   1.794   1.800   1.812   1.826   1.830   1.842   1.850
  1.861   1.879   1.906   1.915   1.921   1.938   1.963   1.978
  1.985   2.002   2.012   2.027   2.034   2.038   2.057   2.080
  2.092   2.106   2.120   2.128   2.133   2.156   2.169   2.175
  2.185   2.197   2.211   2.223   2.236   2.249   2.270   2.300
  2.305   2.363   2.399   2.404   2.411   2.443   2.453   2.460
  2.478   2.493   2.496   2.507   2.518   2.523   2.525   2.532
  2.537   2.550   2.558   2.560   2.572   2.591   2.593   2.606
  2.618   2.643   2.660   2.666   2.681   2.686   2.709   2.716
  2.733   2.756   2.768   2.791   2.813   2.826   2.833   2.867
  2.872   2.881   2.892   2.901   2.922   2.927   2.953   2.960
  2.998   3.017   3.026   3.048   3.053   3.066   3.072   3.075
  3.089   3.096   3.103   3.130   3.135   3.157   3.176   3.179
  3.203   3.223   3.237   3.258   3.270   3.315   3.333   3.360
  3.382   3.402   3.407   3.418   3.545   3.605   3.621   3.667
  3.671   3.686   3.755   3.775   3.796   3.823   3.830   3.833
  3.843   3.853   3.866   3.952   3.963   4.033   4.054   4.118
  4.128   4.137   4.159   4.172   4.186   4.258   4.289   4.313
  4.444   4.507   5.057   5.072   5.116   5.175   5.251   5.296
  5.312   5.395   5.424   5.523   5.631   5.649   5.692   5.892
  5.910  23.763  23.836  23.853  23.881  23.898  23.927  23.946
 23.956  23.959  23.989  23.995  24.033  49.906  49.931  49.998
 50.028  50.067
 --------------------------------------------------------------
 
          Ground-State Mulliken Net Atomic Charges

     Atom                 Charge (a.u.)
  ----------------------------------------
      1 C                     0.491702
      2 C                     0.386226
      3 C                    -1.289961
      4 C                    -0.627836
      5 O                     0.052817
      6 O                    -0.158260
      7 O                    -0.066177
      8 O                    -0.184446
      9 C                    -0.239496
     10 C                    -0.193546
     11 C                    -0.193312
     12 C                    -0.332293
     13 C                    -0.478935
     14 C                    -0.396769
     15 O                     0.054920
     16 H                     0.295329
     17 H                     0.254505
     18 H                     0.194705
     19 H                     0.187606
     20 H                     0.172518
     21 H                     0.145230
     22 H                     0.170648
     23 H                     0.145274
     24 H                     0.150176
     25 H                     0.175263
     26 H                     0.167905
     27 H                     0.144649
     28 C                    -0.074648
     29 H                     0.154438
     30 H                     0.191056
     31 H                     0.184956
     32 C                     0.001643
     33 H                     0.174007
     34 H                     0.191968
     35 H                     0.148137
  ----------------------------------------
  Sum of atomic charges =    -0.000000

 -----------------------------------------------------------------
                    Cartesian Multipole Moments
 -----------------------------------------------------------------
    Charge (ESU x 10^10)
                -0.0000
    Dipole Moment (Debye)
         X       0.3720      Y      -1.5186      Z       2.6189
       Tot       3.0501
    Quadrupole Moments (Debye-Ang)
        XX     -95.7291     XY       3.7100     YY     -90.2981
        XZ       3.3356     YZ       1.4402     ZZ    -106.3371
    Octopole Moments (Debye-Ang^2)
       XXX     -71.2289    XXY     -15.3479    XYY     -50.9101
       YYY     -12.5935    XXZ      -1.1642    XYZ      -2.1403
       YYZ      -5.1883    XZZ     -23.0735    YZZ     -17.6572
       ZZZ      13.1390
    Hexadecapole Moments (Debye-Ang^3)
      XXXX   -2187.7477   XXXY      22.4211   XXYY    -655.8766
      XYYY     -34.1311   YYYY   -2191.8095   XXXZ     -14.5768
      XXYZ       5.3957   XYYZ      -7.8381   YYYZ       0.0527
      XXZZ    -462.2111   XYZZ       5.2079   YYZZ    -474.9570
      XZZZ     -14.3150   YZZZ       8.4625   ZZZZ    -465.8770
 -----------------------------------------------------------------
 Calculating analytic gradient of the SCF energy
 Gradient of SCF Energy
            1           2           3           4           5           6
    1  -0.0000349  -0.0000269  -0.0000015   0.0000066  -0.0000171   0.0000889
    2  -0.0000241  -0.0000273  -0.0000384   0.0000627   0.0000268   0.0000721
    3   0.0000046   0.0000598  -0.0001124  -0.0001509   0.0000280   0.0000116
            7           8           9          10          11          12
    1   0.0000149  -0.0000419   0.0000121  -0.0000067  -0.0000080   0.0000175
    2  -0.0000197  -0.0001076  -0.0000025  -0.0000096   0.0000330  -0.0000046
    3   0.0000409   0.0001037  -0.0000358  -0.0000037   0.0000066   0.0000129
[...]
     0.00005628     -0.00004603     -0.00000522
    -0.00004061     -0.00004814      0.00017375
    -0.00000720      0.00001130      0.00005161
    -0.00066736     -0.00014345      0.00041958
    -0.05375590      0.00141232      0.04681847
     0.03416107      0.00505101     -0.04973027
     0.00099349      0.00031229     -0.00056959
    -0.00010334     -0.00010600      0.00012053
     0.00318088      0.03068173      0.07859664
     0.00787463     -0.02624580      0.07560516
    -0.00033491      0.00051710     -0.00088186
     0.00000657     -0.00001370     -0.00002245
     0.57467385      0.11711164     -0.14531910
     0.06178319     -0.13693354     -0.41443906
    -0.29209978      0.18454582      0.16682658
    -0.11767589     -0.24262092      0.42573828
    -0.00003041      0.00028308      0.00004239
     0.00082719     -0.00030991     -0.00110094
     0.00002374      0.00007601     -0.00014120
     0.00000759     -0.00005053     -0.00010657
    -0.00431768     -0.00114547      0.00115154
     0.02513476     -0.00598221     -0.01307409
     0.00820030      0.02487334     -0.01815341
     0.01659146     -0.00480565      0.01759619
     0.00701491     -0.00620710     -0.00622549
    -0.07846998      0.01357157      0.03153263
    -0.00970015      0.00489715     -0.01632544
     0.00706450      0.05655601      0.05822525
vibration 90
     0.00022299     -0.00112272     -0.00326098
    -0.00017983      0.00081273     -0.00184999
     0.00021967      0.00002680      0.00019081
    -0.00007473      0.00002049     -0.00002069
    -0.00004277     -0.00002281     -0.00002031
     0.00003662      0.00000480     -0.00008729
    -0.00001684     -0.00001423      0.00000933
     0.00003787     -0.00004499      0.00000127
     0.00001934     -0.00004456      0.00006425
    -0.00025831     -0.00036465      0.00023155
    -0.00105384      0.00064879      0.00135159
     0.00281336     -0.00065235     -0.00391826
     0.01280050      0.00064582     -0.01710723
     0.00025926     -0.00007865     -0.00019015
    -0.00001890     -0.00029620     -0.00018608
     0.00174135      0.01449404      0.03516330
     0.00226544     -0.00824511      0.02260332
    -0.00025649      0.00034694     -0.00060271
     0.00153046      0.00133093      0.00081241
    -0.02653528     -0.00659537      0.00810662
    -0.00560802      0.01389601      0.03625330
    -0.11472840      0.07264110      0.06629128
    -0.03812355     -0.07917074      0.13753377
    -0.00002420      0.00019337      0.00003143
     0.00009538     -0.00003559     -0.00013144
     0.00207829      0.00253169     -0.00376764
    -0.00029807      0.00038224      0.00045959
    -0.00226720     -0.00051047      0.00063687
     0.01436657     -0.00359304     -0.00765075
     0.00393718      0.01221519     -0.00875941
     0.00834295     -0.00235469      0.00885961
    -0.04566064      0.04246496      0.06417999
     0.66171265     -0.10292161     -0.27323897
    -0.05956461      0.03674074     -0.04283107
    -0.05604608     -0.44418228     -0.45457522
vibration 91
    -0.00159267     -0.02046055     -0.05282505
     0.00001407      0.00147643     -0.00261832
     0.00083651     -0.00116317     -0.00094689
     0.00034567      0.00026043     -0.00004889
    -0.00008389      0.00016820      0.00019005
     0.00000319      0.00010837      0.00034090
    -0.00003343     -0.00009822     -0.00007143
    -0.00012505     -0.00000666      0.00002512
     0.00009811     -0.00006667     -0.00019734
    -0.00022635      0.00029532     -0.00000791
    -0.00115970      0.00012403      0.00042902
    -0.03117800      0.00063499      0.02581168
    -0.03371887      0.00019512      0.04325042
    -0.00094607      0.00020138      0.00065330
     0.00018267      0.00010673     -0.00003983
     0.01828258      0.24277412      0.62290859
     0.00456442     -0.01369949      0.03228971
     0.00017775     -0.00031603      0.00052407
     0.00257177      0.00167825      0.00110939
     0.33922626      0.07058572     -0.08472901
     0.03360323     -0.07647257     -0.22332787
     0.31177642     -0.19868245     -0.18047610
     0.09293156      0.19421792     -0.33585972
    -0.00011962      0.00048027      0.00005319
    -0.00117311      0.00045689      0.00158544
    -0.00138830     -0.00201991      0.00283156
     0.00092417     -0.00198067     -0.00255107
     0.00969982      0.00212192     -0.00212824
    -0.05686796      0.01397348      0.03105723
    -0.01624341     -0.05073381      0.03625880
    -0.04160127      0.01109529     -0.04209314
    -0.00387781      0.00397657      0.01074975
     0.08966009     -0.01245475     -0.03708119
    -0.03430112      0.01898586     -0.03708086
    -0.00641572     -0.05461296     -0.05587409
vibration 92
    -0.00209087     -0.02211589     -0.05679717
    -0.00070335      0.00356710     -0.00837594
     0.00068140     -0.00117807     -0.00133398
    -0.00001170     -0.00002943     -0.00011600
    -0.00003712      0.00015800      0.00027223
     0.00001235      0.00008792      0.00063752
    -0.00005716      0.00007887      0.00003937
    -0.00001683      0.00001012      0.00001165
    -0.00009950     -0.00009799      0.00092786
    -0.00045453      0.00030919      0.00003501
     0.00018708     -0.00102633     -0.00131139
     0.03077350     -0.00360181     -0.03395967
     0.02398113      0.00063258     -0.03148110
     0.00040303      0.00087754     -0.00057136
    -0.00018143      0.00026105      0.00077546
     0.01810405      0.26264406      0.67362698
     0.01072333     -0.03932807      0.10498770
    -0.00256361      0.00343218     -0.00605537
     0.00449924      0.00306744      0.00202407
    -0.31819184     -0.06637957      0.08000762
    -0.05030549      0.10883684      0.32771223
    -0.21887720      0.14052335      0.12760304
    -0.06961012     -0.14527151      0.25067784
     0.00002626     -0.00073034      0.00002122
     0.00380283     -0.00155305     -0.00512980
    -0.00132370     -0.00209930      0.00285911
     0.00153686     -0.00316949     -0.00380876
    -0.01382397     -0.00312529      0.00380962
     0.08751623     -0.02226122     -0.04878000
     0.02323136      0.07292569     -0.05209644
     0.05427898     -0.01435418      0.05486415
     0.00747458     -0.00735624     -0.00989824
    -0.10227683      0.01542636      0.04318063
     0.00225405     -0.00253870      0.00004709
     0.01013882      0.07601695      0.07660633
vibration 93
     0.00016433      0.00140300      0.00374914
     0.00037559     -0.00082904      0.00092875
    -0.00006006      0.00007016      0.00008738
     0.00014139     -0.00073764     -0.00014264
     0.00000100     -0.00000336     -0.00001831
     0.00002272      0.00000606     -0.00005535
    -0.00028626      0.00024743      0.00023656
    -0.00012582      0.00022087     -0.00000262
     0.00043394     -0.00008447      0.00101538
     0.00076894      0.00062421     -0.00026266
    -0.00007025      0.00028873      0.00030080
    -0.00587750      0.00056326      0.00602265
    -0.00959053     -0.00003506      0.01283327
    -0.00198809      0.00037379      0.00116648
     0.00030177      0.00010423     -0.00029589
    -0.00081373     -0.01761305     -0.04539832
    -0.00118271      0.00547723     -0.01497972
    -0.00451476      0.00559750     -0.01037353
    -0.00605882     -0.00483111     -0.00288404
     0.06262103      0.01319181     -0.01565244
     0.00874324     -0.01981707     -0.05753252
     0.09319567     -0.05796325     -0.05137534
     0.02737329      0.05734199     -0.10150654
     0.00027084     -0.00299522     -0.00037425
     0.00023378     -0.00047100     -0.00090389
    -0.00287940     -0.00342261      0.00539448
    -0.00012783      0.00063637      0.00054722
    -0.08701187     -0.01233325      0.01856941
     0.56242114     -0.14606083     -0.32066670
     0.11827205      0.38501899     -0.27112630
     0.36659077     -0.09540785      0.36236739
    -0.00028954      0.00069138      0.00185358
     0.01145036     -0.00147678     -0.00465519
    -0.00645672      0.00363106     -0.00714779
    -0.00132306     -0.01083888     -0.01073877
vibration 94
     0.00016665      0.00009364     -0.00012735
    -0.00005814      0.00005229     -0.00007724
    -0.00013561     -0.00010732     -0.00015423
     0.00011719     -0.00010906     -0.00000853
    -0.00024931     -0.00017516      0.00012932
    -0.00003739     -0.00014663      0.00012263
    -0.00000397      0.00003644     -0.00001492
    -0.00008731      0.00004295      0.00000177
    -0.00050157     -0.00020811      0.00316844
     0.06813245      0.06007747     -0.02766919
     0.00004864     -0.00000239      0.00003826
     0.00016674     -0.00000306     -0.00015275
     0.00020489      0.00001960     -0.00028165
     0.00004852      0.00000720     -0.00004236
    -0.00001906     -0.00002677      0.00000674
     0.00012171      0.00040624      0.00113668
     0.00009919     -0.00030017      0.00094016
    -0.00819829      0.01087448     -0.01898810
    -0.51233727     -0.40878253     -0.24662493
    -0.00185865     -0.00036773      0.00046408
    -0.00017667      0.00043913      0.00123154
    -0.00191201      0.00116334      0.00103793
    -0.00063788     -0.00137025      0.00235730
     0.00007675     -0.00286057      0.00023896
     0.01405595     -0.00575518     -0.01874982
    -0.28895794     -0.34665361      0.54056549
    -0.00534737      0.04508101      0.03376957
     0.00095737      0.00011918     -0.00019354
    -0.00627073      0.00164244      0.00357548
    -0.00121183     -0.00408707      0.00284852
    -0.00405044      0.00106151     -0.00406234
     0.00076103      0.00005152      0.00106293
    -0.00142171      0.00019316      0.00095530
    -0.00756017      0.00425144     -0.00853180
    -0.00049163     -0.00496211     -0.00509276
vibration 95
    -0.00000831     -0.00016398     -0.00042459
     0.00004600      0.00009218     -0.00037337
     0.00000014     -0.00002819     -0.00007877
     0.00002194     -0.00001670      0.00020245
    -0.00001574      0.00000287      0.00002340
     0.00001162      0.00000621      0.00004284
    -0.00007632     -0.00006718      0.00041174
    -0.00003757     -0.00000550      0.00013114
     0.01327860      0.00958447     -0.09356314
     0.00230064      0.00208244     -0.00086624
     0.00000692     -0.00001774     -0.00001865
     0.00021567     -0.00004632     -0.00027413
     0.00025581      0.00005888     -0.00038464
     0.00001684     -0.00000705      0.00000744
    -0.00000052      0.00001442      0.00002006
     0.00017149      0.00201227      0.00511596
    -0.00017345     -0.00069164      0.00173334
     0.24876027     -0.33002516      0.57576753
    -0.01760534     -0.01406178     -0.00849610
    -0.00213716     -0.00043077      0.00053648
    -0.00042525      0.00096148      0.00283182
    -0.00214149      0.00135850      0.00126290
    -0.00090804     -0.00192910      0.00333880
    -0.00060241      0.05105476     -0.01159015
    -0.40531622      0.16566616      0.54113750
    -0.00969567     -0.01162481      0.01813999
     0.00008215      0.00106546      0.00060324
    -0.00090275     -0.00037141      0.00050949
     0.00663614     -0.00171528     -0.00352576
     0.00220345      0.00688527     -0.00497688
     0.00171243     -0.00072625      0.00234338
     0.00017269     -0.00007641      0.00004233
    -0.00115950      0.00017271      0.00052526
    -0.00099844      0.00052627     -0.00118520
     0.00006422      0.00023431      0.00023679
vibration 96
     0.00010149     -0.00080619     -0.00248470
     0.00003078      0.00011686     -0.00018875
     0.00000315     -0.00019245     -0.00022240
    -0.00003811      0.00006587     -0.00001325
     0.00003003      0.00000884      0.00001624
    -0.00033021     -0.00009459      0.00017142
    -0.00000666     -0.00001614     -0.00000816
     0.00001364     -0.00003712      0.00000902
     0.00005381     -0.00007212     -0.00011858
     0.00089578      0.00099813     -0.00011401
    -0.00152329      0.00012957     -0.00097935
    -0.00219211     -0.00033366      0.00206716
    -0.00034752     -0.00002882      0.00031501
     0.00001131      0.00012163      0.00000784
     0.00017261      0.00006803      0.00016530
     0.00031687      0.01087393      0.02928862
     0.00021411     -0.00113395      0.00258115
     0.00012486     -0.00016917      0.00027366
    -0.00772093     -0.00620253     -0.00364460
     0.02817395      0.00417634     -0.00596704
     0.00226470     -0.00459386     -0.01435540
     0.00360780     -0.00209255     -0.00197874
     0.00085947      0.00155834     -0.00194643
    -0.00005252      0.00084310      0.00008460
    -0.00071086      0.00027716      0.00094170
    -0.00343584     -0.00433071      0.00679278
     0.00094547     -0.00129668     -0.00175268
    -0.00015274     -0.00119734      0.00153909
     0.00438657     -0.00133182     -0.00225373
     0.00490609      0.01388414     -0.00981289
    -0.00727043      0.00159275     -0.00635270
    -0.06997251      0.01427864     -0.05743383
     0.28924809     -0.04908707     -0.14042839
     0.55102272     -0.30130840      0.65031653
     0.00577537      0.18372575      0.17873492
vibration 97
    -0.00002582      0.00020187      0.00050137
     0.00000081     -0.00016837      0.00053849
     0.00001242      0.00004463      0.00014659
     0.00000083      0.00000451      0.00008320
     0.00000812     -0.00001612     -0.00002734
    -0.00000034     -0.00001213     -0.00007626
    -0.00012514      0.00010121     -0.00018383
    -0.00003131      0.00003436     -0.00000397
     0.00020400     -0.00079536      0.00034926
    -0.00002199     -0.00011492     -0.00012084
     0.00006702      0.00023211      0.00018075
    -0.00030859     -0.00005171      0.00032326
    -0.00072774     -0.00051162      0.00092545
     0.00051028     -0.00095306      0.00157814
     0.00003183      0.00035415     -0.00030978
    -0.00001166     -0.00247503     -0.00644567
    -0.00032061      0.00212479     -0.00845424
    -0.00253583      0.00283704     -0.00530998
     0.00075889      0.00060760      0.00034771
     0.00292775      0.00103823     -0.00071919
     0.00046948     -0.00096309     -0.00399404
     0.00113156     -0.00198530     -0.00133157
     0.00332968      0.00725621     -0.01423000
    -0.00039350      0.00707570      0.00108971
    -0.00002530     -0.00019863      0.00013845
    -0.00005694     -0.00007678      0.00009527
    -0.00048210      0.00089571      0.00102868
     0.02360067     -0.05520464      0.07053759
     0.01841231     -0.01372151      0.00571537
     0.20633263      0.56175077     -0.39470931
    -0.50486347      0.11118570     -0.45690004
     0.00131850     -0.00026829      0.00117046
    -0.00493767      0.00087506      0.00252230
    -0.01095724      0.00616739     -0.01294285
    -0.00019211     -0.00406792     -0.00381871
vibration 98
    -0.00001299     -0.00002975     -0.00008864
    -0.00000684      0.00001113     -0.00003702
    -0.00058477      0.00038463     -0.00105185
    -0.00001266      0.00007312     -0.00000211
    -0.00010743      0.00018709      0.00028861
     0.00020839     -0.00008966      0.00051700
    -0.00000815     -0.00002645     -0.00000561
     0.00001021     -0.00003039      0.00002379
     0.00025603     -0.00069329     -0.00012020
     0.01245056     -0.05094322     -0.07882591
    -0.00001723     -0.00000145     -0.00000816
    -0.00000734     -0.00002405     -0.00004924
    -0.00000058      0.00002713     -0.00002608
    -0.00000632      0.00001906     -0.00000770
     0.00001385     -0.00000817      0.00001094
     0.00029304      0.00046561      0.00188785
     0.00009034     -0.00023397      0.00048829
    -0.00073562      0.00094673     -0.00196070
     0.26447972      0.20127597      0.10161505
     0.00025823      0.00002035     -0.00006707
    -0.00011524      0.00019118      0.00062662
     0.00017061     -0.00009489     -0.00009672
    -0.00012501     -0.00025488      0.00044324
    -0.00047394      0.00677383      0.00088882
    -0.00175800      0.00057322      0.00246502
    -0.11930783     -0.15309970      0.19949132
    -0.28824286      0.55230520      0.63605770
    -0.00007510      0.00009429     -0.00010418
     0.00033352     -0.00006988     -0.00021723
    -0.00033160     -0.00088122      0.00061986
     0.00090312     -0.00017516      0.00083538
    -0.00024438      0.00001392     -0.00020912
     0.00131435     -0.00023315     -0.00053465
     0.00155365     -0.00095530      0.00205944
     0.00007263      0.00099219      0.00100470
vibration 99
    -0.00000299      0.00001969      0.00004313
    -0.00006103      0.00006428      0.00004620
     0.00004019      0.00001981      0.00001967
     0.00126622     -0.00021209      0.00013677
    -0.00000678     -0.00001104     -0.00000282
    -0.00001853     -0.00001020     -0.00000572
    -0.00014593      0.00033413      0.00000751
    -0.00050046      0.00020911     -0.00003431
     0.02738581     -0.09050889     -0.00499041
    -0.00001250      0.00049531      0.00057293
     0.00002104     -0.00000490     -0.00001641
     0.00004584      0.00000551     -0.00003008
     0.00005325     -0.00002767     -0.00002472
     0.00002195     -0.00003509     -0.00006091
    -0.00001208      0.00000919      0.00001575
    -0.00001530     -0.00013296     -0.00039923
    -0.00029546      0.00011730     -0.00066160
    -0.10924353      0.13999085     -0.28667017
    -0.00263709     -0.00197485     -0.00109287
    -0.00056702     -0.00008570      0.00013581
    -0.00001506      0.00009435      0.00026662
    -0.00079302      0.00045154      0.00040690
     0.00003310     -0.00002503     -0.00000361
    -0.06228562      0.88346819      0.11720855
    -0.15788970      0.04728875      0.22776389
     0.00043159      0.00060984     -0.00067358
     0.00229158     -0.00436111     -0.00505019
    -0.00010834      0.00050368     -0.00061124
    -0.00092398      0.00034450      0.00041420
    -0.00219996     -0.00541047      0.00364033
     0.00391297     -0.00105434      0.00353929
     0.00007737     -0.00002137      0.00001761
    -0.00067292      0.00009646      0.00028813
    -0.00034908      0.00021626     -0.00047507
     0.00002697     -0.00000625     -0.00001387
[INT]
    2.664635
    0.296319
    1.335614
    2.612297
    1.003396
    0.277447
    0.304474
    0.337756
    0.707505
    0.290125
    1.407968
    3.707034
    2.412050
    3.953624
    2.485610
    9.049944
    1.955092
    0.911521
    8.837360
   12.453200
    9.717465
    3.305837
    3.252509
    6.345220
   17.268638
    3.822065
    6.852351
    2.215884
    2.897218
    3.864774
    6.368104
    6.100711
    3.392640
   23.389950
   16.891500
   15.497735
    4.600770
   23.812540
   17.279735
    8.364409
    3.677921
    1.865791
    0.692604
   45.763499
   52.270493
   10.378576
   58.000445
   12.670605
  141.239170
    1.394653
    3.679730
  170.942138
  127.773980
   11.250197
   15.249259
   56.879809
  178.412129
    4.531107
   20.779115
   62.158908
   37.812919
    1.230494
   14.820879
   72.952657
   92.975170
   23.325401
    8.242773
   14.416369
   14.046621
   10.504901
    1.141141
    8.941402
    9.498475
    1.596560
    5.159634
   14.062023
    7.044280
   10.219337
    8.465047
  289.031413
  153.012470
   14.456257
    4.906313
   40.306702
    6.337817
   37.846574
   43.980562
   34.748485
    2.162998
    9.022897
   15.684000
   33.794014
   30.403797
   16.646670
   16.779429
    8.084327
   13.627209
   17.018751
   12.793414

======= END OF MOLDEN-FORMATTED INPUT FILE =======


        *************************************************************
        *                                                           *
        *  Thank you very much for using Q-Chem.  Have a nice day.  *
        *                                                           *
        *************************************************************


