r0190.ten.osc.edu 10.25.155
Q-Chem Developer Version! Running on 10.25.155.*
                  Welcome to Q-Chem
     A Quantum Leap Into The Future Of Chemistry


 Q-Chem 5.0, Q-Chem, Inc., Pleasanton, CA (2017)

 Yihan Shao,  Zhengting Gan,  E. Epifanovsky,  A. T. B. Gilbert,  M. Wormit,  
 J. Kussmann,  A. W. Lange,  A. Behn,  Jia Deng,  Xintian Feng,  D. Ghosh,  
 M. Goldey,  P. R. Horn,  L. D. Jacobson,  I. Kaliman,  T. Kus,  A. Landau,  
 Jie Liu,  E. I. Proynov,  R. M. Richard,  R. P. Steele,  E. J. Sundstrom,  
 H. L. Woodcock III,  P. M. Zimmerman,  D. Zuev,  B. Albrecht,  E. Alguire,  
 S. A. Baeppler,  Z. Benda,  Y. A. Bernard,  E. J. Berquist,  K. B. Bravaya,  
 D. Casanova,  Chun-Min Chang,  Yunqing Chen,  A. Chien,  K. D. Closser,  
 M. P. Coons,  S. Dasgupta,  M. Diedenhofen,  Hainam Do,  R. G. Edgar,  
 Po-Tung Fang,  S. Fatehi,  Qingguo Feng,  Qinghui Ge,  A. Ghysels,  
 J. Gomes,  J. Gonthier,  A. Gunina,  M. W. D. Hanson-Heine,  
 P. H. P. Harbach,  A. W. Hauser,  J. E. Herr,  E. G. Hohenstein,  
 Z. C. Holden,  Kerwin Hui,  T.-C. Jagau,  Hyunjun Ji,  B. Kaduk,  
 K. Khistyaev,  Jaehoon Kim,  P. Klunzinger,  K. Koh,  D. Kosenkov,  
 T. Kowalczyk,  C. M. Krauter,  A. Kunitsa,  Ka Un Lao,  A. Laurent,  
 K. V. Lawler,  Joonho Lee,  D. Lefrancois,  S. Lehtola,  D. S. Levine,  
 Yi-Pei Li,  You-Sheng Lin,  Fenglai Liu,  E. Livshits,  A. Luenser,  
 P. Manohar,  E. Mansoor,  S. F. Manzer,  Shan-Ping Mao,  Yuezhi Mao,  
 N. Mardirossian,  A. V. Marenich,  L. A. Martinez-Martinez,  S. A. Maurer,  
 N. J. Mayhall,  S. C. McKenzie,  J.-M. Mewes,  A. F. Morrison,  K. Nanda,  
 T. S. Nguyen-Beck,  R. Olivares-Amaya,  J. A. Parkhill,  T. M. Perrine,  
 F. Plasser,  S. Prager,  A. Prociuk,  D. R. Rehn,  F. Rob,  M. Schneider,  
 N. Sergueev,  S. M. Sharada,  S. Sharma,  D. W. Small,  T. Stauch,  
 T. Stein,  Yu-Chuan Su,  A. J. W. Thom,  T. Tsuchimochi,  L. Vogt,  
 O. Vydrov,  M. A. Watson,  J. Wenzel,  M. de Wergifosse,  T. A. Wesolowski,  
 A. White,  J. Witte,  A. Yamada,  Jun Yang,  K. Yao,  S. Yeganeh,  
 S. R. Yost,  Zhi-Qiang You,  A. Zech,  Igor Ying Zhang,  Xing Zhang,  
 Yan Zhao,  Ying Zhu,  B. R. Brooks,  G. K. L. Chan,  C. J. Cramer,  
 M. S. Gordon,  W. J. Hehre,  A. Klamt,  M. W. Schmidt,  C. D. Sherrill,  
 D. G. Truhlar,  A. Aspuru-Guzik,  R. Baer,  A. T. Bell,  N. A. Besley,  
 Jeng-Da Chai,  A. Dreuw,  B. D. Dunietz,  T. R. Furlani,  Chao-Ping Hsu,  
 Yousung Jung,  Jing Kong,  D. S. Lambrecht,  WanZhen Liang,  C. Ochsenfeld,  
 V. A. Rassolov,  L. V. Slipchenko,  J. E. Subotnik,  T. Van Voorhis,  
 J. M. Herbert,  A. I. Krylov,  P. M. W. Gill,  M. Head-Gordon

 Contributors to earlier versions of Q-Chem not listed above: 
 R. D. Adamson,  B. Austin,  J. Baker,  G. J. O. Beran,  K. Brandhorst,  
 S. T. Brown,  E. F. C. Byrd,  A. K. Chakraborty,  C.-L. Cheng,  
 Siu Hung Chien,  D. M. Chipman,  D. L. Crittenden,  H. Dachsel,  
 R. A. DiStasio Jr.,  R. J. Doerksen,  A. D. Dutoi,  L. Fusti-Molnar,  
 W. A. Goddard III,  A. Golubeva-Zadorozhnaya,  S. R. Gwaltney,  G. Hawkins,  
 A. Heyden,  S. Hirata,  G. Kedziora,  F. J. Keil,  C. Kelley,  Jihan Kim,  
 R. A. King,  R. Z. Khaliullin,  P. P. Korambath,  W. Kurlancheek,  
 A. M. Lee,  M. S. Lee,  S. V. Levchenko,  Ching Yeh Lin,  D. Liotard,  
 R. C. Lochan,  I. Lotan,  P. E. Maslen,  N. Nair,  D. P. O'Neill,  
 D. Neuhauser,  E. Neuscamman,  C. M. Oana,  R. Olson,  B. Peters,  
 R. Peverati,  P. A. Pieniazek,  Y. M. Rhee,  J. Ritchie,  M. A. Rohrdanz,  
 E. Rosta,  N. J. Russ,  H. F. Schaefer III,  N. E. Schultz,  N. Shenvi,  
 A. C. Simmonett,  A. Sodt,  D. Stuck,  K. S. Thanthiriwatte,  V. Vanovschi,  
 Tao Wang,  A. Warshel,  C. F. Williams,  Q. Wu,  X. Xu,  W. Zhang

 Please cite Q-Chem as follows:
 Y. Shao et al., Mol. Phys. 113, 184-215 (2015)
 DOI: 10.1080/00268976.2014.952696

 Q-Chem 5.0.1 for Intel X86 EM64T Linux

 Parts of Q-Chem use Armadillo 5.200.1 (Boston Tea Smuggler).
 http://arma.sourceforge.net/

 Q-Chem begins on Tue Oct 17 15:00:00 2017  

Host: r0190.ten.osc.edu
0

     Scratch files written to /tmp/pbstmp.1311789/3//
Processing $rem in /users/PAS0291/osu6415/.qchemrc.
molden_format             true

Checking the input file for inconsistencies... 	...done.

--------------------------------------------------------------
User input:
--------------------------------------------------------------
$molecule
0 1
  C      0.43344262     -2.43764843     -0.05740962
  C     -0.49311428     -2.10646542      1.16608853
  C     -0.86220322     -0.65355617      1.38707544
  C      1.02688693     -1.21660409     -0.74279625
  O     -1.18296979     -0.02468304      0.24163478
  O     -0.92071975     -0.13205009      2.47502374
  O      1.71864308     -0.49814782      0.17608178
  O      0.97670907     -0.91555637     -1.90641627
  C      2.31633267      0.72142469     -0.29609063
  C     -1.58887094      1.34947608      0.35494956
  C     -0.47282330     -3.40270886     -0.89597426
  C     -0.47162376     -4.76451972     -0.14409730
  C     -1.36983466     -4.45968299      1.08106967
  C     -1.75712189     -2.98091639      0.82368529
  O     -1.79709225     -2.91256545     -0.60781187
  H      1.30528194     -2.98448279      0.31209113
  H     -0.04695159     -2.43240527      2.10349310
  H      1.55571557      1.37011886     -0.73366173
  H     -0.79833073      1.94433495      0.81546068
  H     -0.92059382     -5.52757361     -0.78204239
  H      0.53430113     -5.09830174      0.11907536
  H     -2.26820357     -5.07946213      1.07887830
  H     -0.86937304     -4.59710251      2.04167406
  H      2.76002844      1.18596957      0.58163148
  H      3.07909815      0.50857565     -1.04678138
  H     -2.49352656      1.43054723      0.95967476
  H     -1.77728012      1.67864959     -0.66430471
  C     -3.07189770     -2.53852657      1.42624773
  H     -3.86859627     -3.21470592      1.10925330
  H     -3.01455975     -2.55193047      2.51716345
  H     -3.33278154     -1.52865812      1.10516213
  C     -0.25650152     -3.51536404     -2.38962224
  H     -0.93835508     -4.26805299     -2.79288659
  H     -0.42849837     -2.56468977     -2.88747386
  H      0.76900390     -3.82875589     -2.60212518
$end

$rem
sym_ignore      true
jobtype         opt
method          b3lyp
basis           6-311++G(d,p)
dft_d           d3_op
mem_total       62000
MEM_STATIC      4000
ao2mo_disk      350000
max_scf_cycles  200
geom_opt_max_cycles 1000
geom_opt_tol_displacement 1
GEOM_OPT_TOL_GRADIENT       1
GEOM_OPT_TOL_ENERGY         1
geom_opt_dmax    50
$end

--------------------------------------------------------------
 Adding empirical dispersion correction 
 ----------------------------------------------------------------
 Doing -D3(op) with
 s6 =   1.00000
 s8 =   0.78311
 a1 =   0.30000
 a2 =   4.25000
 n  =  10.00000
 -D3 energy without 3body term =     -0.0424620612 hartrees
 ----------------------------------------------------------------
             Standard Nuclear Orientation (Angstroms)
    I     Atom           X                Y                Z
 ----------------------------------------------------------------
    1      C       0.4334426200    -2.4376484300    -0.0574096200
    2      C      -0.4931142800    -2.1064654200     1.1660885300
    3      C      -0.8622032200    -0.6535561700     1.3870754400
    4      C       1.0268869300    -1.2166040900    -0.7427962500
    5      O      -1.1829697900    -0.0246830400     0.2416347800
    6      O      -0.9207197500    -0.1320500900     2.4750237400
    7      O       1.7186430800    -0.4981478200     0.1760817800
    8      O       0.9767090700    -0.9155563700    -1.9064162700
    9      C       2.3163326700     0.7214246900    -0.2960906300
   10      C      -1.5888709400     1.3494760800     0.3549495600
   11      C      -0.4728233000    -3.4027088600    -0.8959742600
   12      C      -0.4716237600    -4.7645197200    -0.1440973000
   13      C      -1.3698346600    -4.4596829900     1.0810696700
   14      C      -1.7571218900    -2.9809163900     0.8236852900
   15      O      -1.7970922500    -2.9125654500    -0.6078118700
   16      H       1.3052819400    -2.9844827900     0.3120911300
   17      H      -0.0469515900    -2.4324052700     2.1034931000
   18      H       1.5557155700     1.3701188600    -0.7336617300
   19      H      -0.7983307300     1.9443349500     0.8154606800
   20      H      -0.9205938200    -5.5275736100    -0.7820423900
   21      H       0.5343011300    -5.0983017400     0.1190753600
   22      H      -2.2682035700    -5.0794621300     1.0788783000
   23      H      -0.8693730400    -4.5971025100     2.0416740600
   24      H       2.7600284400     1.1859695700     0.5816314800
   25      H       3.0790981500     0.5085756500    -1.0467813800
   26      H      -2.4935265600     1.4305472300     0.9596747600
   27      H      -1.7772801200     1.6786495900    -0.6643047100
   28      C      -3.0718977000    -2.5385265700     1.4262477300
   29      H      -3.8685962700    -3.2147059200     1.1092533000
   30      H      -3.0145597500    -2.5519304700     2.5171634500
   31      H      -3.3327815400    -1.5286581200     1.1051621300
   32      C      -0.2565015200    -3.5153640400    -2.3896222400
   33      H      -0.9383550800    -4.2680529900    -2.7928865900
   34      H      -0.4284983700    -2.5646897700    -2.8874738600
   35      H       0.7690039000    -3.8287558900    -2.6021251800
 ----------------------------------------------------------------
 Nuclear Repulsion Energy =  1410.1249469217 hartrees
 There are       65 alpha and       65 beta electrons
 Requested basis set is 6-311++G(d,p)
 There are 192 shells and 500 basis functions

 Total QAlloc Memory Limit  62000 MB
 Mega-Array Size      3911 MB
 MEM_STATIC part      4000 MB
 A cutoff of  1.0D-11 yielded  15177 shell pairs
 There are    104770 function pairs (    111689 Cartesian)
 
 -------------------------------------------------------
 OpenMP Integral Computing Module                       
 Release: version 1.0, May 2013, Q-Chem Inc. Pittsburgh 
 -------------------------------------------------------
 Integral Job Info:
 Integral job number is                      11
 Integral operator is                         1
 short-range coefficients                     0
 long-range coefficients              100000000
 Omega coefficients                           0
 if combine SR and LR in K                    0
 Integral screening is                        0
 Integral computing path is                   2
 max size of driver memory is            800000
 size of driver memory is                593474
 size of scratch memory is              2361544
 max col of scratch BK array               1296
 max len of scratch array in speh3          155
 max len of scratch index in speh4           18
 max int batch size is                      520
 min int batch size is                       52
 fixed nKL is                                52
 max L of basis functions is                  2
 order of int derivative is                   0
 number of shells is                        192
 number of basis is                         517
 number of cartesian basis is               517
 number of contracted shell pairs         15177
 number of primitive shell pairs          33292
 maxK2 (contraction) of shell pair           36
 max number of K2 of shell pair               1
 max number of CS2 of shell pair           2869
 max number of PS2 of shell pair           4854
 mem total for path MDJ                  183864
 -------------------------------------------------------
 Smallest overlap matrix eigenvalue = 4.95E-07

 Q-Chem warning in module /fs/scratch/osu6415/qchem-kaunlao-vdw/stvman/mkSTV.C, line 281:

 Overlap eigenvalue is smaller than square root of threshold

 Linear dependence detected in AO basis
 Number of orthogonalized atomic orbitals = 499
 Maximum deviation from orthogonality = 1.857E-10

 Scale SEOQF with 1.000000e-01/1.000000e-02/1.000000e-01

 Standard Electronic Orientation quadrupole field applied
 Nucleus-field energy     =    -0.0000000062 hartrees
 Guess from superposition of atomic densities
 Warning:  Energy on first SCF cycle will be non-variational
 A restricted hybrid HF-DFT SCF calculation will be
 performed using Pulay DIIS extrapolation
 Exchange:     0.2000 Hartree-Fock + 0.0800 Slater + 0.7200 B88
 Correlation:  0.1900 VWN1RPA + 0.8100 LYP
 Using SG-1 standard quadrature grid
 Dispersion:   Grimme D3
 SCF converges when DIIS error is below 1.0E-08
 using 20 threads for integral computing
 -------------------------------------------------------
 OpenMP Integral computing Module                
 Release: version 1.0, May 2013, Q-Chem Inc. Pittsburgh 
 -------------------------------------------------------
 -------------------------------------------------------
 OpenMP BLAS3 based DFT computing Module                
 Release: version 1.0, May 2013, Q-Chem Inc. Pittsburgh 
 -------------------------------------------------------
 ---------------------------------------
  Cycle       Energy         DIIS Error
 ---------------------------------------
    1    -847.9543649086      2.82E-02
    2    -844.1662297689      3.72E-03
    3    -843.6741290117      5.99E-03
    4    -844.4753391206      1.47E-03
    5    -844.5268730773      3.30E-04
    6    -844.5287806856      1.56E-04
    7    -844.5293232757      2.94E-05
    8    -844.5293400750      1.18E-05
    9    -844.5293432629      3.10E-06
   10    -844.5293434309      1.54E-06
   11    -844.5293434833      4.31E-07
   12    -844.5293434872      1.34E-07
   13    -844.5293434878      3.78E-08
   14    -844.5293434878      1.16E-08
   15    -844.5293434896      3.31E-09 Convergence criterion met
 ---------------------------------------
 SCF time:  CPU 1211.20 s  wall 67.27 s
 SCF   energy in the final basis set = -844.52934349
 Total energy in the final basis set = -844.52934349
 
 --------------------------------------------------------------
 
                    Orbital Energies (a.u.)
 --------------------------------------------------------------
 
 Alpha MOs
 -- Occupied --
-19.173 -19.173 -19.126 -19.118 -19.116 -10.309 -10.305 -10.243
-10.238 -10.230 -10.230 -10.206 -10.203 -10.178 -10.176 -10.169
-10.157  -1.119  -1.112  -1.060  -1.029  -1.027  -0.832  -0.804
 -0.785  -0.747  -0.728  -0.722  -0.675  -0.643  -0.603  -0.581
 -0.569  -0.558  -0.522  -0.513  -0.508  -0.492  -0.486  -0.478
 -0.475  -0.471  -0.459  -0.442  -0.434  -0.429  -0.416  -0.411
 -0.406  -0.399  -0.396  -0.373  -0.372  -0.367  -0.360  -0.355
 -0.352  -0.347  -0.332  -0.329  -0.318  -0.314  -0.287  -0.278
 -0.272
 -- Virtual --
 -0.019  -0.011  -0.006   0.000   0.006   0.009   0.013   0.018
  0.027   0.030   0.033   0.040   0.040   0.045   0.049   0.053
  0.060   0.063   0.065   0.067   0.080   0.082   0.088   0.089
  0.092   0.098   0.100   0.103   0.108   0.112   0.114   0.117
  0.118   0.119   0.124   0.129   0.133   0.134   0.136   0.140
  0.142   0.144   0.146   0.149   0.151   0.153   0.156   0.161
  0.162   0.164   0.165   0.169   0.174   0.175   0.177   0.181
  0.185   0.191   0.191   0.198   0.200   0.202   0.204   0.207
  0.209   0.212   0.213   0.219   0.224   0.228   0.229   0.232
  0.235   0.246   0.247   0.256   0.263   0.267   0.271   0.278
  0.280   0.284   0.287   0.292   0.298   0.301   0.305   0.308
  0.319   0.322   0.330   0.331   0.339   0.344   0.346   0.347
  0.351   0.358   0.360   0.361   0.365   0.371   0.373   0.374
  0.379   0.384   0.388   0.392   0.397   0.404   0.413   0.418
  0.425   0.430   0.434   0.445   0.454   0.464   0.470   0.478
  0.493   0.497   0.506   0.511   0.517   0.530   0.535   0.540
  0.550   0.565   0.568   0.577   0.584   0.592   0.601   0.605
  0.610   0.611   0.625   0.634   0.641   0.643   0.650   0.655
  0.662   0.667   0.672   0.676   0.681   0.689   0.695   0.696
  0.704   0.711   0.719   0.719   0.729   0.734   0.737   0.741
  0.744   0.759   0.762   0.772   0.786   0.796   0.802   0.810
  0.818   0.829   0.838   0.844   0.855   0.863   0.873   0.916
  0.927   0.952   0.964   0.996   1.006   1.025   1.033   1.057
  1.062   1.074   1.079   1.107   1.108   1.131   1.143   1.173
  1.180   1.196   1.200   1.203   1.223   1.234   1.244   1.249
  1.261   1.275   1.286   1.291   1.298   1.305   1.323   1.339
  1.344   1.365   1.371   1.378   1.389   1.407   1.428   1.443
  1.444   1.457   1.467   1.474   1.476   1.500   1.512   1.514
  1.530   1.539   1.545   1.551   1.567   1.569   1.575   1.579
  1.581   1.596   1.606   1.609   1.611   1.618   1.631   1.644
  1.651   1.662   1.671   1.687   1.694   1.697   1.701   1.713
  1.716   1.725   1.734   1.739   1.751   1.757   1.760   1.788
  1.793   1.805   1.811   1.815   1.837   1.841   1.854   1.866
  1.878   1.882   1.897   1.916   1.924   1.945   1.973   1.984
  1.992   2.012   2.021   2.027   2.030   2.042   2.062   2.084
  2.088   2.104   2.116   2.129   2.137   2.150   2.160   2.180
  2.190   2.198   2.212   2.230   2.234   2.267   2.282   2.304
  2.311   2.378   2.390   2.403   2.414   2.445   2.460   2.470
  2.486   2.488   2.500   2.503   2.517   2.523   2.527   2.537
  2.539   2.559   2.577   2.583   2.592   2.594   2.601   2.609
  2.611   2.637   2.649   2.672   2.685   2.692   2.709   2.718
  2.730   2.755   2.777   2.792   2.812   2.819   2.850   2.855
  2.867   2.872   2.882   2.894   2.906   2.923   2.950   2.978
  2.991   2.993   3.016   3.027   3.039   3.041   3.059   3.063
  3.075   3.089   3.115   3.128   3.133   3.160   3.173   3.198
  3.217   3.234   3.244   3.257   3.271   3.310   3.336   3.358
  3.371   3.376   3.397   3.408   3.539   3.600   3.607   3.668
  3.689   3.711   3.737   3.782   3.785   3.822   3.822   3.835
  3.837   3.858   3.865   3.962   3.977   4.057   4.081   4.087
  4.117   4.134   4.155   4.169   4.182   4.246   4.281   4.319
  4.443   4.511   5.049   5.119   5.175   5.189   5.233   5.260
  5.286   5.422   5.443   5.516   5.633   5.644   5.690   5.885
  5.902  23.766  23.840  23.853  23.898  23.904  23.934  23.943
 23.951  23.959  23.989  24.000  24.046  49.915  49.947  49.993
 50.046  50.051
 --------------------------------------------------------------
 
          Ground-State Mulliken Net Atomic Charges

     Atom                 Charge (a.u.)
  ----------------------------------------
      1 C                     0.420782
      2 C                     0.756003
      3 C                    -1.118590
      4 C                    -0.799234
      5 O                    -0.014734
      6 O                    -0.129558
      7 O                     0.015294
      8 O                    -0.164052
      9 C                    -0.179053
     10 C                    -0.200473
     11 C                    -0.545667
     12 C                    -0.454183
     13 C                    -0.378766
     14 C                    -0.426334
     15 O                     0.032562
     16 H                     0.266463
     17 H                     0.285977
     18 H                     0.176182
     19 H                     0.186350
     20 H                     0.174652
     21 H                     0.137624
     22 H                     0.173954
     23 H                     0.139305
     24 H                     0.164451
     25 H                     0.172371
     26 H                     0.176042
     27 H                     0.175301
     28 C                    -0.010836
     29 H                     0.174349
     30 H                     0.172213
     31 H                     0.179382
     32 C                    -0.061712
     33 H                     0.141046
     34 H                     0.201754
     35 H                     0.161132
  ----------------------------------------
  Sum of atomic charges =     0.000000

 -----------------------------------------------------------------
                    Cartesian Multipole Moments
 -----------------------------------------------------------------
    Charge (ESU x 10^10)
                 0.0000
    Dipole Moment (Debye)
         X       0.9192      Y      -0.5451      Z       0.4367
       Tot       1.1544
    Quadrupole Moments (Debye-Ang)
        XX     -97.5333     XY      -0.7861     YY     -86.9633
        XZ      -0.7273     YZ      -5.4197     ZZ    -114.8805
    Octopole Moments (Debye-Ang^2)
       XXX     150.0234    XXY     192.0691    XYY      47.0288
       YYY     513.0696    XXZ      -4.4740    XYZ       9.0059
       YYZ      -2.6314    XZZ      50.2731    YZZ     181.0677
       ZZZ     -51.2889
    Hexadecapole Moments (Debye-Ang^3)
      XXXX   -1459.0806   XXXY    -489.8870   XXYY    -929.0548
      XYYY    -481.2223   YYYY   -4080.2387   XXXZ     218.9893
      XXYZ     -37.7839   XYYZ      64.3400   YYYZ     -48.5290
      XXZZ    -445.1224   XYZZ    -158.3469   YYZZ    -865.5273
      XZZZ     295.4634   YZZZ     -59.6044   ZZZZ   -1206.7334
 -----------------------------------------------------------------
 Calculating analytic gradient of the SCF energy
 Gradient of SCF Energy
            1           2           3           4           5           6
    1  -0.0000065  -0.0000217   0.0000886  -0.0000505  -0.0000062  -0.0000330
    2   0.0000358  -0.0000740   0.0000141   0.0000534   0.0000075   0.0000204
    3  -0.0000050   0.0000319   0.0000014   0.0001106  -0.0000156   0.0000118
            7           8           9          10          11          12
    1  -0.0000320   0.0001045   0.0000036   0.0000233   0.0000108  -0.0000094
    2  -0.0000024   0.0001166  -0.0000203  -0.0000265  -0.0000590   0.0000459
    3  -0.0000326   0.0000048   0.0000113   0.0000064  -0.0000717  -0.0000148
           13          14          15          16          17          18
    1  -0.0000375   0.0000134   0.0000380  -0.0000056   0.0000037  -0.0000032
    2   0.0000111   0.0000298  -0.0000672  -0.0000140   0.0000028   0.0000098
    3  -0.0000249  -0.0000179   0.0000060   0.0000235   0.0000165   0.0000043
           19          20          21          22          23          24
    1   0.0000053  -0.0000122   0.0000092  -0.0000154   0.0000014   0.0000092
    2   0.0000046  -0.0000035  -0.0000002  -0.0000009   0.0000104   0.0000083
    3   0.0000110  -0.0000152  -0.0000057   0.0000066   0.0000072   0.0000134
           25          26          27          28          29          30
    1   0.0000100  -0.0000149   0.0000003  -0.0000030  -0.0000138  -0.0000094
    2   0.0000002   0.0000031   0.0000097  -0.0000039  -0.0000045   0.0000063
    3  -0.0000025   0.0000034  -0.0000084   0.0000122  -0.0000002   0.0000073
           31          32          33          34          35
    1  -0.0000049  -0.0000438   0.0000008  -0.0000087   0.0000096
    2   0.0000056  -0.0000432  -0.0000214  -0.0000609   0.0000065
    3  -0.0000165  -0.0000499  -0.0000049   0.0000082  -0.0000120
 Max gradient component =       1.166E-04
 RMS gradient           =       3.087E-05
 Gradient time:  CPU 400.68 s  wall 30.03 s
 Geometry Optimization Parameters
   NAtoms,    NIC,     NZ,  NCons,   NDum,   NFix, NCnnct, MaxDiis
       35     275       0       0       0       0       0       0


** GEOMETRY OPTIMIZATION IN DELOCALIZED INTERNAL COORDINATES **
   Searching for a Minimum

   Optimization Cycle:   1

                       Coordinates (Angstroms)
     ATOM                X               Y               Z
      1  C         0.4334426200   -2.4376484300   -0.0574096200
      2  C        -0.4931142800   -2.1064654200    1.1660885300
      3  C        -0.8622032200   -0.6535561700    1.3870754400
      4  C         1.0268869300   -1.2166040900   -0.7427962500
      5  O        -1.1829697900   -0.0246830400    0.2416347800
      6  O        -0.9207197500   -0.1320500900    2.4750237400
      7  O         1.7186430800   -0.4981478200    0.1760817800
      8  O         0.9767090700   -0.9155563700   -1.9064162700
      9  C         2.3163326700    0.7214246900   -0.2960906300
     10  C        -1.5888709400    1.3494760800    0.3549495600
     11  C        -0.4728233000   -3.4027088600   -0.8959742600
     12  C        -0.4716237600   -4.7645197200   -0.1440973000
     13  C        -1.3698346600   -4.4596829900    1.0810696700
     14  C        -1.7571218900   -2.9809163900    0.8236852900
     15  O        -1.7970922500   -2.9125654500   -0.6078118700
     16  H         1.3052819400   -2.9844827900    0.3120911300
     17  H        -0.0469515900   -2.4324052700    2.1034931000
     18  H         1.5557155700    1.3701188600   -0.7336617300
     19  H        -0.7983307300    1.9443349500    0.8154606800
     20  H        -0.9205938200   -5.5275736100   -0.7820423900
     21  H         0.5343011300   -5.0983017400    0.1190753600
     22  H        -2.2682035700   -5.0794621300    1.0788783000
     23  H        -0.8693730400   -4.5971025100    2.0416740600
     24  H         2.7600284400    1.1859695700    0.5816314800
     25  H         3.0790981500    0.5085756500   -1.0467813800
     26  H        -2.4935265600    1.4305472300    0.9596747600
     27  H        -1.7772801200    1.6786495900   -0.6643047100
     28  C        -3.0718977000   -2.5385265700    1.4262477300
     29  H        -3.8685962700   -3.2147059200    1.1092533000
     30  H        -3.0145597500   -2.5519304700    2.5171634500
     31  H        -3.3327815400   -1.5286581200    1.1051621300
     32  C        -0.2565015200   -3.5153640400   -2.3896222400
     33  H        -0.9383550800   -4.2680529900   -2.7928865900
     34  H        -0.4284983700   -2.5646897700   -2.8874738600
     35  H         0.7690039000   -3.8287558900   -2.6021251800
   Point Group: c1    Number of degrees of freedom:    99


   Energy is   -844.529343490


 Attempting to Generate Delocalized Internal Coordinates

 99 Hessian modes will be used to form the next step
  Hessian Eigenvalues:
     0.002905    0.006425    0.006988    0.007160    0.007402    0.007535
     0.009906    0.010633    0.010708    0.011166    0.021451    0.022853
     0.023085    0.025254    0.035387    0.035899    0.037842    0.039008
     0.043896    0.044840    0.049683    0.050972    0.054726    0.055644
     0.056665    0.058020    0.058171    0.059496    0.060123    0.063089
     0.065560    0.066213    0.080139    0.085082    0.094471    0.101404
     0.101421    0.102586    0.105969    0.106084    0.110972    0.121649
     0.125550    0.152246    0.160000    0.160000    0.160000    0.160000
     0.160000    0.160000    0.160000    0.160000    0.160000    0.160000
     0.160000    0.160000    0.177453    0.230390    0.236228    0.249765
     0.249773    0.250000    0.250000    0.250000    0.250000    0.251887
     0.253507    0.259718    0.274473    0.302881    0.308279    0.310082
     0.311081    0.334298    0.344154    0.344482    0.344976    0.345249
     0.345778    0.345842    0.346013    0.346490    0.346599    0.346657
     0.346694    0.346700    0.346770    0.346778    0.346917    0.350297
     0.350813    0.350991    0.351804    0.398758    0.399543    0.537410
     0.559870    1.009513    1.033402

 Minimum Search - Taking Simple RFO Step
 Searching for Lamda that Minimizes Along All modes
 Value Taken    Lamda =  -0.00000325
 Step Taken.  Stepsize is  0.014324

                             Maximum     Tolerance    Cnvgd?
         Gradient           0.000249      0.000001      NO
         Displacement       0.004193      0.000001      NO
         Energy change     *********      0.000000      NO


 New Cartesian Coordinates Obtained by Inverse Iteration

 Displacement from previous Coordinates is:  0.047025
 Adding empirical dispersion correction 
 ----------------------------------------------------------------
 Doing -D3(op) with
 s6 =   1.00000
 s8 =   0.78311
 a1 =   0.30000
 a2 =   4.25000
 n  =  10.00000
 -D3 energy without 3body term =     -0.0424524104 hartrees
 ----------------------------------------------------------------
             Standard Nuclear Orientation (Angstroms)
    I     Atom           X                Y                Z
 ----------------------------------------------------------------
    1      C       0.4336240749    -2.4377971062    -0.0553164436
    2      C      -0.4936439957    -2.1055172248     1.1674022808
    3      C      -0.8641745956    -0.6527576922     1.3867418824
    4      C       1.0287197029    -1.2184738907    -0.7418718312
    5      O      -1.1864475388    -0.0257221523     0.2407210040
    6      O      -0.9220502420    -0.1298892800     2.4740581812
    7      O       1.7221743699    -0.5002147904     0.1759415610
    8      O       0.9772129649    -0.9185500177    -1.9057112439
    9      C       2.3208281817     0.7184116837    -0.2974134129
   10      C      -1.5935948170     1.3482255009     0.3523145460
   11      C      -0.4730890164    -3.4008965549    -0.8948904303
   12      C      -0.4720215719    -4.7638959008    -0.1452210051
   13      C      -1.3689312055    -4.4599307887     1.0810477481
   14      C      -1.7570259862    -2.9809566865     0.8251339535
   15      O      -1.7973135933    -2.9108375787    -0.6062182106
   16      H       1.3046563472    -2.9857117398     0.3144428296
   17      H      -0.0477780945    -2.4303416540     2.1053076485
   18      H       1.5606528841     1.3675119014    -0.7351046868
   19      H      -0.8030743802     1.9446212640     0.8108326807
   20      H      -0.9219174941    -5.5258204747    -0.7838252580
   21      H       0.5338979071    -5.0985798236     0.1167685789
   22      H      -2.2671456095    -5.0799076081     1.0791340421
   23      H      -0.8675799589    -4.5981402141     2.0410560284
   24      H       2.7653462563     1.1831015748     0.5797951572
   25      H       3.0830474309     0.5042455670    -1.0482564049
   26      H      -2.4975483707     1.4293680460     0.9580377436
   27      H      -1.7835913922     1.6754984173    -0.6672384285
   28      C      -3.0719333267    -2.5398805160     1.4282544498
   29      H      -3.8683094119    -3.2159676720     1.1103021880
   30      H      -3.0145533613    -2.5547877480     2.5191288270
   31      H      -3.3332356809    -1.5296854275     1.1085839361
   32      C      -0.2559957915    -3.5100646115    -2.3885899330
   33      H      -0.9386480687    -4.2606444936    -2.7943438702
   34      H      -0.4261615242    -2.5576810396    -2.8839856115
   35      H       0.7692249076    -3.8243513089    -2.6010985065
 ----------------------------------------------------------------
 Nuclear Repulsion Energy =  1410.1027550707 hartrees
 There are       65 alpha and       65 beta electrons
 Applying Cartesian multipole field
    Component          Value
    ---------          -----
     (2,0,0)        1.00000E-11
     (0,2,0)        2.00000E-12
     (0,0,2)       -3.00000E-11
 Nucleus-field energy     =    -0.0000000062 hartrees
 Requested basis set is 6-311++G(d,p)
 There are 192 shells and 500 basis functions
 A cutoff of  1.0D-11 yielded  15178 shell pairs
 There are    104770 function pairs (    111685 Cartesian)
 Smallest overlap matrix eigenvalue = 4.95E-07

 Q-Chem warning in module /fs/scratch/osu6415/qchem-kaunlao-vdw/stvman/mkSTV.C, line 281:

 Overlap eigenvalue is smaller than square root of threshold

 Linear dependence detected in AO basis
 Number of orthogonalized atomic orbitals = 499
 Maximum deviation from orthogonality = 1.271E-10
 Guess MOs from SCF MO coefficient file
 Reading MOs from coefficient file
 Reading MOs from coefficient file
 A restricted hybrid HF-DFT SCF calculation will be
 performed using Pulay DIIS extrapolation
 Exchange:     0.2000 Hartree-Fock + 0.0800 Slater + 0.7200 B88
 Correlation:  0.1900 VWN1RPA + 0.8100 LYP
 Using SG-1 standard quadrature grid
 Dispersion:   Grimme D3
 SCF converges when DIIS error is below 1.0E-08
 Geometry optimization detected.  Setting ReadMinima to 0
 Setting SaveMinima to 0
 using 20 threads for integral computing
 -------------------------------------------------------
 OpenMP Integral computing Module                
 Release: version 1.0, May 2013, Q-Chem Inc. Pittsburgh 
 -------------------------------------------------------
 -------------------------------------------------------
 OpenMP BLAS3 based DFT computing Module                
 Release: version 1.0, May 2013, Q-Chem Inc. Pittsburgh 
 -------------------------------------------------------
 ---------------------------------------
  Cycle       Energy         DIIS Error
 ---------------------------------------
    1    -844.5293257591      6.07E-05
    2    -844.5293399555      9.51E-06
    3    -844.5293379452      1.30E-05
    4    -844.5293427579      2.17E-06
    5    -844.5293428401      1.02E-06
    6    -844.5293428617      3.05E-07
    7    -844.5293428636      1.07E-07
    8    -844.5293428634      3.47E-08
    9    -844.5293428649      6.31E-09 Convergence criterion met
 ---------------------------------------
 SCF time:  CPU 730.80 s  wall 38.50 s
 SCF   energy in the final basis set = -844.52934286
 Total energy in the final basis set = -844.52934286
 
 --------------------------------------------------------------
 
                    Orbital Energies (a.u.)
 --------------------------------------------------------------
 
 Alpha MOs
 -- Occupied --
-19.173 -19.173 -19.126 -19.118 -19.116 -10.309 -10.305 -10.243
-10.238 -10.230 -10.230 -10.206 -10.203 -10.178 -10.176 -10.169
-10.157  -1.119  -1.112  -1.060  -1.030  -1.027  -0.832  -0.804
 -0.785  -0.747  -0.728  -0.722  -0.675  -0.643  -0.603  -0.581
 -0.569  -0.558  -0.522  -0.513  -0.508  -0.492  -0.486  -0.478
 -0.475  -0.471  -0.459  -0.442  -0.434  -0.429  -0.416  -0.411
 -0.406  -0.399  -0.396  -0.373  -0.372  -0.367  -0.360  -0.355
 -0.352  -0.347  -0.332  -0.329  -0.318  -0.314  -0.287  -0.277
 -0.272
 -- Virtual --
 -0.019  -0.011  -0.006   0.000   0.006   0.009   0.013   0.018
  0.027   0.030   0.033   0.040   0.040   0.045   0.049   0.053
  0.060   0.063   0.065   0.067   0.080   0.082   0.088   0.089
  0.092   0.098   0.100   0.103   0.108   0.112   0.113   0.117
  0.118   0.119   0.124   0.129   0.133   0.134   0.136   0.140
  0.142   0.144   0.146   0.149   0.151   0.153   0.156   0.161
  0.162   0.164   0.165   0.169   0.174   0.175   0.177   0.181
  0.185   0.191   0.191   0.198   0.200   0.202   0.204   0.207
  0.209   0.212   0.213   0.219   0.224   0.228   0.229   0.232
  0.234   0.247   0.247   0.256   0.263   0.267   0.271   0.278
  0.280   0.284   0.287   0.292   0.298   0.301   0.305   0.308
  0.319   0.322   0.330   0.331   0.339   0.344   0.346   0.347
  0.351   0.358   0.360   0.361   0.365   0.371   0.373   0.374
  0.379   0.385   0.388   0.392   0.397   0.405   0.413   0.418
  0.425   0.430   0.434   0.445   0.454   0.464   0.470   0.478
  0.493   0.497   0.506   0.511   0.517   0.530   0.535   0.540
  0.550   0.565   0.568   0.577   0.584   0.592   0.601   0.605
  0.610   0.611   0.625   0.634   0.641   0.643   0.650   0.655
  0.662   0.667   0.672   0.676   0.681   0.689   0.695   0.697
  0.704   0.711   0.719   0.720   0.729   0.734   0.736   0.741
  0.744   0.759   0.762   0.772   0.786   0.796   0.802   0.810
  0.818   0.829   0.838   0.844   0.855   0.862   0.873   0.917
  0.928   0.952   0.964   0.996   1.006   1.026   1.033   1.057
  1.063   1.074   1.079   1.107   1.108   1.131   1.143   1.172
  1.180   1.195   1.200   1.204   1.222   1.234   1.245   1.249
  1.261   1.275   1.286   1.291   1.297   1.305   1.323   1.339
  1.344   1.365   1.371   1.377   1.389   1.407   1.428   1.443
  1.444   1.458   1.467   1.474   1.476   1.500   1.512   1.514
  1.530   1.539   1.545   1.551   1.567   1.569   1.575   1.579
  1.581   1.597   1.606   1.609   1.611   1.618   1.631   1.645
  1.651   1.662   1.671   1.686   1.694   1.697   1.701   1.713
  1.716   1.725   1.734   1.739   1.751   1.757   1.760   1.788
  1.793   1.805   1.811   1.815   1.837   1.841   1.854   1.866
  1.878   1.882   1.897   1.916   1.924   1.945   1.973   1.985
  1.992   2.012   2.021   2.027   2.030   2.042   2.062   2.084
  2.088   2.104   2.116   2.129   2.137   2.150   2.160   2.180
  2.190   2.198   2.212   2.230   2.234   2.267   2.282   2.304
  2.310   2.378   2.390   2.403   2.414   2.445   2.460   2.470
  2.486   2.488   2.500   2.503   2.517   2.523   2.527   2.537
  2.539   2.558   2.577   2.583   2.592   2.594   2.602   2.609
  2.611   2.637   2.649   2.672   2.685   2.692   2.709   2.718
  2.729   2.755   2.777   2.792   2.812   2.819   2.850   2.855
  2.867   2.872   2.882   2.894   2.906   2.922   2.950   2.978
  2.991   2.993   3.016   3.028   3.039   3.041   3.060   3.063
  3.075   3.089   3.115   3.128   3.133   3.160   3.173   3.198
  3.216   3.234   3.244   3.257   3.271   3.311   3.336   3.358
  3.371   3.377   3.397   3.408   3.539   3.600   3.607   3.668
  3.689   3.712   3.737   3.782   3.785   3.822   3.822   3.835
  3.838   3.858   3.865   3.962   3.978   4.057   4.081   4.087
  4.117   4.134   4.155   4.169   4.182   4.246   4.281   4.319
  4.443   4.511   5.050   5.119   5.175   5.188   5.233   5.260
  5.286   5.422   5.443   5.516   5.633   5.644   5.690   5.885
  5.902  23.766  23.840  23.853  23.899  23.904  23.934  23.943
 23.952  23.959  23.989  24.000  24.046  49.915  49.946  49.993
 50.046  50.051
 --------------------------------------------------------------
 
          Ground-State Mulliken Net Atomic Charges

     Atom                 Charge (a.u.)
  ----------------------------------------
      1 C                     0.418741
      2 C                     0.755790
      3 C                    -1.120334
      4 C                    -0.794845
      5 O                    -0.014468
      6 O                    -0.129522
      7 O                     0.015149
      8 O                    -0.163658
      9 C                    -0.178848
     10 C                    -0.200422
     11 C                    -0.548808
     12 C                    -0.454520
     13 C                    -0.376859
     14 C                    -0.427080
     15 O                     0.032763
     16 H                     0.266705
     17 H                     0.285908
     18 H                     0.175999
     19 H                     0.186198
     20 H                     0.174801
     21 H                     0.137521
     22 H                     0.173913
     23 H                     0.139426
     24 H                     0.164431
     25 H                     0.172328
     26 H                     0.176035
     27 H                     0.175208
     28 C                    -0.010614
     29 H                     0.174299
     30 H                     0.172027
     31 H                     0.179492
     32 C                    -0.060693
     33 H                     0.141126
     34 H                     0.201628
     35 H                     0.161182
  ----------------------------------------
  Sum of atomic charges =     0.000000

 -----------------------------------------------------------------
                    Cartesian Multipole Moments
 -----------------------------------------------------------------
    Charge (ESU x 10^10)
                 0.0000
    Dipole Moment (Debye)
         X       0.9214      Y      -0.5435      Z       0.4341
       Tot       1.1545
    Quadrupole Moments (Debye-Ang)
        XX     -97.5121     XY      -0.7868     YY     -86.9971
        XZ      -0.7318     YZ      -5.4541     ZZ    -114.8676
    Octopole Moments (Debye-Ang^2)
       XXX     150.0660    XXY     192.0907    XYY      47.0211
       YYY     513.1717    XXZ      -4.5256    XYZ       9.0198
       YYZ      -2.5702    XZZ      50.2793    YZZ     181.0760
       ZZZ     -51.3168
    Hexadecapole Moments (Debye-Ang^3)
      XXXX   -1461.3474   XXXY    -489.4474   XXYY    -929.0234
      XYYY    -480.8202   YYYY   -4078.4068   XXXZ     219.3155
      XXYZ     -37.5395   XYYZ      64.4606   YYYZ     -48.2545
      XXZZ    -445.4781   XYZZ    -158.1506   YYZZ    -865.2831
      XZZZ     295.7932   YZZZ     -59.1777   ZZZZ   -1206.3515
 -----------------------------------------------------------------
 Calculating analytic gradient of the SCF energy
 Gradient of SCF Energy
            1           2           3           4           5           6
    1   0.0000477  -0.0000388  -0.0000278   0.0000691  -0.0001143  -0.0000033
    2  -0.0000530   0.0000651  -0.0000144  -0.0000630   0.0000186  -0.0000091
    3   0.0000025  -0.0000424   0.0000515  -0.0000702  -0.0000076  -0.0000114
            7           8           9          10          11          12
    1   0.0000696  -0.0000944  -0.0000007   0.0000091  -0.0000298   0.0000178
    2   0.0000036  -0.0001377  -0.0000204  -0.0000071   0.0000763  -0.0000304
    3   0.0000480  -0.0000745   0.0000122  -0.0000041   0.0000720   0.0000126
           13          14          15          16          17          18
    1   0.0000287  -0.0000126  -0.0000243   0.0000177  -0.0000159   0.0000003
    2  -0.0000056  -0.0000445   0.0000897  -0.0000047  -0.0000127   0.0000012
    3   0.0000022   0.0000160   0.0000178  -0.0000266  -0.0000077   0.0000096
           19          20          21          22          23          24
    1  -0.0000003   0.0000107  -0.0000026   0.0000010  -0.0000107  -0.0000005
    2  -0.0000027   0.0000043  -0.0000046  -0.0000052  -0.0000154  -0.0000069
    3   0.0000051  -0.0000047   0.0000070  -0.0000214  -0.0000057   0.0000142
           25          26          27          28          29          30
    1  -0.0000041  -0.0000008   0.0000031  -0.0000101  -0.0000038   0.0000002
    2  -0.0000001   0.0000010   0.0000020   0.0000017  -0.0000012   0.0000028
    3   0.0000081  -0.0000042  -0.0000014  -0.0000220  -0.0000032  -0.0000092
           31          32          33          34          35
    1   0.0000075   0.0000805   0.0000074   0.0000154   0.0000091
    2   0.0000037   0.0000423   0.0000233   0.0000961   0.0000071
    3  -0.0000125   0.0000603  -0.0000082  -0.0000084   0.0000062
 Max gradient component =       1.377E-04
 RMS gradient           =       3.609E-05
 Gradient time:  CPU 400.39 s  wall 27.89 s
 Geometry Optimization Parameters
   NAtoms,    NIC,     NZ,  NCons,   NDum,   NFix, NCnnct, MaxDiis
       35     275       0       0       0       0       0       0

 Cartesian Hessian Update
 Hessian Updated using BFGS Update


** GEOMETRY OPTIMIZATION IN DELOCALIZED INTERNAL COORDINATES **
   Searching for a Minimum

   Optimization Cycle:   2

                       Coordinates (Angstroms)
     ATOM                X               Y               Z
      1  C         0.4336240749   -2.4377971062   -0.0553164436
      2  C        -0.4936439957   -2.1055172248    1.1674022808
      3  C        -0.8641745956   -0.6527576922    1.3867418824
      4  C         1.0287197029   -1.2184738907   -0.7418718312
      5  O        -1.1864475388   -0.0257221523    0.2407210040
      6  O        -0.9220502420   -0.1298892800    2.4740581812
      7  O         1.7221743699   -0.5002147904    0.1759415610
      8  O         0.9772129649   -0.9185500177   -1.9057112439
      9  C         2.3208281817    0.7184116837   -0.2974134129
     10  C        -1.5935948170    1.3482255009    0.3523145460
     11  C        -0.4730890164   -3.4008965549   -0.8948904303
     12  C        -0.4720215719   -4.7638959008   -0.1452210051
     13  C        -1.3689312055   -4.4599307887    1.0810477481
     14  C        -1.7570259862   -2.9809566865    0.8251339535
     15  O        -1.7973135933   -2.9108375787   -0.6062182106
     16  H         1.3046563472   -2.9857117398    0.3144428296
     17  H        -0.0477780945   -2.4303416540    2.1053076485
     18  H         1.5606528841    1.3675119014   -0.7351046868
     19  H        -0.8030743802    1.9446212640    0.8108326807
     20  H        -0.9219174941   -5.5258204747   -0.7838252580
     21  H         0.5338979071   -5.0985798236    0.1167685789
     22  H        -2.2671456095   -5.0799076081    1.0791340421
     23  H        -0.8675799589   -4.5981402141    2.0410560284
     24  H         2.7653462563    1.1831015748    0.5797951572
     25  H         3.0830474309    0.5042455670   -1.0482564049
     26  H        -2.4975483707    1.4293680460    0.9580377436
     27  H        -1.7835913922    1.6754984173   -0.6672384285
     28  C        -3.0719333267   -2.5398805160    1.4282544498
     29  H        -3.8683094119   -3.2159676720    1.1103021880
     30  H        -3.0145533613   -2.5547877480    2.5191288270
     31  H        -3.3332356809   -1.5296854275    1.1085839361
     32  C        -0.2559957915   -3.5100646115   -2.3885899330
     33  H        -0.9386480687   -4.2606444936   -2.7943438702
     34  H        -0.4261615242   -2.5576810396   -2.8839856115
     35  H         0.7692249076   -3.8243513089   -2.6010985065
   Point Group: c1    Number of degrees of freedom:    99


   Energy is   -844.529342865

 Hessian Updated using BFGS Update

 87 Hessian modes will be used to form the next step
  Hessian Eigenvalues:
     0.003224    0.006509    0.007038    0.007187    0.007501    0.008253
     0.009774    0.010572    0.010687    0.011229    0.021468    0.022849
     0.023056    0.025124    0.035364    0.035861    0.037849    0.039189
     0.044207    0.045093    0.050801    0.051898    0.054736    0.056430
     0.056675    0.058122    0.058199    0.059490    0.060166    0.063352
     0.065632    0.066262    0.080323    0.087219    0.098405    0.101403
     0.101415    0.102996    0.105968    0.106081    0.111439    0.125526
     0.125950    0.159748    0.159842    0.169682    0.197890    0.232395
     0.236430    0.249370    0.249892    0.249986    0.251802    0.253240
     0.256432    0.274103    0.295700    0.307740    0.309310    0.311014
     0.329322    0.338809    0.344149    0.344474    0.345101    0.345229
     0.345757    0.345829    0.346001    0.346456    0.346563    0.346631
     0.346670    0.346711    0.346748    0.346777    0.347151    0.350295
     0.350789    0.350967    0.362796    0.399209    0.399646    0.538312
     0.560370    1.009537    1.033379

 Minimum Search - Taking Simple RFO Step
 Searching for Lamda that Minimizes Along All modes
 Value Taken    Lamda =  -0.00000325
 Step Taken.  Stepsize is  0.011309

                             Maximum     Tolerance    Cnvgd?
         Gradient           0.000392      0.000001      NO
         Displacement       0.004929      0.000001      NO
         Energy change      0.000001      0.000000      NO


 New Cartesian Coordinates Obtained by Inverse Iteration

 Displacement from previous Coordinates is:  0.053727
 Adding empirical dispersion correction 
 ----------------------------------------------------------------
 Doing -D3(op) with
 s6 =   1.00000
 s8 =   0.78311
 a1 =   0.30000
 a2 =   4.25000
 n  =  10.00000
 -D3 energy without 3body term =     -0.0424756651 hartrees
 ----------------------------------------------------------------
             Standard Nuclear Orientation (Angstroms)
    I     Atom           X                Y                Z
 ----------------------------------------------------------------
    1      C       0.4334514188    -2.4383032980    -0.0563863416
    2      C      -0.4933323180    -2.1067827450     1.1667841011
    3      C      -0.8625826879    -0.6538918638     1.3872560504
    4      C       1.0267815811    -1.2178526922    -0.7425974010
    5      O      -1.1812458203    -0.0248495795     0.2413460912
    6      O      -0.9206413813    -0.1319563757     2.4750125150
    7      O       1.7177035837    -0.4980307581     0.1758788457
    8      O       0.9749812617    -0.9172947973    -1.9062487936
    9      C       2.3138051854     0.7221191445    -0.2968124199
   10      C      -1.5859200721     1.3497679189     0.3537783835
   11      C      -0.4728748425    -3.4025781095    -0.8953108562
   12      C      -0.4719701396    -4.7649060937    -0.1443422994
   13      C      -1.3698955681    -4.4603301453     1.0810303426
   14      C      -1.7572244782    -2.9813900543     0.8241878889
   15      O      -1.7971101366    -2.9122414335    -0.6072542203
   16      H       1.3052090105    -2.9852405430     0.3130924931
   17      H      -0.0474244006    -2.4325293933     2.1043522015
   18      H       1.5524884145     1.3692907742    -0.7353657406
   19      H      -0.7951014853     1.9440888322     0.8144679341
   20      H      -0.9212068737    -5.5274978694    -0.7826161411
   21      H       0.5338546436    -5.0991092903     0.1186101823
   22      H      -2.2682815476    -5.0800542281     1.0786594431
   23      H      -0.8693498639    -4.5982241983     2.0415037240
   24      H       2.7561640516     1.1879407478     0.5808841001
   25      H       3.0774159732     0.5098770217    -1.0467873025
   26      H      -2.4908456705     1.4319675410     0.9579017696
   27      H      -1.7733590110     1.6785898101    -0.6657457750
   28      C      -3.0720925725    -2.5394215434     1.4267467093
   29      H      -3.8687034510    -3.2151804269     1.1086912377
   30      H      -3.0151043838    -2.5540843833     2.5176442300
   31      H      -3.3327900568    -1.5291824759     1.1067332967
   32      C      -0.2558665700    -3.5136527650    -2.3889059840
   33      H      -0.9383586888    -4.2649938984    -2.7935309917
   34      H      -0.4263521179    -2.5620752960    -2.8856506552
   35      H       0.7693990140    -3.8280075733    -2.6010866280
 ----------------------------------------------------------------
 Nuclear Repulsion Energy =  1410.2761517361 hartrees
 There are       65 alpha and       65 beta electrons
 Applying Cartesian multipole field
    Component          Value
    ---------          -----
     (2,0,0)        1.00000E-11
     (0,2,0)        2.00000E-12
     (0,0,2)       -3.00000E-11
 Nucleus-field energy     =    -0.0000000063 hartrees
 Requested basis set is 6-311++G(d,p)
 There are 192 shells and 500 basis functions
 A cutoff of  1.0D-11 yielded  15179 shell pairs
 There are    104802 function pairs (    111721 Cartesian)
 Smallest overlap matrix eigenvalue = 4.95E-07

 Q-Chem warning in module /fs/scratch/osu6415/qchem-kaunlao-vdw/stvman/mkSTV.C, line 281:

 Overlap eigenvalue is smaller than square root of threshold

 Linear dependence detected in AO basis
 Number of orthogonalized atomic orbitals = 499
 Maximum deviation from orthogonality = 1.769E-10
 Guess MOs from SCF MO coefficient file
 Reading MOs from coefficient file
 Reading MOs from coefficient file
 A restricted hybrid HF-DFT SCF calculation will be
 performed using Pulay DIIS extrapolation
 Exchange:     0.2000 Hartree-Fock + 0.0800 Slater + 0.7200 B88
 Correlation:  0.1900 VWN1RPA + 0.8100 LYP
 Using SG-1 standard quadrature grid
 Dispersion:   Grimme D3
 SCF converges when DIIS error is below 1.0E-08
 Geometry optimization detected.  Setting ReadMinima to 0
 Setting SaveMinima to 0
 using 20 threads for integral computing
 -------------------------------------------------------
 OpenMP Integral computing Module                
 Release: version 1.0, May 2013, Q-Chem Inc. Pittsburgh 
 -------------------------------------------------------
 -------------------------------------------------------
 OpenMP BLAS3 based DFT computing Module                
 Release: version 1.0, May 2013, Q-Chem Inc. Pittsburgh 
 -------------------------------------------------------
 ---------------------------------------
  Cycle       Energy         DIIS Error
 ---------------------------------------
    1    -844.5300988542      5.12E-05
    2    -844.5293425505      7.94E-06
    3    -844.5293404966      1.24E-05
    4    -844.5293445019      2.72E-06
    5    -844.5293446507      8.65E-07
    6    -844.5293446664      2.64E-07
    7    -844.5293446677      1.03E-07
    8    -844.5293446685      3.49E-08
    9    -844.5293446670      9.68E-09 Convergence criterion met
 ---------------------------------------
 SCF time:  CPU 724.11 s  wall 38.01 s
 SCF   energy in the final basis set = -844.52934467
 Total energy in the final basis set = -844.52934467
 
 --------------------------------------------------------------
 
                    Orbital Energies (a.u.)
 --------------------------------------------------------------
 
 Alpha MOs
 -- Occupied --
-19.173 -19.173 -19.126 -19.118 -19.116 -10.309 -10.305 -10.243
-10.238 -10.230 -10.230 -10.206 -10.203 -10.178 -10.176 -10.169
-10.157  -1.119  -1.112  -1.060  -1.029  -1.027  -0.832  -0.804
 -0.785  -0.747  -0.728  -0.722  -0.675  -0.643  -0.603  -0.581
 -0.569  -0.558  -0.522  -0.513  -0.508  -0.492  -0.486  -0.478
 -0.475  -0.471  -0.459  -0.442  -0.434  -0.429  -0.416  -0.411
 -0.406  -0.399  -0.396  -0.373  -0.372  -0.367  -0.360  -0.355
 -0.352  -0.347  -0.332  -0.329  -0.318  -0.314  -0.287  -0.278
 -0.272
 -- Virtual --
 -0.019  -0.011  -0.006   0.000   0.006   0.009   0.013   0.018
  0.027   0.030   0.033   0.040   0.040   0.045   0.049   0.053
  0.060   0.063   0.065   0.067   0.080   0.082   0.088   0.089
  0.092   0.098   0.100   0.103   0.108   0.112   0.114   0.117
  0.118   0.119   0.124   0.129   0.133   0.134   0.136   0.140
  0.142   0.144   0.146   0.149   0.151   0.153   0.156   0.161
  0.162   0.164   0.165   0.169   0.174   0.175   0.177   0.181
  0.185   0.191   0.191   0.198   0.200   0.202   0.204   0.207
  0.209   0.212   0.213   0.219   0.224   0.228   0.229   0.232
  0.235   0.247   0.247   0.256   0.263   0.267   0.271   0.278
  0.280   0.284   0.287   0.292   0.298   0.301   0.305   0.308
  0.319   0.322   0.330   0.331   0.339   0.344   0.346   0.346
  0.351   0.359   0.360   0.361   0.365   0.371   0.373   0.374
  0.379   0.384   0.388   0.392   0.397   0.404   0.413   0.418
  0.425   0.430   0.434   0.445   0.454   0.464   0.470   0.478
  0.494   0.497   0.506   0.511   0.517   0.530   0.535   0.540
  0.550   0.565   0.568   0.577   0.584   0.592   0.601   0.605
  0.610   0.611   0.625   0.634   0.641   0.643   0.650   0.655
  0.662   0.667   0.672   0.676   0.681   0.688   0.695   0.697
  0.704   0.711   0.719   0.720   0.729   0.734   0.737   0.741
  0.744   0.759   0.762   0.772   0.786   0.796   0.802   0.810
  0.818   0.829   0.838   0.844   0.855   0.863   0.873   0.916
  0.927   0.952   0.965   0.996   1.006   1.025   1.033   1.057
  1.062   1.075   1.079   1.107   1.108   1.131   1.143   1.173
  1.180   1.196   1.200   1.204   1.223   1.234   1.244   1.249
  1.261   1.275   1.286   1.291   1.298   1.305   1.323   1.339
  1.345   1.365   1.371   1.378   1.389   1.407   1.429   1.443
  1.444   1.458   1.468   1.474   1.476   1.500   1.512   1.514
  1.530   1.539   1.545   1.551   1.567   1.569   1.575   1.579
  1.582   1.596   1.606   1.609   1.612   1.618   1.631   1.644
  1.651   1.662   1.671   1.687   1.694   1.697   1.701   1.712
  1.716   1.725   1.734   1.739   1.751   1.757   1.760   1.788
  1.793   1.805   1.811   1.815   1.837   1.841   1.854   1.866
  1.878   1.882   1.897   1.916   1.924   1.946   1.973   1.984
  1.992   2.012   2.021   2.027   2.030   2.042   2.062   2.084
  2.088   2.104   2.116   2.129   2.137   2.150   2.160   2.180
  2.190   2.198   2.212   2.230   2.234   2.267   2.282   2.304
  2.311   2.378   2.390   2.403   2.414   2.445   2.460   2.470
  2.486   2.488   2.500   2.503   2.517   2.523   2.527   2.538
  2.539   2.559   2.577   2.583   2.592   2.594   2.601   2.609
  2.611   2.637   2.649   2.672   2.685   2.692   2.709   2.718
  2.730   2.755   2.777   2.792   2.812   2.819   2.851   2.855
  2.867   2.872   2.882   2.894   2.906   2.923   2.950   2.978
  2.991   2.993   3.016   3.028   3.039   3.041   3.059   3.063
  3.075   3.089   3.115   3.128   3.133   3.160   3.173   3.198
  3.217   3.234   3.244   3.257   3.271   3.311   3.336   3.358
  3.371   3.376   3.397   3.408   3.539   3.600   3.607   3.668
  3.689   3.712   3.737   3.782   3.785   3.822   3.822   3.835
  3.837   3.858   3.865   3.962   3.977   4.057   4.081   4.088
  4.117   4.134   4.154   4.169   4.182   4.246   4.281   4.319
  4.443   4.511   5.049   5.120   5.175   5.189   5.233   5.260
  5.286   5.422   5.443   5.516   5.633   5.644   5.690   5.885
  5.902  23.766  23.840  23.853  23.899  23.904  23.934  23.943
 23.951  23.959  23.989  24.000  24.046  49.915  49.947  49.993
 50.046  50.051
 --------------------------------------------------------------
 
          Ground-State Mulliken Net Atomic Charges

     Atom                 Charge (a.u.)
  ----------------------------------------
      1 C                     0.418557
      2 C                     0.755036
      3 C                    -1.118250
      4 C                    -0.795425
      5 O                    -0.015215
      6 O                    -0.129722
      7 O                     0.015342
      8 O                    -0.164099
      9 C                    -0.179155
     10 C                    -0.200895
     11 C                    -0.546530
     12 C                    -0.454157
     13 C                    -0.378295
     14 C                    -0.426626
     15 O                     0.032581
     16 H                     0.266492
     17 H                     0.285934
     18 H                     0.176307
     19 H                     0.186387
     20 H                     0.174732
     21 H                     0.137580
     22 H                     0.173945
     23 H                     0.139346
     24 H                     0.164516
     25 H                     0.172372
     26 H                     0.176009
     27 H                     0.175345
     28 C                    -0.011377
     29 H                     0.174327
     30 H                     0.172116
     31 H                     0.179516
     32 C                    -0.060634
     33 H                     0.141114
     34 H                     0.201702
     35 H                     0.161121
  ----------------------------------------
  Sum of atomic charges =     0.000000

 -----------------------------------------------------------------
                    Cartesian Multipole Moments
 -----------------------------------------------------------------
    Charge (ESU x 10^10)
                 0.0000
    Dipole Moment (Debye)
         X       0.9210      Y      -0.5423      Z       0.4357
       Tot       1.1542
    Quadrupole Moments (Debye-Ang)
        XX     -97.5422     XY      -0.7839     YY     -86.9700
        XZ      -0.7314     YZ      -5.4375     ZZ    -114.8794
    Octopole Moments (Debye-Ang^2)
       XXX     150.0192    XXY     192.0515    XYY      47.0419
       YYY     513.1544    XXZ      -4.5044    XYZ       9.0097
       YYZ      -2.5842    XZZ      50.2974    YZZ     181.1088
       ZZZ     -51.3130
    Hexadecapole Moments (Debye-Ang^3)
      XXXX   -1458.0205   XXXY    -490.0316   XXYY    -928.8962
      XYYY    -481.4043   YYYY   -4080.9140   XXXZ     219.0000
      XXYZ     -37.6586   XYYZ      64.3477   YYYZ     -48.4195
      XXZZ    -444.9013   XYZZ    -158.3933   YYZZ    -865.6911
      XZZZ     295.4475   YZZZ     -59.3716   ZZZZ   -1206.6519
 -----------------------------------------------------------------
 Calculating analytic gradient of the SCF energy
 Gradient of SCF Energy
            1           2           3           4           5           6
    1  -0.0000487   0.0000613  -0.0002156   0.0001905   0.0001360   0.0000912
    2   0.0000340   0.0000033  -0.0000738  -0.0001602   0.0000146   0.0000181
    3   0.0000130   0.0000029   0.0000334  -0.0000429  -0.0000451   0.0000013
            7           8           9          10          11          12
    1  -0.0001251  -0.0001094   0.0000115   0.0000129  -0.0000198   0.0000082
    2   0.0000622   0.0000149   0.0000059   0.0000123   0.0000082  -0.0000081
    3   0.0000588  -0.0000089   0.0000082  -0.0000029   0.0000235   0.0000067
           13          14          15          16          17          18
    1   0.0000023  -0.0000031  -0.0000072   0.0000026  -0.0000038   0.0000070
    2  -0.0000034   0.0000107   0.0000096   0.0000136  -0.0000031   0.0000028
    3  -0.0000040  -0.0000216  -0.0000152  -0.0000075  -0.0000013   0.0000075
           19          20          21          22          23          24
    1  -0.0000067  -0.0000005  -0.0000045   0.0000000  -0.0000044  -0.0000020
    2   0.0000024   0.0000024  -0.0000064   0.0000003  -0.0000046  -0.0000033
    3   0.0000016  -0.0000016   0.0000011  -0.0000081  -0.0000045   0.0000085
           25          26          27          28          29          30
    1   0.0000007  -0.0000015   0.0000065  -0.0000116  -0.0000020  -0.0000027
    2  -0.0000023  -0.0000029   0.0000025  -0.0000001  -0.0000001  -0.0000002
    3   0.0000094  -0.0000011   0.0000029  -0.0000070  -0.0000029  -0.0000081
           31          32          33          34          35
    1  -0.0000007   0.0000237   0.0000058   0.0000072   0.0000021
    2  -0.0000088   0.0000106   0.0000097   0.0000296   0.0000095
    3  -0.0000099   0.0000191  -0.0000033  -0.0000042   0.0000022
 Max gradient component =       2.156E-04
 RMS gradient           =       4.312E-05
 Gradient time:  CPU 399.74 s  wall 27.85 s
 Geometry Optimization Parameters
   NAtoms,    NIC,     NZ,  NCons,   NDum,   NFix, NCnnct, MaxDiis
       35     275       0       0       0       0       0       0

 Cartesian Hessian Update
 Hessian Updated using BFGS Update


** GEOMETRY OPTIMIZATION IN DELOCALIZED INTERNAL COORDINATES **
   Searching for a Minimum

   Optimization Cycle:   3

                       Coordinates (Angstroms)
     ATOM                X               Y               Z
      1  C         0.4334514188   -2.4383032980   -0.0563863416
      2  C        -0.4933323180   -2.1067827450    1.1667841011
      3  C        -0.8625826879   -0.6538918638    1.3872560504
      4  C         1.0267815811   -1.2178526922   -0.7425974010
      5  O        -1.1812458203   -0.0248495795    0.2413460912
      6  O        -0.9206413813   -0.1319563757    2.4750125150
      7  O         1.7177035837   -0.4980307581    0.1758788457
      8  O         0.9749812617   -0.9172947973   -1.9062487936
      9  C         2.3138051854    0.7221191445   -0.2968124199
     10  C        -1.5859200721    1.3497679189    0.3537783835
     11  C        -0.4728748425   -3.4025781095   -0.8953108562
     12  C        -0.4719701396   -4.7649060937   -0.1443422994
     13  C        -1.3698955681   -4.4603301453    1.0810303426
     14  C        -1.7572244782   -2.9813900543    0.8241878889
     15  O        -1.7971101366   -2.9122414335   -0.6072542203
     16  H         1.3052090105   -2.9852405430    0.3130924931
     17  H        -0.0474244006   -2.4325293933    2.1043522015
     18  H         1.5524884145    1.3692907742   -0.7353657406
     19  H        -0.7951014853    1.9440888322    0.8144679341
     20  H        -0.9212068737   -5.5274978694   -0.7826161411
     21  H         0.5338546436   -5.0991092903    0.1186101823
     22  H        -2.2682815476   -5.0800542281    1.0786594431
     23  H        -0.8693498639   -4.5982241983    2.0415037240
     24  H         2.7561640516    1.1879407478    0.5808841001
     25  H         3.0774159732    0.5098770217   -1.0467873025
     26  H        -2.4908456705    1.4319675410    0.9579017696
     27  H        -1.7733590110    1.6785898101   -0.6657457750
     28  C        -3.0720925725   -2.5394215434    1.4267467093
     29  H        -3.8687034510   -3.2151804269    1.1086912377
     30  H        -3.0151043838   -2.5540843833    2.5176442300
     31  H        -3.3327900568   -1.5291824759    1.1067332967
     32  C        -0.2558665700   -3.5136527650   -2.3889059840
     33  H        -0.9383586888   -4.2649938984   -2.7935309917
     34  H        -0.4263521179   -2.5620752960   -2.8856506552
     35  H         0.7693990140   -3.8280075733   -2.6010866280
   Point Group: c1    Number of degrees of freedom:    99


   Energy is   -844.529344667

 Hessian Updated using BFGS Update

 88 Hessian modes will be used to form the next step
  Hessian Eigenvalues:
     0.003018    0.006546    0.006998    0.007273    0.007411    0.007557
     0.010444    0.010565    0.010687    0.021101    0.022316    0.022857
     0.023351    0.026066    0.035007    0.035707    0.037828    0.039101
     0.044319    0.045466    0.050645    0.054016    0.054774    0.056450
     0.056672    0.058075    0.058209    0.059493    0.060104    0.062467
     0.065500    0.066168    0.079454    0.085356    0.095783    0.101403
     0.101416    0.102137    0.106081    0.111361    0.124801    0.127198
     0.159743    0.159906    0.159948    0.172916    0.199171    0.228119
     0.239140    0.248320    0.249616    0.249923    0.249988    0.251488
     0.253217    0.255786    0.274176    0.283025    0.301781    0.309320
     0.310664    0.311364    0.336056    0.344188    0.344487    0.344952
     0.345226    0.345752    0.345830    0.345998    0.346466    0.346579
     0.346631    0.346670    0.346698    0.346747    0.346775    0.347842
     0.350299    0.350791    0.350969    0.352318    0.399063    0.399686
     0.537507    0.559583    1.009548    1.032766

 Minimum Search - Taking Simple RFO Step
 Searching for Lamda that Minimizes Along All modes
 Value Taken    Lamda =  -0.00000428
 Step Taken.  Stepsize is  0.016233

                             Maximum     Tolerance    Cnvgd?
         Gradient           0.000263      0.000001      NO
         Displacement       0.005419      0.000001      NO
         Energy change     -0.000002      0.000000      NO


 New Cartesian Coordinates Obtained by Inverse Iteration

 Displacement from previous Coordinates is:  0.056315
 Adding empirical dispersion correction 
 ----------------------------------------------------------------
 Doing -D3(op) with
 s6 =   1.00000
 s8 =   0.78311
 a1 =   0.30000
 a2 =   4.25000
 n  =  10.00000
 -D3 energy without 3body term =     -0.0424425945 hartrees
 ----------------------------------------------------------------
             Standard Nuclear Orientation (Angstroms)
    I     Atom           X                Y                Z
 ----------------------------------------------------------------
    1      C       0.4332378547    -2.4364181723    -0.0582042336
    2      C      -0.4930215781    -2.1058260266     1.1655825925
    3      C      -0.8621134375    -0.6530497884     1.3872201589
    4      C       1.0258569396    -1.2145531833    -0.7430050219
    5      O      -1.1848769230    -0.0242476451     0.2423631163
    6      O      -0.9223934056    -0.1326718731     2.4756063965
    7      O       1.7210539953    -0.4988006713     0.1753669503
    8      O       0.9765788047    -0.9133063373    -1.9065720087
    9      C       2.3210798062     0.7197298443    -0.2965676510
   10      C      -1.5934965662     1.3490472093     0.3565989092
   11      C      -0.4726584935    -3.4024421302    -0.8963327504
   12      C      -0.4711170397    -4.7638393070    -0.1436228195
   13      C      -1.3697501404    -4.4588525419     1.0811533072
   14      C      -1.7570687345    -2.9802541489     0.8231808332
   15      O      -1.7970313452    -2.9124886626    -0.6083833688
   16      H       1.3054623037    -2.9826806479     0.3111897869
   17      H      -0.0465842515    -2.4320395357     2.1027499563
   18      H       1.5615591917     1.3703425862    -0.7331464172
   19      H      -0.8034637971     1.9454422486     0.8159728209
   20      H      -0.9195844321    -5.5274660470    -0.7812192506
   21      H       0.5348817414    -5.0970237013     0.1199624003
   22      H      -2.2680327690    -5.0787391932     1.0788891315
   23      H      -0.8695472680    -4.5958812526     2.0419352362
   24      H       2.7664985540     1.1827386986     0.5810761920
   25      H       3.0827983294     0.5056220879    -1.0479472218
   26      H      -2.4973500417     1.4281088476     0.9627508600
   27      H      -1.7841544244     1.6779848087    -0.6622953443
   28      C      -3.0719041778    -2.5378427302     1.4255355714
   29      H      -3.8685773473    -3.2136646709     1.1077557072
   30      H      -3.0149780167    -2.5520185211     2.5164508359
   31      H      -3.3325360531    -1.5277189662     1.1050767986
   32      C      -0.2566403408    -3.5165788872    -2.3899208792
   33      H      -0.9385946057    -4.2697149500    -2.7921651808
   34      H      -0.4286909691    -2.5665561494    -2.8888779081
   35      H       0.7687786374    -3.8303606305    -2.6022375155
 ----------------------------------------------------------------
 Nuclear Repulsion Energy =  1409.9588831932 hartrees
 There are       65 alpha and       65 beta electrons
 Applying Cartesian multipole field
    Component          Value
    ---------          -----
     (2,0,0)        1.00000E-11
     (0,2,0)        2.00000E-12
     (0,0,2)       -3.00000E-11
 Nucleus-field energy     =    -0.0000000062 hartrees
 Requested basis set is 6-311++G(d,p)
 There are 192 shells and 500 basis functions
 A cutoff of  1.0D-11 yielded  15176 shell pairs
 There are    104754 function pairs (    111673 Cartesian)
 Smallest overlap matrix eigenvalue = 4.95E-07

 Q-Chem warning in module /fs/scratch/osu6415/qchem-kaunlao-vdw/stvman/mkSTV.C, line 281:

 Overlap eigenvalue is smaller than square root of threshold

 Linear dependence detected in AO basis
 Number of orthogonalized atomic orbitals = 499
 Maximum deviation from orthogonality = 1.207E-10
 Guess MOs from SCF MO coefficient file
 Reading MOs from coefficient file
 Reading MOs from coefficient file
 A restricted hybrid HF-DFT SCF calculation will be
 performed using Pulay DIIS extrapolation
 Exchange:     0.2000 Hartree-Fock + 0.0800 Slater + 0.7200 B88
 Correlation:  0.1900 VWN1RPA + 0.8100 LYP
 Using SG-1 standard quadrature grid
 Dispersion:   Grimme D3
 SCF converges when DIIS error is below 1.0E-08
 Geometry optimization detected.  Setting ReadMinima to 0
 Setting SaveMinima to 0
 using 20 threads for integral computing
 -------------------------------------------------------
 OpenMP Integral computing Module                
 Release: version 1.0, May 2013, Q-Chem Inc. Pittsburgh 
 -------------------------------------------------------
 -------------------------------------------------------
 OpenMP BLAS3 based DFT computing Module                
 Release: version 1.0, May 2013, Q-Chem Inc. Pittsburgh 
 -------------------------------------------------------
 ---------------------------------------
  Cycle       Energy         DIIS Error
 ---------------------------------------
    1    -844.5285251848      6.16E-05
    2    -844.5293352649      9.51E-06
    3    -844.5293318821      1.59E-05
    4    -844.5293379441      3.04E-06
    5    -844.5293381181      1.22E-06
    6    -844.5293381532      3.26E-07
    7    -844.5293381552      1.36E-07
    8    -844.5293381565      4.30E-08
    9    -844.5293381563      1.93E-08
   10    -844.5293381582      5.67E-09 Convergence criterion met
 ---------------------------------------
 SCF time:  CPU 800.12 s  wall 42.66 s
 SCF   energy in the final basis set = -844.52933816
 Total energy in the final basis set = -844.52933816
 
 --------------------------------------------------------------
 
                    Orbital Energies (a.u.)
 --------------------------------------------------------------
 
 Alpha MOs
 -- Occupied --
-19.173 -19.173 -19.126 -19.118 -19.116 -10.309 -10.305 -10.243
-10.239 -10.230 -10.230 -10.206 -10.203 -10.178 -10.176 -10.169
-10.157  -1.119  -1.112  -1.060  -1.029  -1.027  -0.832  -0.804
 -0.785  -0.747  -0.728  -0.722  -0.675  -0.643  -0.603  -0.581
 -0.569  -0.558  -0.522  -0.513  -0.508  -0.492  -0.486  -0.478
 -0.475  -0.471  -0.459  -0.442  -0.433  -0.429  -0.416  -0.411
 -0.406  -0.399  -0.396  -0.373  -0.372  -0.367  -0.360  -0.355
 -0.352  -0.347  -0.332  -0.329  -0.318  -0.314  -0.287  -0.278
 -0.272
 -- Virtual --
 -0.019  -0.011  -0.006   0.000   0.006   0.009   0.013   0.018
  0.027   0.030   0.033   0.040   0.040   0.045   0.049   0.053
  0.060   0.063   0.065   0.067   0.080   0.082   0.088   0.089
  0.092   0.098   0.100   0.103   0.108   0.113   0.114   0.117
  0.118   0.119   0.124   0.129   0.133   0.134   0.136   0.140
  0.142   0.144   0.146   0.149   0.151   0.153   0.156   0.161
  0.162   0.164   0.165   0.169   0.174   0.175   0.177   0.181
  0.185   0.191   0.191   0.198   0.200   0.202   0.204   0.207
  0.209   0.212   0.214   0.219   0.224   0.228   0.229   0.232
  0.235   0.246   0.248   0.256   0.263   0.267   0.271   0.278
  0.280   0.284   0.287   0.292   0.298   0.301   0.305   0.308
  0.319   0.322   0.330   0.331   0.339   0.344   0.346   0.347
  0.351   0.358   0.360   0.361   0.365   0.371   0.373   0.374
  0.379   0.384   0.388   0.392   0.397   0.405   0.413   0.418
  0.425   0.430   0.434   0.445   0.454   0.464   0.470   0.478
  0.493   0.497   0.506   0.511   0.517   0.530   0.535   0.540
  0.550   0.564   0.568   0.577   0.584   0.592   0.601   0.605
  0.610   0.611   0.625   0.634   0.641   0.643   0.650   0.655
  0.662   0.667   0.672   0.676   0.681   0.689   0.695   0.696
  0.704   0.711   0.719   0.719   0.729   0.734   0.736   0.741
  0.743   0.759   0.762   0.772   0.786   0.796   0.802   0.810
  0.818   0.829   0.838   0.844   0.855   0.863   0.873   0.916
  0.927   0.951   0.964   0.995   1.006   1.025   1.033   1.057
  1.063   1.074   1.079   1.107   1.108   1.131   1.143   1.172
  1.180   1.196   1.201   1.203   1.222   1.234   1.245   1.249
  1.261   1.275   1.286   1.291   1.298   1.305   1.323   1.339
  1.344   1.366   1.371   1.377   1.389   1.407   1.428   1.443
  1.444   1.457   1.467   1.474   1.476   1.500   1.512   1.514
  1.530   1.539   1.545   1.551   1.567   1.569   1.575   1.579
  1.581   1.596   1.606   1.609   1.611   1.618   1.631   1.644
  1.651   1.662   1.672   1.686   1.694   1.697   1.701   1.713
  1.716   1.725   1.734   1.739   1.751   1.757   1.760   1.788
  1.793   1.805   1.811   1.815   1.837   1.841   1.854   1.866
  1.878   1.882   1.897   1.917   1.924   1.945   1.973   1.984
  1.992   2.012   2.020   2.027   2.030   2.042   2.062   2.084
  2.088   2.103   2.116   2.129   2.137   2.150   2.160   2.180
  2.190   2.198   2.212   2.230   2.234   2.267   2.282   2.304
  2.311   2.378   2.390   2.403   2.414   2.445   2.460   2.470
  2.486   2.488   2.500   2.503   2.517   2.523   2.527   2.537
  2.539   2.558   2.577   2.583   2.592   2.594   2.601   2.609
  2.611   2.637   2.649   2.672   2.685   2.692   2.709   2.718
  2.730   2.755   2.777   2.792   2.812   2.819   2.850   2.854
  2.867   2.872   2.882   2.893   2.906   2.922   2.950   2.978
  2.991   2.993   3.016   3.027   3.040   3.041   3.059   3.063
  3.075   3.089   3.115   3.129   3.133   3.160   3.173   3.198
  3.216   3.234   3.244   3.256   3.271   3.310   3.336   3.358
  3.370   3.376   3.398   3.409   3.539   3.600   3.607   3.668
  3.689   3.712   3.737   3.782   3.785   3.822   3.822   3.835
  3.837   3.858   3.865   3.962   3.977   4.057   4.081   4.087
  4.117   4.134   4.155   4.169   4.182   4.246   4.281   4.319
  4.443   4.511   5.050   5.119   5.175   5.188   5.233   5.260
  5.286   5.422   5.442   5.516   5.633   5.644   5.690   5.885
  5.902  23.766  23.840  23.853  23.898  23.904  23.934  23.943
 23.951  23.959  23.989  24.000  24.046  49.915  49.947  49.993
 50.046  50.051
 --------------------------------------------------------------
 
          Ground-State Mulliken Net Atomic Charges

     Atom                 Charge (a.u.)
  ----------------------------------------
      1 C                     0.424277
      2 C                     0.756682
      3 C                    -1.118156
      4 C                    -0.806152
      5 O                    -0.014056
      6 O                    -0.129441
      7 O                     0.015456
      8 O                    -0.163698
      9 C                    -0.178847
     10 C                    -0.199837
     11 C                    -0.544637
     12 C                    -0.453128
     13 C                    -0.379665
     14 C                    -0.426081
     15 O                     0.032483
     16 H                     0.266569
     17 H                     0.286018
     18 H                     0.176042
     19 H                     0.186251
     20 H                     0.174632
     21 H                     0.137676
     22 H                     0.174032
     23 H                     0.139243
     24 H                     0.164298
     25 H                     0.172319
     26 H                     0.176078
     27 H                     0.175254
     28 C                    -0.010377
     29 H                     0.174335
     30 H                     0.172299
     31 H                     0.179236
     32 C                    -0.062979
     33 H                     0.141069
     34 H                     0.201780
     35 H                     0.161027
  ----------------------------------------
  Sum of atomic charges =     0.000000

 -----------------------------------------------------------------
                    Cartesian Multipole Moments
 -----------------------------------------------------------------
    Charge (ESU x 10^10)
                 0.0000
    Dipole Moment (Debye)
         X       0.9194      Y      -0.5463      Z       0.4369
       Tot       1.1553
    Quadrupole Moments (Debye-Ang)
        XX     -97.5143     XY      -0.7898     YY     -86.9601
        XZ      -0.7242     YZ      -5.4016     ZZ    -114.8859
    Octopole Moments (Debye-Ang^2)
       XXX     150.0809    XXY     192.0921    XYY      47.0117
       YYY     512.9538    XXZ      -4.4850    XYZ       9.0000
       YYZ      -2.6638    XZZ      50.3067    YZZ     181.0254
       ZZZ     -51.2932
    Hexadecapole Moments (Debye-Ang^3)
      XXXX   -1460.8525   XXXY    -489.6706   XXYY    -929.2203
      XYYY    -480.9588   YYYY   -4078.6968   XXXZ     219.1607
      XXYZ     -37.8206   XYYZ      64.3878   YYYZ     -48.5868
      XXZZ    -445.4826   XYZZ    -158.3141   YYZZ    -865.2645
      XZZZ     295.6916   YZZZ     -59.7071   ZZZZ   -1206.9413
 -----------------------------------------------------------------
 Calculating analytic gradient of the SCF energy
 Gradient of SCF Energy
            1           2           3           4           5           6
    1   0.0001089  -0.0001254   0.0005381  -0.0006090  -0.0001801  -0.0002053
    2   0.0000215  -0.0001073   0.0001822   0.0004932  -0.0000443  -0.0000486
    3  -0.0000435   0.0000626  -0.0000837   0.0002776   0.0000493   0.0000014
            7           8           9          10          11          12
    1   0.0001727   0.0003871   0.0000231   0.0000059   0.0000434  -0.0000371
    2  -0.0001409   0.0000555  -0.0000138  -0.0000342  -0.0001242   0.0000496
    3  -0.0001604   0.0000716   0.0000033   0.0000153  -0.0001070  -0.0000295
           13          14          15          16          17          18
    1  -0.0000588   0.0000595   0.0000492  -0.0000317   0.0000084  -0.0000076
    2   0.0000028   0.0000069  -0.0000838  -0.0000433   0.0000176  -0.0000044
    3  -0.0000210  -0.0000292  -0.0000329   0.0000603   0.0000141   0.0000125
           19          20          21          22          23          24
    1   0.0000058  -0.0000176  -0.0000005  -0.0000098   0.0000020   0.0000069
    2  -0.0000035  -0.0000070   0.0000070   0.0000019   0.0000153   0.0000004
    3   0.0000117  -0.0000035  -0.0000115   0.0000119   0.0000024   0.0000069
           25          26          27          28          29          30
    1   0.0000072  -0.0000084  -0.0000021   0.0000131  -0.0000043  -0.0000118
    2   0.0000091   0.0000121   0.0000013  -0.0000043   0.0000016   0.0000038
    3   0.0000079  -0.0000050  -0.0000016   0.0000170  -0.0000045   0.0000010
           31          32          33          34          35
    1  -0.0000089  -0.0001028   0.0000045  -0.0000136  -0.0000010
    2   0.0000097  -0.0000695  -0.0000315  -0.0001344   0.0000036
    3  -0.0000094  -0.0000932   0.0000035   0.0000157  -0.0000100
[...]
     0.00001336      0.00000391     -0.00019308
    -0.00014960     -0.00003038      0.00003642
    -0.00001204      0.00007679      0.00002621
     0.00062272      0.00037445      0.00011650
     0.05300660      0.01634725      0.03326860
    -0.05289012     -0.01805828     -0.03658681
    -0.00066851     -0.00055943     -0.00043277
    -0.00008122      0.00001816      0.00009852
    -0.08058918      0.05156452     -0.03523746
    -0.02281087      0.01922710     -0.04938368
    -0.00007588      0.00019146     -0.00006934
    -0.00066090     -0.00054834     -0.00039389
    -0.19893857     -0.33916869     -0.27950824
    -0.43296663      0.14462522     -0.11585844
     0.39902748      0.27980457      0.00071864
     0.22967283     -0.06446655      0.43586177
     0.00040154      0.00043174      0.00080330
     0.00134162     -0.00035654     -0.00128072
     0.00069732     -0.00012633     -0.00045747
     0.00015780     -0.00029910      0.00070445
     0.00296187      0.00531627      0.00359894
    -0.03998708     -0.03590423     -0.01661106
    -0.00188626      0.00172526     -0.03708205
     0.00831661     -0.02755520      0.01066988
    -0.01626492     -0.00435163     -0.00096939
     0.07285792      0.08369956      0.04258641
    -0.00649693      0.00708086     -0.00488757
     0.12717828     -0.04067353     -0.02647297
vibration 90
    -0.00034890      0.00049815      0.00013766
    -0.00171521      0.00123508     -0.00330929
     0.00000588     -0.00007061     -0.00017503
     0.00004855      0.00005040      0.00052359
     0.00000648      0.00000840      0.00000357
    -0.00000881      0.00001299      0.00004458
    -0.00006882     -0.00005592     -0.00008855
     0.00007089     -0.00002457     -0.00024131
     0.00027782     -0.00009672     -0.00022866
     0.00036423      0.00010266     -0.00002493
    -0.00174075     -0.00036391     -0.00074440
     0.00299975      0.00087845      0.00190935
     0.02074038      0.00733233      0.01406747
     0.00029034      0.00020867     -0.00000566
     0.00036734     -0.00006731     -0.00009611
     0.00693408     -0.00401622      0.00365424
     0.01948963     -0.01512185      0.04014847
    -0.00064819      0.00047569     -0.00034905
    -0.00204150     -0.00145315     -0.00118456
    -0.01064000     -0.01714004     -0.01684592
    -0.02326840      0.00736196     -0.00449954
    -0.15978989     -0.11145716     -0.00033232
    -0.08688873      0.02423101     -0.16609688
     0.00023889      0.00016233      0.00034533
    -0.00273862      0.00081702      0.00281058
    -0.00234126      0.00019792      0.00161279
    -0.00003045      0.00011698     -0.00024896
    -0.00191944     -0.00308711     -0.00234378
     0.02569569      0.02266801      0.01039216
     0.00101032     -0.00102328      0.02342252
    -0.00445658      0.01460537     -0.00574796
    -0.08593446     -0.01959743     -0.00862051
     0.40127964      0.45727824      0.23980262
    -0.01987896     -0.01380304      0.00280537
     0.64919025     -0.20817700     -0.13781180
vibration 91
    -0.00239328      0.00168506     -0.00103577
     0.00609059     -0.00472290      0.01286300
    -0.00002023      0.00021025      0.00067580
     0.00016497      0.00025393     -0.00018501
     0.00002575      0.00000599     -0.00008089
     0.00004403     -0.00009213     -0.00025560
    -0.00004476     -0.00007144     -0.00002215
     0.00000051     -0.00004788      0.00011090
     0.00063310     -0.00024697     -0.00023810
     0.00090716      0.00034316     -0.00018116
    -0.00155393     -0.00059275     -0.00053680
    -0.04926430     -0.01665988     -0.03153271
    -0.03857794     -0.01400135     -0.02548774
     0.00001974     -0.00008953     -0.00016579
     0.00043894     -0.00003203      0.00000579
     0.03117420     -0.01867141      0.01379438
    -0.07286071      0.05632611     -0.15082055
    -0.00273794      0.00212988     -0.00156802
    -0.00538040     -0.00402079     -0.00319156
     0.19424529      0.33255402      0.27593340
     0.39437625     -0.13161986      0.10365448
     0.30524525      0.21050019     -0.00051677
     0.15641524     -0.04344479      0.30342390
    -0.00009496     -0.00027724     -0.00034482
    -0.00464691      0.00133362      0.00466079
    -0.00587854      0.00032993      0.00415891
     0.00045947     -0.00049773      0.00135159
     0.02213468      0.02845795      0.03031600
    -0.28444854     -0.24496467     -0.11286431
    -0.01254075      0.01060304     -0.29288603
     0.03230904     -0.10498915      0.04254456
    -0.01803824     -0.00349601     -0.00251139
     0.08757751      0.09919722      0.05355687
    -0.00152790     -0.01274761      0.00617861
     0.13226625     -0.04248886     -0.02866949
vibration 92
    -0.00028529      0.00026118     -0.00030598
     0.00681807     -0.00470876      0.01323595
     0.00009289      0.00035576      0.00009234
     0.00011502      0.00016156     -0.00016834
     0.00005471     -0.00005803      0.00004978
    -0.00006058     -0.00005483     -0.00001403
    -0.00002822     -0.00003303      0.00001119
     0.00000362     -0.00004295      0.00010818
    -0.00018353      0.00019470     -0.00000387
     0.00025629      0.00022470      0.00021555
    -0.00093856     -0.00025744     -0.00016968
    -0.02354230     -0.00817551     -0.01522615
    -0.02650498     -0.00989343     -0.01691695
    -0.00153456     -0.00105337     -0.00161797
     0.00029683      0.00008963      0.00043573
     0.00559007     -0.00258346      0.00294676
    -0.07423793      0.05764168     -0.15469420
     0.00194101     -0.00161592      0.00110506
    -0.00310450     -0.00243920     -0.00181569
     0.09433238      0.16205568      0.13478856
     0.18827442     -0.06287845      0.04913070
     0.21339857      0.15016940     -0.00067861
     0.10600346     -0.02996918      0.20290096
    -0.00028322     -0.00025472     -0.00046322
     0.00062580     -0.00023874     -0.00068511
     0.00003476     -0.00011280     -0.00003814
    -0.00013099      0.00012884     -0.00078956
    -0.03890600     -0.03461467     -0.06039200
     0.46239868      0.39704246      0.17921594
     0.02483746     -0.01642731      0.57326850
    -0.01824438      0.03471105     -0.02655155
    -0.00722399     -0.00140282     -0.00116007
     0.03630215      0.04119199      0.02240615
    -0.00039837     -0.00669392      0.00328562
     0.05191463     -0.01674782     -0.01138715
vibration 93
    -0.00086290      0.00060073     -0.00035200
    -0.00224476      0.00206328     -0.00518220
     0.00026195     -0.00015665     -0.00007482
    -0.00000969     -0.00002502     -0.00001428
    -0.00024604     -0.00010729      0.00001295
    -0.00009177      0.00005093      0.00007692
    -0.00001598      0.00001628      0.00001029
    -0.00001031      0.00001620      0.00001383
     0.00119750     -0.00058867     -0.00025146
     0.00948959      0.00310471     -0.00084971
    -0.00002421     -0.00006767     -0.00009381
    -0.00445793     -0.00141433     -0.00269317
    -0.00744769     -0.00238260     -0.00458030
    -0.00017921     -0.00168911      0.00079222
     0.00011619      0.00016638     -0.00021284
     0.01054285     -0.00679256      0.00449989
     0.02847792     -0.02208193      0.06035143
    -0.00664564      0.00540533     -0.00385748
    -0.05514813     -0.04048924     -0.03320206
     0.01732612      0.02943410      0.02430650
     0.03587877     -0.01168217      0.00881268
     0.05946079      0.04348831      0.00065884
     0.02811025     -0.00780066      0.05385975
    -0.00009170     -0.00044982     -0.00071112
    -0.00735396      0.00219969      0.00752140
    -0.05949380      0.00444584      0.04177772
     0.00227408      0.00010408      0.00144781
     0.00038509     -0.07686428      0.04919257
     0.21257600      0.16646141      0.09728304
    -0.02583397     -0.00726236     -0.44970936
    -0.18996549      0.76418401     -0.23881066
    -0.00108994      0.00001344     -0.00022221
     0.00487087      0.00549419      0.00305471
     0.00033530     -0.00274405      0.00128162
     0.00793642     -0.00251836     -0.00172026
vibration 94
    -0.00033063      0.00025842     -0.00007075
    -0.00028330      0.00001535     -0.00020950
     0.00017256      0.00013081     -0.00007477
     0.00000000     -0.00017007     -0.00008286
     0.00030097      0.00005127     -0.00001052
     0.00011826      0.00003091      0.00000155
     0.00020760     -0.00003259     -0.00001582
     0.00007724      0.00000087      0.00000676
    -0.04091866      0.02251592      0.00863942
    -0.07784673     -0.02345253      0.00715746
    -0.00009537     -0.00000705     -0.00001976
    -0.00112162     -0.00029235     -0.00065026
    -0.00111223     -0.00035598     -0.00074091
    -0.00001432     -0.00020729      0.00009397
     0.00005985      0.00000115     -0.00003493
     0.00314444     -0.00182857      0.00122490
     0.00125314     -0.00098171      0.00269983
     0.24358645     -0.19889576      0.14244138
     0.43598027      0.31890527      0.26165731
     0.00396504      0.00678418      0.00552215
     0.00958242     -0.00320519      0.00246376
     0.00866527      0.00618754      0.00003617
     0.00446503     -0.00123120      0.00859344
    -0.00557611      0.00697122      0.00649281
     0.24571049     -0.07415488     -0.25096233
     0.49894448     -0.03692190     -0.34938165
    -0.01514327     -0.00525193      0.00352949
     0.00034553     -0.00734468      0.00515298
     0.01748428      0.01318046      0.00818842
    -0.00260025     -0.00065989     -0.04650038
    -0.01853103      0.07626528     -0.02368616
    -0.00078417     -0.00012918     -0.00008870
     0.00358401      0.00410434      0.00216564
    -0.00020414     -0.00046325      0.00017996
     0.00605954     -0.00200222     -0.00131907
vibration 95
     0.00009635     -0.00003393     -0.00006617
    -0.00060445      0.00040279     -0.00108066
     0.00010127     -0.00011081      0.00003197
    -0.00017850      0.00001399      0.00002132
     0.00015767      0.00010416     -0.00005065
     0.00007276      0.00005907     -0.00000933
    -0.00024416      0.00021980      0.00008618
    -0.00010371      0.00008220      0.00003242
     0.07037978     -0.03962747     -0.01511795
    -0.04505414     -0.01393685      0.00423786
    -0.00002178     -0.00000865     -0.00000528
    -0.00026995     -0.00011734     -0.00018669
    -0.00062154     -0.00018524     -0.00045671
    -0.00003014     -0.00010716     -0.00000535
     0.00001661      0.00001185      0.00000689
     0.00076159     -0.00070810      0.00057134
     0.00621372     -0.00456897      0.01268635
    -0.42369251      0.34688689     -0.24950584
     0.25452554      0.18715315      0.15351762
     0.00122989      0.00210804      0.00174107
     0.00204795     -0.00067242      0.00047707
     0.00465042      0.00335756      0.00003531
     0.00282768     -0.00080093      0.00536067
     0.01430930     -0.00736339     -0.00220772
    -0.42241407      0.12813999      0.43029182
     0.28731455     -0.02080684     -0.20077884
    -0.00984091     -0.00149145     -0.00263533
    -0.00013003     -0.00323926      0.00160257
     0.01040081      0.00817684      0.00459744
    -0.00087233     -0.00041895     -0.01396704
    -0.00771477      0.03143919     -0.00989965
     0.00001588     -0.00000890     -0.00003062
     0.00024407      0.00030480      0.00017685
     0.00003461     -0.00025970      0.00006961
    -0.00041039      0.00014865      0.00006715
vibration 96
    -0.00736196      0.00457913     -0.00238840
    -0.03332189      0.02553052     -0.06885021
    -0.00027750     -0.00086642     -0.00238598
    -0.00037977     -0.00019217      0.00010785
     0.00008891     -0.00020332      0.00032611
     0.00004582      0.00020865      0.00086610
     0.00008771      0.00005271      0.00005716
     0.00003117      0.00001800      0.00004097
    -0.00087056      0.00061648      0.00035972
     0.00063531     -0.00022141      0.00032967
    -0.00059730      0.00034510      0.00036119
    -0.00963346     -0.00240250     -0.00568405
    -0.01468194     -0.00341132     -0.01313605
    -0.00005733      0.00033015     -0.00125130
     0.00032663     -0.00006112      0.00065730
     0.08924153     -0.05755949      0.03603629
     0.39582528     -0.29725999      0.81283586
     0.00578306     -0.00493591      0.00355141
    -0.00153834     -0.00053746     -0.00091984
     0.03303183      0.05680358      0.04793643
     0.08264802     -0.02749987      0.02151097
     0.09441877      0.06507621      0.00052515
     0.08407871     -0.02310496      0.15853209
    -0.00088579     -0.00056323     -0.00151060
     0.00575599     -0.00177155     -0.00580810
    -0.00461526      0.00066881      0.00306580
    -0.00103400      0.00206208     -0.00578070
    -0.00248077      0.00456301     -0.00943830
     0.00963885      0.00966896      0.00267034
     0.00342808     -0.00051727      0.09184145
     0.01609214     -0.06450487      0.01918917
    -0.00130861     -0.00045246     -0.00015787
     0.00681143      0.00770110      0.00421017
    -0.00038414      0.00090354     -0.00031200
     0.00996706     -0.00323435     -0.00240157
vibration 97
    -0.00000091      0.00001879      0.00008082
    -0.00004842      0.00002529     -0.00009183
    -0.00002656      0.00000523     -0.00012837
     0.00033381      0.00077328     -0.00093249
    -0.00000602     -0.00000212      0.00002795
     0.00001676      0.00002796      0.00005153
     0.00005628      0.00009681      0.00035379
    -0.00007595     -0.00026764      0.00047108
    -0.03080976     -0.02237875     -0.08637584
     0.00086105     -0.00033911      0.00474821
     0.00002770     -0.00001471     -0.00002119
    -0.00002345     -0.00000270     -0.00002166
    -0.00000546      0.00000991     -0.00003238
    -0.00000049      0.00000608     -0.00000327
    -0.00000964      0.00000129      0.00001187
     0.00024931     -0.00049107      0.00026021
     0.00046230     -0.00042859      0.00112720
     0.21510959     -0.18112857      0.10435493
    -0.01335875     -0.00960196     -0.00690792
     0.00011917      0.00021535      0.00014536
     0.00016492     -0.00004059      0.00004090
    -0.00012524     -0.00007273      0.00000535
     0.00020160     -0.00004537      0.00039209
     0.36419938      0.37805724      0.73209281
    -0.21639829      0.06324896      0.18883635
     0.01084176     -0.00060019     -0.00619604
    -0.00767703      0.01356369     -0.04329716
     0.00000186     -0.00000572     -0.00001989
    -0.00004386     -0.00002531     -0.00001405
     0.00000541     -0.00000935      0.00026922
    -0.00002156      0.00009547     -0.00003659
     0.00047289     -0.00183607      0.00057510
     0.00266698      0.00252036      0.00159071
    -0.00307704      0.01835248     -0.00935681
    -0.00513507      0.00131930      0.00116045
vibration 98
    -0.00001253      0.00001456      0.00001434
    -0.00013545      0.00015748     -0.00024011
     0.00027420     -0.00104412     -0.00063653
     0.00000755      0.00008470     -0.00019116
    -0.00002712      0.00004359      0.00032536
    -0.00007464      0.00034319      0.00037632
     0.00000240     -0.00000071      0.00005430
     0.00000140     -0.00005836      0.00009335
    -0.00140212     -0.00121575     -0.00442569
    -0.01097349      0.00833357     -0.09329213
    -0.00000439     -0.00001831     -0.00000452
    -0.00003841     -0.00002669     -0.00003840
    -0.00005219     -0.00001566     -0.00004232
    -0.00002680      0.00000508     -0.00003822
     0.00000412      0.00000380      0.00002917
     0.00008643     -0.00008609      0.00008300
     0.00184441     -0.00143689      0.00376350
     0.00954388     -0.00823209      0.00433910
     0.22092536      0.15803176      0.10803969
     0.00026328      0.00045841      0.00037503
     0.00021041     -0.00008367      0.00006492
     0.00041376      0.00033739      0.00000899
     0.00031827     -0.00011817      0.00061036
     0.01881798      0.01915381      0.03740506
    -0.01189636      0.00350673      0.01056644
    -0.24825073      0.01406933      0.14706396
     0.15646396     -0.26567012      0.85113045
    -0.00012323     -0.00005497     -0.00020407
     0.00136887      0.00132128      0.00053920
     0.00006555     -0.00017974      0.00201232
    -0.00006971     -0.00060596     -0.00011471
     0.00015407     -0.00082934      0.00024249
     0.00154562      0.00154569      0.00092843
    -0.00143836      0.00812521     -0.00413755
    -0.00187988      0.00041770      0.00043883
vibration 99
     0.00018831      0.00002122      0.00029133
     0.00008410     -0.00003170      0.00019233
     0.00000211      0.00000106      0.00005527
     0.00007010     -0.00003554      0.00039528
    -0.00000368      0.00000045     -0.00002275
    -0.00000048     -0.00000083     -0.00002464
    -0.00004484     -0.00002365     -0.00008793
    -0.00042243     -0.00054307     -0.00044575
     0.00068026      0.00049579      0.00192077
     0.00008145     -0.00005305      0.00079668
     0.00032318     -0.00145255     -0.00007633
    -0.00078456     -0.00019743     -0.00104141
     0.00004965     -0.00004132     -0.00000665
    -0.00002782      0.00002226      0.00014147
    -0.00012648      0.00017482      0.00000012
    -0.00250505      0.00121212     -0.00142092
    -0.00106194      0.00071474     -0.00212194
    -0.00484282      0.00407725     -0.00230563
    -0.00197033     -0.00142325     -0.00096853
     0.00557970      0.00960197      0.00631574
     0.00544594     -0.00191167      0.00162856
     0.00054066      0.00053535      0.00015989
    -0.00067705      0.00041391     -0.00081254
    -0.00805112     -0.00834489     -0.01625790
     0.00496761     -0.00144997     -0.00427674
     0.00231359     -0.00014974     -0.00137514
    -0.00131855      0.00224844     -0.00721322
     0.00000462     -0.00016114      0.00009969
     0.00043691      0.00029874      0.00022044
    -0.00002605     -0.00003674     -0.00105116
    -0.00049474      0.00183716     -0.00050781
     0.01616466     -0.08495839      0.02540169
     0.15287266      0.15235127      0.08837699
    -0.14636428      0.83017557     -0.42870168
    -0.19581890      0.04471050      0.04411675
[INT]
    0.094041
    2.626145
    0.571941
    0.787127
    1.768165
    0.935997
    1.182988
    0.605051
    1.627264
    0.624781
    3.154884
    0.943504
    1.592125
    4.089201
    1.445574
    1.917337
    7.886851
    0.738968
    2.146087
    2.675151
   15.453652
    1.063529
   11.964549
   10.608076
    8.407699
    5.503283
    2.232785
    0.883804
    4.606480
    3.010450
    1.572398
   18.488033
    6.724783
    4.910120
   10.000397
    9.326470
   13.428180
   15.428512
   21.881148
   19.830694
    0.534245
    3.488587
    1.283250
   76.307388
   48.871857
   10.851152
   32.623007
   36.283767
    2.098621
    6.502571
   17.608634
  209.251928
   46.474173
   21.409834
   29.631004
   26.302683
   81.251541
  146.388435
    2.147315
    2.948154
  131.387678
   22.852289
    3.181930
    8.853731
   35.253258
   16.912586
   11.009799
    4.731854
   22.091569
    0.343719
    4.111087
    4.054928
   10.711845
   16.735605
    2.116784
    7.628604
    3.145294
    6.351367
    9.490024
  271.080781
  249.878914
   15.834969
   14.144893
   12.863143
   52.835840
   29.565478
   17.531153
   34.044213
    0.064437
   12.280922
   16.358396
   39.116556
   15.128242
   36.692035
    7.733177
   16.174224
   10.403799
    9.963380
    3.813010

======= END OF MOLDEN-FORMATTED INPUT FILE =======


        *************************************************************
        *                                                           *
        *  Thank you very much for using Q-Chem.  Have a nice day.  *
        *                                                           *
        *************************************************************


