r0191.ten.osc.edu 10.25.155
Q-Chem Developer Version! Running on 10.25.155.*
                  Welcome to Q-Chem
     A Quantum Leap Into The Future Of Chemistry


 Q-Chem 5.0, Q-Chem, Inc., Pleasanton, CA (2017)

 Yihan Shao,  Zhengting Gan,  E. Epifanovsky,  A. T. B. Gilbert,  M. Wormit,  
 J. Kussmann,  A. W. Lange,  A. Behn,  Jia Deng,  Xintian Feng,  D. Ghosh,  
 M. Goldey,  P. R. Horn,  L. D. Jacobson,  I. Kaliman,  T. Kus,  A. Landau,  
 Jie Liu,  E. I. Proynov,  R. M. Richard,  R. P. Steele,  E. J. Sundstrom,  
 H. L. Woodcock III,  P. M. Zimmerman,  D. Zuev,  B. Albrecht,  E. Alguire,  
 S. A. Baeppler,  Z. Benda,  Y. A. Bernard,  E. J. Berquist,  K. B. Bravaya,  
 D. Casanova,  Chun-Min Chang,  Yunqing Chen,  A. Chien,  K. D. Closser,  
 M. P. Coons,  S. Dasgupta,  M. Diedenhofen,  Hainam Do,  R. G. Edgar,  
 Po-Tung Fang,  S. Fatehi,  Qingguo Feng,  Qinghui Ge,  A. Ghysels,  
 J. Gomes,  J. Gonthier,  A. Gunina,  M. W. D. Hanson-Heine,  
 P. H. P. Harbach,  A. W. Hauser,  J. E. Herr,  E. G. Hohenstein,  
 Z. C. Holden,  Kerwin Hui,  T.-C. Jagau,  Hyunjun Ji,  B. Kaduk,  
 K. Khistyaev,  Jaehoon Kim,  P. Klunzinger,  K. Koh,  D. Kosenkov,  
 T. Kowalczyk,  C. M. Krauter,  A. Kunitsa,  Ka Un Lao,  A. Laurent,  
 K. V. Lawler,  Joonho Lee,  D. Lefrancois,  S. Lehtola,  D. S. Levine,  
 Yi-Pei Li,  You-Sheng Lin,  Fenglai Liu,  E. Livshits,  A. Luenser,  
 P. Manohar,  E. Mansoor,  S. F. Manzer,  Shan-Ping Mao,  Yuezhi Mao,  
 N. Mardirossian,  A. V. Marenich,  L. A. Martinez-Martinez,  S. A. Maurer,  
 N. J. Mayhall,  S. C. McKenzie,  J.-M. Mewes,  A. F. Morrison,  K. Nanda,  
 T. S. Nguyen-Beck,  R. Olivares-Amaya,  J. A. Parkhill,  T. M. Perrine,  
 F. Plasser,  S. Prager,  A. Prociuk,  D. R. Rehn,  F. Rob,  M. Schneider,  
 N. Sergueev,  S. M. Sharada,  S. Sharma,  D. W. Small,  T. Stauch,  
 T. Stein,  Yu-Chuan Su,  A. J. W. Thom,  T. Tsuchimochi,  L. Vogt,  
 O. Vydrov,  M. A. Watson,  J. Wenzel,  M. de Wergifosse,  T. A. Wesolowski,  
 A. White,  J. Witte,  A. Yamada,  Jun Yang,  K. Yao,  S. Yeganeh,  
 S. R. Yost,  Zhi-Qiang You,  A. Zech,  Igor Ying Zhang,  Xing Zhang,  
 Yan Zhao,  Ying Zhu,  B. R. Brooks,  G. K. L. Chan,  C. J. Cramer,  
 M. S. Gordon,  W. J. Hehre,  A. Klamt,  M. W. Schmidt,  C. D. Sherrill,  
 D. G. Truhlar,  A. Aspuru-Guzik,  R. Baer,  A. T. Bell,  N. A. Besley,  
 Jeng-Da Chai,  A. Dreuw,  B. D. Dunietz,  T. R. Furlani,  Chao-Ping Hsu,  
 Yousung Jung,  Jing Kong,  D. S. Lambrecht,  WanZhen Liang,  C. Ochsenfeld,  
 V. A. Rassolov,  L. V. Slipchenko,  J. E. Subotnik,  T. Van Voorhis,  
 J. M. Herbert,  A. I. Krylov,  P. M. W. Gill,  M. Head-Gordon

 Contributors to earlier versions of Q-Chem not listed above: 
 R. D. Adamson,  B. Austin,  J. Baker,  G. J. O. Beran,  K. Brandhorst,  
 S. T. Brown,  E. F. C. Byrd,  A. K. Chakraborty,  C.-L. Cheng,  
 Siu Hung Chien,  D. M. Chipman,  D. L. Crittenden,  H. Dachsel,  
 R. A. DiStasio Jr.,  R. J. Doerksen,  A. D. Dutoi,  L. Fusti-Molnar,  
 W. A. Goddard III,  A. Golubeva-Zadorozhnaya,  S. R. Gwaltney,  G. Hawkins,  
 A. Heyden,  S. Hirata,  G. Kedziora,  F. J. Keil,  C. Kelley,  Jihan Kim,  
 R. A. King,  R. Z. Khaliullin,  P. P. Korambath,  W. Kurlancheek,  
 A. M. Lee,  M. S. Lee,  S. V. Levchenko,  Ching Yeh Lin,  D. Liotard,  
 R. C. Lochan,  I. Lotan,  P. E. Maslen,  N. Nair,  D. P. O'Neill,  
 D. Neuhauser,  E. Neuscamman,  C. M. Oana,  R. Olson,  B. Peters,  
 R. Peverati,  P. A. Pieniazek,  Y. M. Rhee,  J. Ritchie,  M. A. Rohrdanz,  
 E. Rosta,  N. J. Russ,  H. F. Schaefer III,  N. E. Schultz,  N. Shenvi,  
 A. C. Simmonett,  A. Sodt,  D. Stuck,  K. S. Thanthiriwatte,  V. Vanovschi,  
 Tao Wang,  A. Warshel,  C. F. Williams,  Q. Wu,  X. Xu,  W. Zhang

 Please cite Q-Chem as follows:
 Y. Shao et al., Mol. Phys. 113, 184-215 (2015)
 DOI: 10.1080/00268976.2014.952696

 Q-Chem 5.0.1 for Intel X86 EM64T Linux

 Parts of Q-Chem use Armadillo 5.200.1 (Boston Tea Smuggler).
 http://arma.sourceforge.net/

 Q-Chem begins on Tue Oct 17 15:00:00 2017  

Host: r0191.ten.osc.edu
0

     Scratch files written to /tmp/pbstmp.1311790/4//
Processing $rem in /users/PAS0291/osu6415/.qchemrc.
molden_format             true

Checking the input file for inconsistencies... 	...done.

--------------------------------------------------------------
User input:
--------------------------------------------------------------
$molecule
0 1
  C      0.57593216      0.81545569      0.77447623
  C      0.07816963     -0.66215426      0.69377923
  C     -0.48616498      1.86412050      0.48440275
  C     -1.21275606     -0.92299583     -0.06472391
  O      0.04810592      3.08532267      0.29063344
  O     -1.67631778      1.67152069      0.53582985
  O     -1.20626111     -0.40341088     -1.30520963
  O     -2.11064606     -1.60147881      0.37312539
  C     -2.41820023     -0.56823540     -2.05922018
  C     -0.89200542      4.16182660      0.10687147
  C      1.92555050      0.74999632     -0.05124436
  C      2.97692198      0.13132997      0.90773254
  C      2.48907292     -1.33814318      1.00157350
  C      1.30331931     -1.34615783     -0.00402040
  O      1.69144593     -0.34297518     -0.95457409
  H      0.83559258      1.03646099      1.81558184
  H     -0.09016886     -1.08083634      1.68468388
  H     -3.24475150     -0.07205214     -1.54802629
  H     -1.52989496      4.26521809      0.98575622
  H      3.96388849      0.19041647      0.44530950
  H      3.02480888      0.64310821      1.87126134
  H      3.25954355     -2.03791439      0.67283734
  H      2.17848093     -1.63265323      2.00614572
  H     -2.22552176     -0.10136917     -3.02291500
  H     -2.65363643     -1.62632735     -2.18595077
  H     -1.51561047      3.97527198     -0.76850252
  H     -0.28539207      5.05311117     -0.03688356
  C      1.04393540     -2.67221340     -0.68468464
  H      1.96483256     -3.03786931     -1.14372613
  H      0.69914677     -3.41205960      0.04206351
  H      0.28718391     -2.57252984     -1.46362037
  C      2.40290067      1.95815111     -0.82529820
  H      3.32324090      1.69401860     -1.35156623
  H      1.66384950      2.28042621     -1.55848948
  H      2.60622521      2.79424084     -0.15508796
$end

$rem
sym_ignore      true
jobtype         ts
method          b3lyp
basis           6-311++G(d,p)
dft_d           d3_op
mem_total       62000
MEM_STATIC      4000
ao2mo_disk      350000
max_scf_cycles  200
geom_opt_max_cycles 1000
geom_opt_tol_displacement 1
GEOM_OPT_TOL_GRADIENT       1
GEOM_OPT_TOL_ENERGY         1
geom_opt_dmax    50
$end

--------------------------------------------------------------
 Adding empirical dispersion correction 
 ----------------------------------------------------------------
 Doing -D3(op) with
 s6 =   1.00000
 s8 =   0.78311
 a1 =   0.30000
 a2 =   4.25000
 n  =  10.00000
 -D3 energy without 3body term =     -0.0414347885 hartrees
 ----------------------------------------------------------------
             Standard Nuclear Orientation (Angstroms)
    I     Atom           X                Y                Z
 ----------------------------------------------------------------
    1      C       0.5759321600     0.8154556900     0.7744762300
    2      C       0.0781696300    -0.6621542600     0.6937792300
    3      C      -0.4861649800     1.8641205000     0.4844027500
    4      C      -1.2127560600    -0.9229958300    -0.0647239100
    5      O       0.0481059200     3.0853226700     0.2906334400
    6      O      -1.6763177800     1.6715206900     0.5358298500
    7      O      -1.2062611100    -0.4034108800    -1.3052096300
    8      O      -2.1106460600    -1.6014788100     0.3731253900
    9      C      -2.4182002300    -0.5682354000    -2.0592201800
   10      C      -0.8920054200     4.1618266000     0.1068714700
   11      C       1.9255505000     0.7499963200    -0.0512443600
   12      C       2.9769219800     0.1313299700     0.9077325400
   13      C       2.4890729200    -1.3381431800     1.0015735000
   14      C       1.3033193100    -1.3461578300    -0.0040204000
   15      O       1.6914459300    -0.3429751800    -0.9545740900
   16      H       0.8355925800     1.0364609900     1.8155818400
   17      H      -0.0901688600    -1.0808363400     1.6846838800
   18      H      -3.2447515000    -0.0720521400    -1.5480262900
   19      H      -1.5298949600     4.2652180900     0.9857562200
   20      H       3.9638884900     0.1904164700     0.4453095000
   21      H       3.0248088800     0.6431082100     1.8712613400
   22      H       3.2595435500    -2.0379143900     0.6728373400
   23      H       2.1784809300    -1.6326532300     2.0061457200
   24      H      -2.2255217600    -0.1013691700    -3.0229150000
   25      H      -2.6536364300    -1.6263273500    -2.1859507700
   26      H      -1.5156104700     3.9752719800    -0.7685025200
   27      H      -0.2853920700     5.0531111700    -0.0368835600
   28      C       1.0439354000    -2.6722134000    -0.6846846400
   29      H       1.9648325600    -3.0378693100    -1.1437261300
   30      H       0.6991467700    -3.4120596000     0.0420635100
   31      H       0.2871839100    -2.5725298400    -1.4636203700
   32      C       2.4029006700     1.9581511100    -0.8252982000
   33      H       3.3232409000     1.6940186000    -1.3515662300
   34      H       1.6638495000     2.2804262100    -1.5584894800
   35      H       2.6062252100     2.7942408400    -0.1550879600
 ----------------------------------------------------------------
 Nuclear Repulsion Energy =  1400.3423716468 hartrees
 There are       65 alpha and       65 beta electrons
 Requested basis set is 6-311++G(d,p)
 There are 192 shells and 500 basis functions

 Total QAlloc Memory Limit  62000 MB
 Mega-Array Size      3911 MB
 MEM_STATIC part      4000 MB
 A cutoff of  1.0D-11 yielded  15075 shell pairs
 There are    103971 function pairs (    110813 Cartesian)
 
 -------------------------------------------------------
 OpenMP Integral Computing Module                       
 Release: version 1.0, May 2013, Q-Chem Inc. Pittsburgh 
 -------------------------------------------------------
 Integral Job Info:
 Integral job number is                      11
 Integral operator is                         1
 short-range coefficients                     0
 long-range coefficients              100000000
 Omega coefficients                           0
 if combine SR and LR in K                    0
 Integral screening is                        0
 Integral computing path is                   2
 max size of driver memory is            800000
 size of driver memory is                593474
 size of scratch memory is              2361544
 max col of scratch BK array               1296
 max len of scratch array in speh3          155
 max len of scratch index in speh4           18
 max int batch size is                      520
 min int batch size is                       52
 fixed nKL is                                52
 max L of basis functions is                  2
 order of int derivative is                   0
 number of shells is                        192
 number of basis is                         517
 number of cartesian basis is               517
 number of contracted shell pairs         15075
 number of primitive shell pairs          33043
 maxK2 (contraction) of shell pair           36
 max number of K2 of shell pair               1
 max number of CS2 of shell pair           2862
 max number of PS2 of shell pair           4818
 mem total for path MDJ                  181576
 -------------------------------------------------------
 Smallest overlap matrix eigenvalue = 4.80E-07

 Q-Chem warning in module /fs/scratch/osu6415/qchem-kaunlao-vdw/stvman/mkSTV.C, line 281:

 Overlap eigenvalue is smaller than square root of threshold

 Linear dependence detected in AO basis
 Number of orthogonalized atomic orbitals = 499
 Maximum deviation from orthogonality = 1.525E-10

 Scale SEOQF with 1.000000e-01/1.000000e-01/1.000000e-01

 Standard Electronic Orientation quadrupole field applied
 Nucleus-field energy     =     0.0000000352 hartrees
 Guess from superposition of atomic densities
 Warning:  Energy on first SCF cycle will be non-variational
 A restricted hybrid HF-DFT SCF calculation will be
 performed using Pulay DIIS extrapolation
 Exchange:     0.2000 Hartree-Fock + 0.0800 Slater + 0.7200 B88
 Correlation:  0.1900 VWN1RPA + 0.8100 LYP
 Using SG-1 standard quadrature grid
 Dispersion:   Grimme D3
 SCF converges when DIIS error is below 1.0E-08
 using 20 threads for integral computing
 -------------------------------------------------------
 OpenMP Integral computing Module                
 Release: version 1.0, May 2013, Q-Chem Inc. Pittsburgh 
 -------------------------------------------------------
 -------------------------------------------------------
 OpenMP BLAS3 based DFT computing Module                
 Release: version 1.0, May 2013, Q-Chem Inc. Pittsburgh 
 -------------------------------------------------------
 ---------------------------------------
  Cycle       Energy         DIIS Error
 ---------------------------------------
    1    -847.9518292692      2.82E-02
    2    -844.1623603373      3.72E-03
    3    -843.6907557324      5.91E-03
    4    -844.4744514401      1.43E-03
    5    -844.5229381187      3.39E-04
    6    -844.5249555483      1.63E-04
    7    -844.5255568380      2.88E-05
    8    -844.5255734966      1.10E-05
    9    -844.5255763815      2.35E-06
   10    -844.5255764923      9.23E-07
   11    -844.5255765110      2.96E-07
   12    -844.5255765131      1.15E-07
   13    -844.5255765134      4.59E-08
   14    -844.5255765149      1.33E-08
   15    -844.5255765227      3.26E-09 Convergence criterion met
 ---------------------------------------
 SCF time:  CPU 1187.79 s  wall 67.13 s
 SCF   energy in the final basis set = -844.52557652
 Total energy in the final basis set = -844.52557652
 
 --------------------------------------------------------------
 
                    Orbital Energies (a.u.)
 --------------------------------------------------------------
 
 Alpha MOs
 -- Occupied --
-19.179 -19.160 -19.126 -19.120 -19.103 -10.312 -10.295 -10.243
-10.240 -10.234 -10.218 -10.208 -10.197 -10.178 -10.178 -10.166
-10.164  -1.122  -1.103  -1.061  -1.033  -1.015  -0.829  -0.805
 -0.782  -0.748  -0.726  -0.721  -0.674  -0.643  -0.600  -0.581
 -0.570  -0.559  -0.517  -0.511  -0.500  -0.494  -0.487  -0.480
 -0.473  -0.465  -0.458  -0.442  -0.428  -0.424  -0.418  -0.411
 -0.405  -0.401  -0.387  -0.373  -0.367  -0.365  -0.360  -0.354
 -0.352  -0.347  -0.331  -0.328  -0.321  -0.300  -0.292  -0.271
 -0.269
 -- Virtual --
 -0.021  -0.009  -0.004   0.002   0.007   0.009   0.013   0.019
  0.025   0.027   0.035   0.038   0.042   0.046   0.049   0.052
  0.059   0.063   0.067   0.069   0.074   0.080   0.088   0.090
  0.094   0.097   0.101   0.102   0.106   0.111   0.114   0.118
  0.119   0.121   0.125   0.128   0.131   0.132   0.135   0.137
  0.143   0.146   0.147   0.147   0.150   0.152   0.155   0.158
  0.163   0.168   0.168   0.169   0.173   0.178   0.179   0.181
  0.182   0.185   0.191   0.195   0.199   0.202   0.204   0.207
  0.210   0.213   0.213   0.216   0.219   0.225   0.230   0.233
  0.238   0.247   0.248   0.253   0.260   0.267   0.271   0.275
  0.282   0.284   0.292   0.294   0.296   0.301   0.309   0.314
  0.317   0.321   0.333   0.334   0.339   0.341   0.346   0.350
  0.353   0.358   0.358   0.360   0.364   0.372   0.374   0.375
  0.379   0.383   0.388   0.398   0.401   0.403   0.407   0.414
  0.421   0.429   0.433   0.440   0.454   0.460   0.466   0.469
  0.478   0.480   0.505   0.514   0.519   0.528   0.540   0.544
  0.549   0.551   0.567   0.572   0.587   0.596   0.600   0.607
  0.608   0.621   0.627   0.632   0.641   0.645   0.651   0.660
  0.665   0.669   0.672   0.677   0.682   0.686   0.692   0.697
  0.704   0.706   0.719   0.722   0.724   0.734   0.740   0.745
  0.751   0.762   0.766   0.769   0.782   0.789   0.800   0.808
  0.816   0.820   0.827   0.841   0.842   0.863   0.891   0.919
  0.927   0.946   0.970   0.989   0.998   1.011   1.034   1.054
  1.064   1.078   1.085   1.094   1.100   1.117   1.145   1.160
  1.183   1.199   1.204   1.216   1.217   1.221   1.231   1.249
  1.256   1.258   1.270   1.276   1.284   1.311   1.322   1.329
  1.344   1.365   1.377   1.385   1.400   1.408   1.422   1.434
  1.444   1.455   1.463   1.466   1.479   1.496   1.500   1.513
  1.515   1.536   1.550   1.552   1.560   1.568   1.574   1.576
  1.579   1.591   1.598   1.607   1.618   1.621   1.632   1.653
  1.664   1.674   1.676   1.686   1.699   1.705   1.709   1.713
  1.718   1.724   1.737   1.743   1.753   1.755   1.767   1.780
  1.790   1.800   1.806   1.818   1.828   1.841   1.848   1.853
  1.863   1.877   1.901   1.921   1.929   1.944   1.969   1.988
  1.995   2.011   2.015   2.023   2.029   2.049   2.052   2.083
  2.085   2.105   2.118   2.125   2.142   2.155   2.161   2.186
  2.193   2.200   2.208   2.218   2.242   2.254   2.266   2.298
  2.314   2.366   2.395   2.403   2.411   2.441   2.449   2.477
  2.479   2.491   2.498   2.503   2.513   2.522   2.524   2.529
  2.542   2.550   2.556   2.573   2.588   2.593   2.603   2.614
  2.617   2.638   2.657   2.669   2.678   2.684   2.704   2.718
  2.728   2.753   2.766   2.787   2.814   2.820   2.832   2.865
  2.876   2.883   2.892   2.900   2.910   2.937   2.949   2.964
  2.981   3.015   3.031   3.043   3.052   3.060   3.075   3.077
  3.087   3.099   3.102   3.120   3.147   3.167   3.180   3.190
  3.216   3.230   3.251   3.255   3.274   3.314   3.333   3.360
  3.376   3.388   3.402   3.404   3.534   3.600   3.618   3.664
  3.677   3.689   3.749   3.772   3.796   3.821   3.829   3.835
  3.841   3.854   3.860   3.948   3.963   4.049   4.084   4.088
  4.135   4.136   4.148   4.175   4.187   4.259   4.282   4.316
  4.445   4.516   5.053   5.068   5.152   5.166   5.241   5.270
  5.301   5.403   5.448   5.524   5.627   5.654   5.691   5.887
  5.909  23.768  23.832  23.848  23.884  23.901  23.926  23.951
 23.955  23.965  23.990  23.995  24.035  49.903  49.950  50.005
 50.029  50.065
 --------------------------------------------------------------
 
          Ground-State Mulliken Net Atomic Charges

     Atom                 Charge (a.u.)
  ----------------------------------------
      1 C                     0.402490
      2 C                     0.634357
      3 C                    -0.699632
      4 C                    -1.070594
      5 O                    -0.066137
      6 O                    -0.197439
      7 O                    -0.036236
      8 O                    -0.148283
      9 C                    -0.209257
     10 C                    -0.227325
     11 C                    -0.419140
     12 C                    -0.575908
     13 C                    -0.300082
     14 C                    -0.347108
     15 O                     0.062017
     16 H                     0.261797
     17 H                     0.281020
     18 H                     0.193021
     19 H                     0.179952
     20 H                     0.170145
     21 H                     0.139553
     22 H                     0.170888
     23 H                     0.147550
     24 H                     0.154674
     25 H                     0.174060
     26 H                     0.186877
     27 H                     0.151325
     28 C                     0.093674
     29 H                     0.175232
     30 H                     0.164580
     31 H                     0.179569
     32 C                    -0.147638
     33 H                     0.153644
     34 H                     0.179662
     35 H                     0.188695
  ----------------------------------------
  Sum of atomic charges =     0.000000

 -----------------------------------------------------------------
                    Cartesian Multipole Moments
 -----------------------------------------------------------------
    Charge (ESU x 10^10)
                 0.0000
    Dipole Moment (Debye)
         X       2.5450      Y       2.3417      Z      -0.0199
       Tot       3.4585
    Quadrupole Moments (Debye-Ang)
        XX    -105.6954     XY      -5.3160     YY     -91.4518
        XZ       9.8152     YZ       1.0731     ZZ     -99.0474
    Octopole Moments (Debye-Ang^2)
       XXX     -75.9543    XXY     -20.3910    XYY     -30.6459
       YYY     -28.9503    XXZ      -9.7719    XYZ      -5.2692
       YYZ       0.3299    XZZ     -42.9072    YZZ     -26.3681
       ZZZ      19.4480
    Hexadecapole Moments (Debye-Ang^3)
      XXXX   -2008.5004   XXXY      35.2017   XXYY    -726.2490
      XYYY     -35.3978   YYYY   -2007.6547   XXXZ     -97.7016
      XXYZ     -10.4110   XYYZ     -40.0942   YYYZ     -56.2474
      XXZZ    -432.0208   XYZZ      21.9085   YYZZ    -477.9008
      XZZZ    -105.4665   YZZZ     -60.7100   ZZZZ    -617.1368
 -----------------------------------------------------------------
 Calculating analytic gradient of the SCF energy
 Gradient of SCF Energy
            1           2           3           4           5           6
    1   0.0000652   0.0000216  -0.0000293  -0.0000580   0.0000267  -0.0000182
    2  -0.0000125   0.0000090   0.0000898  -0.0000101  -0.0000490  -0.0000813
    3  -0.0001288   0.0000423   0.0000381   0.0000747  -0.0000514  -0.0000293
            7           8           9          10          11          12
    1   0.0000447   0.0000368   0.0000101  -0.0000454  -0.0000741   0.0000081
    2  -0.0000729  -0.0000020   0.0000381   0.0000078   0.0000561  -0.0000087
    3  -0.0000717  -0.0000509   0.0000097   0.0000479   0.0000892   0.0000134
           13          14          15          16          17          18
    1   0.0000014   0.0000264   0.0000003  -0.0000230   0.0000046   0.0000108
    2   0.0000210  -0.0000201   0.0000092   0.0000295  -0.0000212  -0.0000503
    3   0.0000046   0.0000081  -0.0000108   0.0000122  -0.0000115  -0.0000166
           19          20          21          22          23          24
    1  -0.0000358   0.0000002  -0.0000183   0.0000063   0.0000014   0.0000153
    2  -0.0000228   0.0000285   0.0000160   0.0000192   0.0000097  -0.0000142
    3  -0.0000256   0.0000268   0.0000120   0.0000157   0.0000181  -0.0000162
           25          26          27          28          29          30
    1   0.0000321  -0.0000112  -0.0000277   0.0000206   0.0000291   0.0000071
    2  -0.0000352  -0.0000109  -0.0000092   0.0000071  -0.0000003   0.0000059
    3  -0.0000378  -0.0000287  -0.0000080   0.0000225   0.0000202  -0.0000034
           31          32          33          34          35
    1   0.0000302  -0.0000273  -0.0000095  -0.0000091  -0.0000118
    2   0.0000132   0.0000019   0.0000160   0.0000204   0.0000225
    3  -0.0000184  -0.0000031   0.0000221   0.0000106   0.0000240
 Max gradient component =       1.288E-04
 RMS gradient           =       3.408E-05
 Gradient time:  CPU 396.53 s  wall 28.86 s
 Geometry Optimization Parameters
   NAtoms,    NIC,     NZ,  NCons,   NDum,   NFix, NCnnct, MaxDiis
       35     275       0       0       0       0       0       0


** GEOMETRY OPTIMIZATION IN DELOCALIZED INTERNAL COORDINATES **
   Searching for a Transition State

   Optimization Cycle:   1

                       Coordinates (Angstroms)
     ATOM                X               Y               Z
      1  C         0.5759321600    0.8154556900    0.7744762300
      2  C         0.0781696300   -0.6621542600    0.6937792300
      3  C        -0.4861649800    1.8641205000    0.4844027500
      4  C        -1.2127560600   -0.9229958300   -0.0647239100
      5  O         0.0481059200    3.0853226700    0.2906334400
      6  O        -1.6763177800    1.6715206900    0.5358298500
      7  O        -1.2062611100   -0.4034108800   -1.3052096300
      8  O        -2.1106460600   -1.6014788100    0.3731253900
      9  C        -2.4182002300   -0.5682354000   -2.0592201800
     10  C        -0.8920054200    4.1618266000    0.1068714700
     11  C         1.9255505000    0.7499963200   -0.0512443600
     12  C         2.9769219800    0.1313299700    0.9077325400
     13  C         2.4890729200   -1.3381431800    1.0015735000
     14  C         1.3033193100   -1.3461578300   -0.0040204000
     15  O         1.6914459300   -0.3429751800   -0.9545740900
     16  H         0.8355925800    1.0364609900    1.8155818400
     17  H        -0.0901688600   -1.0808363400    1.6846838800
     18  H        -3.2447515000   -0.0720521400   -1.5480262900
     19  H        -1.5298949600    4.2652180900    0.9857562200
     20  H         3.9638884900    0.1904164700    0.4453095000
     21  H         3.0248088800    0.6431082100    1.8712613400
     22  H         3.2595435500   -2.0379143900    0.6728373400
     23  H         2.1784809300   -1.6326532300    2.0061457200
     24  H        -2.2255217600   -0.1013691700   -3.0229150000
     25  H        -2.6536364300   -1.6263273500   -2.1859507700
     26  H        -1.5156104700    3.9752719800   -0.7685025200
     27  H        -0.2853920700    5.0531111700   -0.0368835600
     28  C         1.0439354000   -2.6722134000   -0.6846846400
     29  H         1.9648325600   -3.0378693100   -1.1437261300
     30  H         0.6991467700   -3.4120596000    0.0420635100
     31  H         0.2871839100   -2.5725298400   -1.4636203700
     32  C         2.4029006700    1.9581511100   -0.8252982000
     33  H         3.3232409000    1.6940186000   -1.3515662300
     34  H         1.6638495000    2.2804262100   -1.5584894800
     35  H         2.6062252100    2.7942408400   -0.1550879600
   Point Group: c1    Number of degrees of freedom:    99


   Energy is   -844.525576523


 Attempting to Generate Delocalized Internal Coordinates

 99 Hessian modes will be used to form the next step
  Hessian Eigenvalues:
     0.002880    0.006468    0.006557    0.006878    0.007466    0.007569
     0.010224    0.010773    0.010775    0.010910    0.022578    0.022660
     0.022931    0.024397    0.034123    0.035788    0.037338    0.038148
     0.043994    0.044741    0.049904    0.050931    0.054553    0.055924
     0.056542    0.057680    0.058185    0.059455    0.060314    0.063356
     0.065441    0.065912    0.080145    0.086016    0.094573    0.101257
     0.101486    0.103767    0.105933    0.106187    0.111107    0.123154
     0.126431    0.153990    0.160000    0.160000    0.160000    0.160000
     0.160000    0.160000    0.160000    0.160000    0.160000    0.160000
     0.160000    0.160000    0.178630    0.228485    0.240348    0.249093
     0.249508    0.250000    0.250000    0.250000    0.250000    0.251417
     0.252766    0.258144    0.273876    0.303194    0.303839    0.310562
     0.311333    0.336695    0.341823    0.344805    0.345152    0.345755
     0.345820    0.345875    0.346369    0.346399    0.346569    0.346750
     0.347105    0.347140    0.347263    0.347349    0.347464    0.348377
     0.349496    0.350420    0.350829    0.394506    0.400227    0.556712
     0.561160    1.011031    1.015117
**WARNING** Hessian does not have the Desired Local Structure

 Transition State Search - Taking P-RFO Step
 Searching for Lamda that Maximizes Along the Lowest mode
 Value Taken    Lamda =   0.00288020
 Searching for Lamda that Minimizes Along All other modes
 Value Taken    Lamda =   0.00000000
 Calculated Step too Large.  Step scaled by  0.000346
 Step Taken.  Stepsize is  0.050000

                             Maximum     Tolerance    Cnvgd?
         Gradient           0.000054      0.000001      NO
         Displacement       0.020228      0.000001      NO
         Energy change     *********      0.000000      NO


 New Cartesian Coordinates Obtained by Inverse Iteration

 Displacement from previous Coordinates is:  0.135649
 Adding empirical dispersion correction 
 ----------------------------------------------------------------
 Doing -D3(op) with
 s6 =   1.00000
 s8 =   0.78311
 a1 =   0.30000
 a2 =   4.25000
 n  =  10.00000
 -D3 energy without 3body term =     -0.0414391316 hartrees
 ----------------------------------------------------------------
             Standard Nuclear Orientation (Angstroms)
    I     Atom           X                Y                Z
 ----------------------------------------------------------------
    1      C       0.5764255545     0.8171765285     0.7743362695
    2      C       0.0810227962    -0.6613145749     0.6946258643
    3      C      -0.4860184650     1.8636566268     0.4777169896
    4      C      -1.2124891816    -0.9240046163    -0.0588163405
    5      O       0.0472669454     3.0851830214     0.2832777132
    6      O      -1.6760881983     1.6694654964     0.5249075522
    7      O      -1.2117035378    -0.4041734756    -1.2992156591
    8      O      -2.1075918489    -1.6039567424     0.3824477021
    9      C      -2.4263601047    -0.5707254507    -2.0484588324
   10      C      -0.8936498921     4.1599176984     0.0933846445
   11      C       1.9289813330     0.7516978497    -0.0461799112
   12      C       2.9758068968     0.1283947278     0.9150758336
   13      C       2.4910503444    -1.3428389639     0.9966379623
   14      C       1.3045158525    -1.3440287166    -0.0077625587
   15      O       1.6949440407    -0.3376019825    -0.9539210703
   16      H       0.8317056064     1.0408491142     1.8159554039
   17      H      -0.0829517435    -1.0804804481     1.6860575965
   18      H      -3.2516473526    -0.0759158991    -1.5339022297
   19      H      -1.5351348034     4.2643818619     0.9695214076
   20      H       3.9654925222     0.1927851805     0.4592190498
   21      H       3.0166880165     0.6338715960     1.8822468347
   22      H       3.2625565654    -2.0380601415     0.6607542458
   23      H       2.1821571937    -1.6469498376     1.9988707143
   24      H      -2.2382158905    -0.1033791838    -3.0128166480
   25      H      -2.6606628861    -1.6291554836    -2.1744646946
   26      H      -1.5135437152     3.9704877263    -0.7840054815
   27      H      -0.2877485378     5.0517446087    -0.0500090824
   28      C       1.0422051055    -2.6664680234    -0.6943152263
   29      H       1.9621184894    -3.0317451187    -1.1556252354
   30      H       0.6964966118    -3.4089838620     0.0292663798
   31      H       0.2851405123    -2.5618040269    -1.4722928202
   32      C       2.4114061203     1.9613212994    -0.8147747161
   33      H       3.3330966058     1.6970381684    -1.3385983945
   34      H       1.6755847705     2.2873050932    -1.5495732105
   35      H       2.6139642840     2.7949299198    -0.1412500222
 ----------------------------------------------------------------
 Nuclear Repulsion Energy =  1400.4071536198 hartrees
 There are       65 alpha and       65 beta electrons
 Applying Cartesian multipole field
    Component          Value
    ---------          -----
     (2,0,0)        1.00000E-11
     (0,2,0)        2.00000E-11
     (0,0,2)       -3.00000E-11
 Nucleus-field energy     =     0.0000000353 hartrees
 Requested basis set is 6-311++G(d,p)
 There are 192 shells and 500 basis functions
 A cutoff of  1.0D-11 yielded  15075 shell pairs
 There are    103966 function pairs (    110807 Cartesian)
 Smallest overlap matrix eigenvalue = 4.76E-07

 Q-Chem warning in module /fs/scratch/osu6415/qchem-kaunlao-vdw/stvman/mkSTV.C, line 281:

 Overlap eigenvalue is smaller than square root of threshold

 Linear dependence detected in AO basis
 Number of orthogonalized atomic orbitals = 499
 Maximum deviation from orthogonality = 1.221E-10
 Guess MOs from SCF MO coefficient file
 Reading MOs from coefficient file
 Reading MOs from coefficient file
 A restricted hybrid HF-DFT SCF calculation will be
 performed using Pulay DIIS extrapolation
 Exchange:     0.2000 Hartree-Fock + 0.0800 Slater + 0.7200 B88
 Correlation:  0.1900 VWN1RPA + 0.8100 LYP
 Using SG-1 standard quadrature grid
 Dispersion:   Grimme D3
 SCF converges when DIIS error is below 1.0E-08
 Geometry optimization detected.  Setting ReadMinima to 0
 Setting SaveMinima to 0
 using 20 threads for integral computing
 -------------------------------------------------------
 OpenMP Integral computing Module                
 Release: version 1.0, May 2013, Q-Chem Inc. Pittsburgh 
 -------------------------------------------------------
 -------------------------------------------------------
 OpenMP BLAS3 based DFT computing Module                
 Release: version 1.0, May 2013, Q-Chem Inc. Pittsburgh 
 -------------------------------------------------------
 ---------------------------------------
  Cycle       Energy         DIIS Error
 ---------------------------------------
    1    -844.5226345312      1.83E-04
    2    -844.5255327469      3.43E-05
    3    -844.5254940357      5.35E-05
    4    -844.5255645419      1.05E-05
    5    -844.5255666683      3.63E-06
    6    -844.5255669697      7.22E-07
    7    -844.5255669782      3.85E-07
    8    -844.5255669819      8.59E-08
    9    -844.5255669821      2.43E-08
   10    -844.5255669842      7.02E-09 Convergence criterion met
 ---------------------------------------
 SCF time:  CPU 813.56 s  wall 43.49 s
 SCF   energy in the final basis set = -844.52556698
 Total energy in the final basis set = -844.52556698
 
 --------------------------------------------------------------
 
                    Orbital Energies (a.u.)
 --------------------------------------------------------------
 
 Alpha MOs
 -- Occupied --
-19.179 -19.160 -19.126 -19.120 -19.103 -10.312 -10.295 -10.243
-10.240 -10.234 -10.218 -10.208 -10.197 -10.178 -10.178 -10.166
-10.164  -1.122  -1.103  -1.061  -1.033  -1.015  -0.829  -0.805
 -0.782  -0.748  -0.726  -0.721  -0.674  -0.643  -0.600  -0.581
 -0.570  -0.559  -0.517  -0.511  -0.500  -0.494  -0.487  -0.480
 -0.473  -0.465  -0.458  -0.442  -0.428  -0.424  -0.418  -0.411
 -0.405  -0.401  -0.387  -0.373  -0.367  -0.365  -0.360  -0.354
 -0.352  -0.347  -0.331  -0.328  -0.321  -0.300  -0.292  -0.271
 -0.269
 -- Virtual --
 -0.021  -0.009  -0.004   0.002   0.007   0.009   0.013   0.019
  0.025   0.027   0.035   0.038   0.042   0.046   0.049   0.052
  0.059   0.064   0.067   0.069   0.074   0.080   0.088   0.090
  0.094   0.097   0.101   0.102   0.106   0.111   0.114   0.118
  0.119   0.121   0.125   0.128   0.131   0.132   0.135   0.137
  0.143   0.146   0.147   0.148   0.150   0.152   0.155   0.158
  0.163   0.168   0.168   0.169   0.173   0.178   0.179   0.181
  0.183   0.185   0.191   0.195   0.199   0.203   0.204   0.207
  0.210   0.213   0.213   0.216   0.220   0.225   0.230   0.233
  0.238   0.247   0.248   0.253   0.260   0.267   0.271   0.276
  0.282   0.284   0.291   0.294   0.295   0.301   0.309   0.314
  0.317   0.321   0.333   0.334   0.339   0.342   0.345   0.350
  0.353   0.357   0.359   0.360   0.364   0.372   0.374   0.375
  0.379   0.383   0.387   0.398   0.401   0.403   0.407   0.414
  0.421   0.429   0.433   0.439   0.454   0.460   0.466   0.469
  0.478   0.480   0.505   0.514   0.519   0.528   0.539   0.544
  0.549   0.551   0.567   0.572   0.587   0.596   0.600   0.607
  0.608   0.621   0.627   0.632   0.641   0.645   0.651   0.659
  0.665   0.669   0.672   0.677   0.682   0.687   0.693   0.696
  0.704   0.706   0.719   0.722   0.724   0.734   0.739   0.745
  0.751   0.762   0.767   0.769   0.782   0.788   0.800   0.808
  0.816   0.820   0.828   0.841   0.843   0.863   0.892   0.918
  0.927   0.947   0.969   0.990   0.998   1.011   1.034   1.054
  1.065   1.078   1.085   1.094   1.100   1.117   1.146   1.160
  1.183   1.199   1.204   1.215   1.217   1.221   1.231   1.249
  1.256   1.258   1.270   1.277   1.285   1.312   1.322   1.329
  1.344   1.366   1.377   1.385   1.399   1.408   1.423   1.434
  1.444   1.455   1.463   1.466   1.480   1.496   1.500   1.513
  1.515   1.536   1.550   1.552   1.560   1.568   1.574   1.576
  1.579   1.592   1.598   1.607   1.618   1.622   1.632   1.652
  1.663   1.674   1.676   1.686   1.699   1.705   1.709   1.713
  1.718   1.724   1.737   1.743   1.753   1.756   1.767   1.780
  1.790   1.800   1.805   1.818   1.828   1.840   1.848   1.855
  1.863   1.878   1.900   1.921   1.929   1.944   1.969   1.988
  1.995   2.011   2.015   2.023   2.029   2.048   2.052   2.082
  2.085   2.105   2.118   2.126   2.142   2.155   2.161   2.185
  2.192   2.200   2.208   2.218   2.242   2.255   2.266   2.298
  2.314   2.367   2.394   2.403   2.411   2.441   2.449   2.477
  2.480   2.491   2.498   2.503   2.513   2.522   2.524   2.529
  2.542   2.550   2.556   2.573   2.588   2.593   2.603   2.614
  2.618   2.638   2.657   2.670   2.678   2.684   2.704   2.718
  2.728   2.753   2.766   2.788   2.814   2.820   2.832   2.865
  2.875   2.883   2.892   2.900   2.910   2.938   2.949   2.965
  2.982   3.015   3.031   3.042   3.053   3.060   3.075   3.078
  3.087   3.099   3.101   3.120   3.148   3.168   3.180   3.190
  3.216   3.229   3.251   3.255   3.273   3.314   3.333   3.360
  3.375   3.388   3.402   3.404   3.533   3.600   3.618   3.664
  3.677   3.690   3.750   3.772   3.796   3.821   3.829   3.835
  3.841   3.854   3.860   3.947   3.963   4.049   4.084   4.088
  4.135   4.136   4.148   4.175   4.186   4.259   4.282   4.316
  4.446   4.516   5.052   5.067   5.151   5.169   5.241   5.270
  5.302   5.403   5.448   5.524   5.627   5.653   5.691   5.888
  5.910  23.767  23.832  23.848  23.884  23.902  23.926  23.951
 23.955  23.965  23.990  23.996  24.035  49.903  49.950  50.004
 50.029  50.066
 --------------------------------------------------------------
 
          Ground-State Mulliken Net Atomic Charges

     Atom                 Charge (a.u.)
  ----------------------------------------
      1 C                     0.396289
      2 C                     0.637859
      3 C                    -0.699423
      4 C                    -1.067210
      5 O                    -0.066663
      6 O                    -0.197583
      7 O                    -0.035837
      8 O                    -0.148636
      9 C                    -0.209512
     10 C                    -0.227461
     11 C                    -0.415730
     12 C                    -0.573865
     13 C                    -0.303149
     14 C                    -0.349610
     15 O                     0.061054
     16 H                     0.261126
     17 H                     0.281135
     18 H                     0.193214
     19 H                     0.180010
     20 H                     0.170516
     21 H                     0.139429
     22 H                     0.170773
     23 H                     0.147216
     24 H                     0.154867
     25 H                     0.174062
     26 H                     0.186839
     27 H                     0.151358
     28 C                     0.098325
     29 H                     0.175401
     30 H                     0.164723
     31 H                     0.179505
     32 C                    -0.151186
     33 H                     0.153693
     34 H                     0.179965
     35 H                     0.188506
  ----------------------------------------
  Sum of atomic charges =    -0.000000

 -----------------------------------------------------------------
                    Cartesian Multipole Moments
 -----------------------------------------------------------------
    Charge (ESU x 10^10)
                -0.0000
    Dipole Moment (Debye)
         X       2.5348      Y       2.3430      Z      -0.0198
       Tot       3.4518
    Quadrupole Moments (Debye-Ang)
        XX    -105.6310     XY      -5.3210     YY     -91.4794
        XZ       9.8215     YZ       1.0931     ZZ     -99.0843
    Octopole Moments (Debye-Ang^2)
       XXX     -76.2732    XXY     -20.4103    XYY     -30.6837
       YYY     -28.9706    XXZ      -9.7462    XYZ      -5.2998
       YYZ       0.0907    XZZ     -42.8676    YZZ     -26.3355
       ZZZ      19.5606
    Hexadecapole Moments (Debye-Ang^3)
      XXXX   -2012.0957   XXXY      34.7064   XXYY    -726.7632
      XYYY     -36.1787   YYYY   -2007.4552   XXXZ     -98.0618
      XXYZ      -9.6082   XYYZ     -40.0729   YYYZ     -55.5739
      XXZZ    -432.4268   XYZZ      21.4167   YYZZ    -477.2245
      XZZZ    -106.1183   YZZZ     -59.2564   ZZZZ    -614.3732
 -----------------------------------------------------------------
 Calculating analytic gradient of the SCF energy
 Gradient of SCF Energy
            1           2           3           4           5           6
    1  -0.0000778   0.0001079   0.0000241  -0.0000207   0.0000454  -0.0000423
    2  -0.0000045  -0.0000106   0.0000438  -0.0000888  -0.0000414  -0.0002675
    3  -0.0003260   0.0001865   0.0000647   0.0001453  -0.0000429  -0.0002024
            7           8           9          10          11          12
    1  -0.0000604   0.0000520  -0.0000122  -0.0000479   0.0001988  -0.0000939
    2   0.0001850   0.0000023   0.0000222   0.0000127   0.0000488   0.0000811
    3   0.0000307  -0.0000752  -0.0000017   0.0000441   0.0000883   0.0000786
           13          14          15          16          17          18
    1   0.0001645  -0.0001627   0.0000798  -0.0000115   0.0000113  -0.0000088
    2  -0.0000520   0.0000760  -0.0000061   0.0000056   0.0000051  -0.0000609
    3  -0.0000896   0.0000077   0.0000153   0.0000241   0.0000126  -0.0000234
           19          20          21          22          23          24
    1  -0.0000372  -0.0000287  -0.0000344   0.0000116  -0.0000210   0.0000190
    2  -0.0000191   0.0000245  -0.0000090   0.0000056   0.0000011  -0.0000156
    3  -0.0000253  -0.0000023   0.0000510   0.0000469   0.0000261  -0.0000178
           25          26          27          28          29          30
    1   0.0000276  -0.0000074  -0.0000284   0.0000133   0.0000244   0.0000072
    2  -0.0000292  -0.0000154  -0.0000092   0.0000452   0.0000044   0.0000130
    3  -0.0000357  -0.0000262  -0.0000088   0.0000539   0.0000108  -0.0000054
           31          32          33          34          35
    1   0.0000124  -0.0000310  -0.0000200  -0.0000460  -0.0000071
    2  -0.0000035   0.0000051   0.0000147   0.0000314   0.0000051
    3  -0.0000411   0.0000305   0.0000034  -0.0000051   0.0000082
 Max gradient component =       3.260E-04
 RMS gradient           =       7.245E-05
 Gradient time:  CPU 395.12 s  wall 27.26 s
 Geometry Optimization Parameters
   NAtoms,    NIC,     NZ,  NCons,   NDum,   NFix, NCnnct, MaxDiis
       35     275       0       0       0       0       0       0

 Cartesian Hessian Update
 Hessian Updated using Powell/Murtagh-Sargent Update
  Mixing factors:     0.000025 Powell
                      0.999975 Murtagh-Sargent


** GEOMETRY OPTIMIZATION IN DELOCALIZED INTERNAL COORDINATES **
   Searching for a Transition State

   Optimization Cycle:   2

                       Coordinates (Angstroms)
     ATOM                X               Y               Z
      1  C         0.5764255545    0.8171765285    0.7743362695
      2  C         0.0810227962   -0.6613145749    0.6946258643
      3  C        -0.4860184650    1.8636566268    0.4777169896
      4  C        -1.2124891816   -0.9240046163   -0.0588163405
      5  O         0.0472669454    3.0851830214    0.2832777132
      6  O        -1.6760881983    1.6694654964    0.5249075522
      7  O        -1.2117035378   -0.4041734756   -1.2992156591
      8  O        -2.1075918489   -1.6039567424    0.3824477021
      9  C        -2.4263601047   -0.5707254507   -2.0484588324
     10  C        -0.8936498921    4.1599176984    0.0933846445
     11  C         1.9289813330    0.7516978497   -0.0461799112
     12  C         2.9758068968    0.1283947278    0.9150758336
     13  C         2.4910503444   -1.3428389639    0.9966379623
     14  C         1.3045158525   -1.3440287166   -0.0077625587
     15  O         1.6949440407   -0.3376019825   -0.9539210703
     16  H         0.8317056064    1.0408491142    1.8159554039
     17  H        -0.0829517435   -1.0804804481    1.6860575965
     18  H        -3.2516473526   -0.0759158991   -1.5339022297
     19  H        -1.5351348034    4.2643818619    0.9695214076
     20  H         3.9654925222    0.1927851805    0.4592190498
     21  H         3.0166880165    0.6338715960    1.8822468347
     22  H         3.2625565654   -2.0380601415    0.6607542458
     23  H         2.1821571937   -1.6469498376    1.9988707143
     24  H        -2.2382158905   -0.1033791838   -3.0128166480
     25  H        -2.6606628861   -1.6291554836   -2.1744646946
     26  H        -1.5135437152    3.9704877263   -0.7840054815
     27  H        -0.2877485378    5.0517446087   -0.0500090824
     28  C         1.0422051055   -2.6664680234   -0.6943152263
     29  H         1.9621184894   -3.0317451187   -1.1556252354
     30  H         0.6964966118   -3.4089838620    0.0292663798
     31  H         0.2851405123   -2.5618040269   -1.4722928202
     32  C         2.4114061203    1.9613212994   -0.8147747161
     33  H         3.3330966058    1.6970381684   -1.3385983945
     34  H         1.6755847705    2.2873050932   -1.5495732105
     35  H         2.6139642840    2.7949299198   -0.1412500222
   Point Group: c1    Number of degrees of freedom:    99


   Energy is   -844.525566984

 Hessian Updated using Powell/Murtagh-Sargent Update
  Mixing factors:     0.992899 Powell
                      0.007101 Murtagh-Sargent

 96 Hessian modes will be used to form the next step
  Hessian Eigenvalues:
    -0.004031    0.006491    0.006819    0.007466    0.007563    0.009103
     0.010224    0.010773    0.010815    0.014821    0.022645    0.022667
     0.022980    0.024534    0.034361    0.035789    0.037342    0.038197
     0.044054    0.044741    0.049995    0.051129    0.054554    0.055967
     0.056543    0.057680    0.058185    0.059455    0.060315    0.063610
     0.065442    0.065937    0.080209    0.086063    0.094575    0.101257
     0.101486    0.103948    0.105933    0.106188    0.111158    0.123457
     0.126636    0.154583    0.160000    0.160000    0.160000    0.160000
     0.160000    0.160000    0.160000    0.160000    0.160015    0.178784
     0.228525    0.240519    0.249243    0.249509    0.250000    0.250000
     0.250000    0.250040    0.251432    0.252805    0.258181    0.273876
     0.303276    0.303839    0.310563    0.311333    0.336706    0.341823
     0.344805    0.345152    0.345757    0.345820    0.345876    0.346369
     0.346399    0.346569    0.346750    0.347105    0.347140    0.347278
     0.347351    0.347467    0.348382    0.349496    0.350420    0.350829
     0.394506    0.400234    0.556713    0.561161    1.011033    1.015122

 Transition State Search - Taking P-RFO Step
 Searching for Lamda that Maximizes Along the Lowest mode
 Value Taken    Lamda =   0.00000547
 Searching for Lamda that Minimizes Along All other modes
 Value Taken    Lamda =  -0.00001930
 Step Taken.  Stepsize is  0.049148

                             Maximum     Tolerance    Cnvgd?
         Gradient           0.000403      0.000001      NO
         Displacement       0.019342      0.000001      NO
         Energy change      0.000010      0.000000      NO


 New Cartesian Coordinates Obtained by Inverse Iteration

 Displacement from previous Coordinates is:  0.136598
 Adding empirical dispersion correction 
 ----------------------------------------------------------------
 Doing -D3(op) with
 s6 =   1.00000
 s8 =   0.78311
 a1 =   0.30000
 a2 =   4.25000
 n  =  10.00000
 -D3 energy without 3body term =     -0.0414306912 hartrees
 ----------------------------------------------------------------
             Standard Nuclear Orientation (Angstroms)
    I     Atom           X                Y                Z
 ----------------------------------------------------------------
    1      C       0.5758260428     0.8154442701     0.7746621164
    2      C       0.0780731291    -0.6621536025     0.6936210215
    3      C      -0.4863165009     1.8641944345     0.4847935293
    4      C      -1.2128277480    -0.9228441518    -0.0649301604
    5      O       0.0478341666     3.0853644862     0.2903928626
    6      O      -1.6764918068     1.6722698042     0.5379950776
    7      O      -1.2062798618    -0.4032843192    -1.3053970698
    8      O      -2.1109551057    -1.6008932263     0.3731652365
    9      C      -2.4181363467    -0.5681113329    -2.0595474055
   10      C      -0.8924128653     4.1617730673     0.1068157825
   11      C       1.9255860921     0.7499051814    -0.0512495267
   12      C       2.9766821983     0.1313500201     0.9080344639
   13      C       2.4891917769    -1.3382673248     1.0013194937
   14      C       1.3033028815    -1.3461865600    -0.0041386585
   15      O       1.6914916399    -0.3430130029    -0.9546164511
   16      H       0.8355802799     1.0361474113     1.8157859088
   17      H      -0.0903392797    -1.0807783905     1.6845395553
   18      H      -3.2441084822    -0.0692966790    -1.5499564783
   19      H      -1.5287250470     4.2664163111     0.9867137457
   20      H       3.9638569693     0.1908153461     0.4461056588
   21      H       3.0239420307     0.6429240448     1.8717087899
   22      H       3.2598299286    -2.0376296728     0.6720921261
   23      H       2.1788810585    -1.6333737371     2.0057913021
   24      H      -2.2242801958    -0.1038792815    -3.0242768851
   25      H      -2.6551958142    -1.6261192144    -2.1837468994
   26      H      -1.5176455384     3.9741802863    -0.7671620325
   27      H      -0.2859635957     5.0528173391    -0.0391055802
   28      C       1.0441547054    -2.6722769070    -0.6848664484
   29      H       1.9648590997    -3.0370629608    -1.1449891490
   30      H       0.7008193363    -3.4125683056     0.0421191840
   31      H       0.2864691548    -2.5731067211    -1.4629310469
   32      C       2.4033133764     1.9579429209    -0.8252749346
   33      H       3.3239590292     1.6937804008    -1.3510186553
   34      H       1.6646388630     2.2799413138    -1.5589545030
   35      H       2.6062064392     2.7941987221    -0.1551739402
 ----------------------------------------------------------------
 Nuclear Repulsion Energy =  1400.2892354929 hartrees
 There are       65 alpha and       65 beta electrons
 Applying Cartesian multipole field
    Component          Value
    ---------          -----
     (2,0,0)        1.00000E-11
     (0,2,0)        2.00000E-11
     (0,0,2)       -3.00000E-11
 Nucleus-field energy     =     0.0000000352 hartrees
 Requested basis set is 6-311++G(d,p)
 There are 192 shells and 500 basis functions
 A cutoff of  1.0D-11 yielded  15075 shell pairs
 There are    103971 function pairs (    110813 Cartesian)
 Smallest overlap matrix eigenvalue = 4.79E-07

 Q-Chem warning in module /fs/scratch/osu6415/qchem-kaunlao-vdw/stvman/mkSTV.C, line 281:

 Overlap eigenvalue is smaller than square root of threshold

 Linear dependence detected in AO basis
 Number of orthogonalized atomic orbitals = 499
 Maximum deviation from orthogonality = 9.904E-11
 Guess MOs from SCF MO coefficient file
 Reading MOs from coefficient file
 Reading MOs from coefficient file
 A restricted hybrid HF-DFT SCF calculation will be
 performed using Pulay DIIS extrapolation
 Exchange:     0.2000 Hartree-Fock + 0.0800 Slater + 0.7200 B88
 Correlation:  0.1900 VWN1RPA + 0.8100 LYP
 Using SG-1 standard quadrature grid
 Dispersion:   Grimme D3
 SCF converges when DIIS error is below 1.0E-08
 Geometry optimization detected.  Setting ReadMinima to 0
 Setting SaveMinima to 0
 using 20 threads for integral computing
 -------------------------------------------------------
 OpenMP Integral computing Module                
 Release: version 1.0, May 2013, Q-Chem Inc. Pittsburgh 
 -------------------------------------------------------
 -------------------------------------------------------
 OpenMP BLAS3 based DFT computing Module                
 Release: version 1.0, May 2013, Q-Chem Inc. Pittsburgh 
 -------------------------------------------------------
 ---------------------------------------
  Cycle       Energy         DIIS Error
 ---------------------------------------
    1    -844.5285515691      1.86E-04
    2    -844.5255407577      3.54E-05
    3    -844.5254980778      5.59E-05
    4    -844.5255746157      1.07E-05
    5    -844.5255768575      3.73E-06
    6    -844.5255771727      7.78E-07
    7    -844.5255771832      4.10E-07
    8    -844.5255771867      9.06E-08
    9    -844.5255771869      2.75E-08
   10    -844.5255771855      9.99E-09 Convergence criterion met
 ---------------------------------------
 SCF time:  CPU 813.11 s  wall 44.81 s
 SCF   energy in the final basis set = -844.52557719
 Total energy in the final basis set = -844.52557719
 
 --------------------------------------------------------------
 
                    Orbital Energies (a.u.)
 --------------------------------------------------------------
 
 Alpha MOs
 -- Occupied --
-19.179 -19.160 -19.126 -19.120 -19.103 -10.312 -10.295 -10.243
-10.240 -10.234 -10.218 -10.208 -10.197 -10.178 -10.178 -10.166
-10.164  -1.122  -1.103  -1.061  -1.033  -1.015  -0.829  -0.805
 -0.782  -0.748  -0.726  -0.721  -0.674  -0.643  -0.600  -0.581
 -0.570  -0.559  -0.517  -0.511  -0.500  -0.494  -0.487  -0.480
 -0.473  -0.465  -0.458  -0.442  -0.428  -0.424  -0.418  -0.411
 -0.405  -0.401  -0.387  -0.373  -0.367  -0.365  -0.360  -0.354
 -0.352  -0.347  -0.331  -0.328  -0.321  -0.300  -0.292  -0.271
 -0.269
 -- Virtual --
 -0.021  -0.009  -0.004   0.002   0.007   0.009   0.013   0.019
  0.025   0.027   0.035   0.038   0.042   0.046   0.049   0.052
  0.059   0.063   0.067   0.069   0.074   0.080   0.088   0.090
  0.094   0.097   0.101   0.102   0.106   0.111   0.114   0.118
  0.119   0.121   0.125   0.128   0.131   0.132   0.135   0.137
  0.143   0.146   0.147   0.147   0.150   0.152   0.155   0.158
  0.163   0.168   0.168   0.169   0.173   0.178   0.179   0.181
  0.182   0.185   0.191   0.195   0.199   0.202   0.204   0.207
  0.210   0.213   0.213   0.216   0.219   0.225   0.230   0.233
  0.238   0.247   0.248   0.253   0.260   0.267   0.271   0.275
  0.282   0.284   0.292   0.294   0.296   0.301   0.309   0.314
  0.317   0.321   0.333   0.334   0.339   0.341   0.346   0.350
  0.353   0.358   0.358   0.360   0.364   0.372   0.374   0.375
  0.379   0.383   0.388   0.398   0.401   0.403   0.407   0.414
  0.420   0.429   0.433   0.439   0.454   0.460   0.466   0.469
  0.478   0.480   0.505   0.514   0.519   0.528   0.540   0.544
  0.549   0.551   0.567   0.572   0.587   0.596   0.600   0.607
  0.608   0.621   0.627   0.632   0.641   0.645   0.651   0.660
  0.665   0.669   0.672   0.677   0.682   0.686   0.692   0.697
  0.704   0.706   0.719   0.722   0.724   0.734   0.740   0.745
  0.751   0.762   0.766   0.769   0.782   0.789   0.800   0.808
  0.816   0.820   0.827   0.841   0.842   0.863   0.891   0.919
  0.927   0.946   0.970   0.990   0.998   1.011   1.034   1.054
  1.064   1.078   1.085   1.094   1.100   1.117   1.146   1.161
  1.183   1.199   1.204   1.216   1.217   1.221   1.231   1.249
  1.256   1.258   1.270   1.276   1.284   1.311   1.321   1.329
  1.344   1.365   1.377   1.385   1.400   1.408   1.422   1.434
  1.444   1.455   1.463   1.466   1.479   1.496   1.500   1.513
  1.515   1.536   1.550   1.552   1.560   1.568   1.574   1.576
  1.579   1.591   1.598   1.607   1.618   1.621   1.632   1.653
  1.664   1.674   1.676   1.686   1.699   1.705   1.709   1.713
  1.718   1.724   1.737   1.743   1.753   1.756   1.767   1.780
  1.790   1.799   1.806   1.818   1.828   1.841   1.848   1.853
  1.863   1.877   1.901   1.921   1.929   1.944   1.969   1.988
  1.995   2.011   2.015   2.023   2.029   2.048   2.052   2.083
  2.085   2.105   2.118   2.125   2.142   2.155   2.161   2.186
  2.193   2.200   2.208   2.218   2.242   2.254   2.266   2.298
  2.314   2.366   2.394   2.403   2.411   2.441   2.449   2.477
  2.479   2.490   2.498   2.503   2.513   2.522   2.524   2.529
  2.542   2.550   2.556   2.573   2.588   2.593   2.603   2.614
  2.617   2.638   2.657   2.669   2.678   2.684   2.704   2.718
  2.728   2.753   2.766   2.787   2.814   2.820   2.832   2.865
  2.876   2.883   2.892   2.900   2.910   2.937   2.949   2.964
  2.981   3.015   3.031   3.043   3.052   3.060   3.075   3.077
  3.087   3.099   3.102   3.120   3.147   3.167   3.180   3.190
  3.216   3.229   3.251   3.255   3.273   3.314   3.333   3.360
  3.375   3.388   3.402   3.404   3.534   3.601   3.618   3.664
  3.677   3.689   3.749   3.772   3.796   3.821   3.829   3.835
  3.841   3.854   3.860   3.947   3.963   4.049   4.084   4.088
  4.135   4.136   4.148   4.175   4.187   4.259   4.282   4.316
  4.445   4.516   5.053   5.068   5.152   5.166   5.241   5.270
  5.301   5.403   5.448   5.524   5.627   5.654   5.691   5.887
  5.909  23.767  23.832  23.848  23.884  23.901  23.926  23.951
 23.955  23.965  23.990  23.995  24.035  49.903  49.950  50.005
 50.029  50.065
 --------------------------------------------------------------
 
          Ground-State Mulliken Net Atomic Charges

     Atom                 Charge (a.u.)
  ----------------------------------------
      1 C                     0.403980
      2 C                     0.634607
      3 C                    -0.701320
      4 C                    -1.070893
      5 O                    -0.066107
      6 O                    -0.197360
      7 O                    -0.036222
      8 O                    -0.148208
      9 C                    -0.209177
     10 C                    -0.227410
     11 C                    -0.418916
     12 C                    -0.575689
     13 C                    -0.300208
     14 C                    -0.347148
     15 O                     0.062061
     16 H                     0.261832
     17 H                     0.281069
     18 H                     0.192936
     19 H                     0.179940
     20 H                     0.170150
     21 H                     0.139561
     22 H                     0.170906
     23 H                     0.147530
     24 H                     0.154693
     25 H                     0.174066
     26 H                     0.186892
     27 H                     0.151262
     28 C                     0.093072
     29 H                     0.175262
     30 H                     0.164518
     31 H                     0.179540
     32 C                    -0.147251
     33 H                     0.153613
     34 H                     0.179690
     35 H                     0.188729
  ----------------------------------------
  Sum of atomic charges =     0.000000

 -----------------------------------------------------------------
                    Cartesian Multipole Moments
 -----------------------------------------------------------------
    Charge (ESU x 10^10)
                 0.0000
    Dipole Moment (Debye)
         X       2.5456      Y       2.3378      Z      -0.0236
       Tot       3.4562
    Quadrupole Moments (Debye-Ang)
        XX    -105.6963     XY      -5.3130     YY     -91.4559
        XZ       9.8260     YZ       1.0700     ZZ     -99.0473
    Octopole Moments (Debye-Ang^2)
       XXX     -75.9298    XXY     -20.4033    XYY     -30.6517
       YYY     -29.0109    XXZ      -9.8074    XYZ      -5.2566
       YYZ       0.3190    XZZ     -42.8942    YZZ     -26.3847
       ZZZ      19.4226
    Hexadecapole Moments (Debye-Ang^3)
      XXXX   -2008.7026   XXXY      35.3447   XXYY    -726.2497
      XYYY     -35.2557   YYYY   -2007.7267   XXXZ     -97.5749
      XXYZ     -10.4721   XYYZ     -40.0610   YYYZ     -56.3822
      XXZZ    -432.0864   XYZZ      21.9714   YYZZ    -477.9382
      XZZZ    -105.3857   YZZZ     -60.7776   ZZZZ    -617.2512
 -----------------------------------------------------------------
 Calculating analytic gradient of the SCF energy
 Gradient of SCF Energy
            1           2           3           4           5           6
    1   0.0000329  -0.0000166  -0.0000271  -0.0000050  -0.0000516   0.0000020
    2  -0.0000020   0.0000333  -0.0000270  -0.0000190  -0.0000321   0.0000568
    3   0.0000332   0.0000104  -0.0001251  -0.0000077   0.0000321   0.0000464
            7           8           9          10          11          12
    1   0.0000362   0.0000078   0.0000116  -0.0000355  -0.0000347  -0.0000121
    2  -0.0000846  -0.0000041   0.0000230   0.0000052   0.0000107   0.0000182
    3  -0.0000724  -0.0000073   0.0000146   0.0000169   0.0000406   0.0000213
           13          14          15          16          17          18
    1   0.0000196   0.0000099   0.0000040  -0.0000105   0.0000091   0.0000126
    2   0.0000200  -0.0000071  -0.0000200   0.0000128  -0.0000039  -0.0000428
    3  -0.0000036   0.0000067  -0.0000230   0.0000144  -0.0000018  -0.0000216
           19          20          21          22          23          24
    1  -0.0000355  -0.0000046  -0.0000236   0.0000150   0.0000048   0.0000187
    2  -0.0000209   0.0000306   0.0000166   0.0000242   0.0000090  -0.0000141
    3  -0.0000210   0.0000218   0.0000215   0.0000161   0.0000091  -0.0000142
           25          26          27          28          29          30
    1   0.0000320  -0.0000167  -0.0000358   0.0000317   0.0000286   0.0000104
    2  -0.0000324  -0.0000108  -0.0000035   0.0000031  -0.0000026   0.0000051
    3  -0.0000350  -0.0000240  -0.0000040   0.0000047   0.0000171  -0.0000027
           31          32          33          34          35
    1   0.0000365  -0.0000021  -0.0000024   0.0000016  -0.0000112
    2   0.0000102   0.0000058   0.0000192   0.0000090   0.0000141
    3  -0.0000070   0.0000015   0.0000157   0.0000118   0.0000146
 Max gradient component =       1.251E-04
 RMS gradient           =       2.658E-05
 Gradient time:  CPU 396.00 s  wall 27.33 s
 Geometry Optimization Parameters
   NAtoms,    NIC,     NZ,  NCons,   NDum,   NFix, NCnnct, MaxDiis
       35     275       0       0       0       0       0       0

 Cartesian Hessian Update
 Hessian Updated using Powell/Murtagh-Sargent Update
  Mixing factors:     0.987729 Powell
                      0.012271 Murtagh-Sargent


** GEOMETRY OPTIMIZATION IN DELOCALIZED INTERNAL COORDINATES **
   Searching for a Transition State

   Optimization Cycle:   3

                       Coordinates (Angstroms)
     ATOM                X               Y               Z
      1  C         0.5758260428    0.8154442701    0.7746621164
      2  C         0.0780731291   -0.6621536025    0.6936210215
      3  C        -0.4863165009    1.8641944345    0.4847935293
      4  C        -1.2128277480   -0.9228441518   -0.0649301604
      5  O         0.0478341666    3.0853644862    0.2903928626
      6  O        -1.6764918068    1.6722698042    0.5379950776
      7  O        -1.2062798618   -0.4032843192   -1.3053970698
      8  O        -2.1109551057   -1.6008932263    0.3731652365
      9  C        -2.4181363467   -0.5681113329   -2.0595474055
     10  C        -0.8924128653    4.1617730673    0.1068157825
     11  C         1.9255860921    0.7499051814   -0.0512495267
     12  C         2.9766821983    0.1313500201    0.9080344639
     13  C         2.4891917769   -1.3382673248    1.0013194937
     14  C         1.3033028815   -1.3461865600   -0.0041386585
     15  O         1.6914916399   -0.3430130029   -0.9546164511
     16  H         0.8355802799    1.0361474113    1.8157859088
     17  H        -0.0903392797   -1.0807783905    1.6845395553
     18  H        -3.2441084822   -0.0692966790   -1.5499564783
     19  H        -1.5287250470    4.2664163111    0.9867137457
     20  H         3.9638569693    0.1908153461    0.4461056588
     21  H         3.0239420307    0.6429240448    1.8717087899
     22  H         3.2598299286   -2.0376296728    0.6720921261
     23  H         2.1788810585   -1.6333737371    2.0057913021
     24  H        -2.2242801958   -0.1038792815   -3.0242768851
     25  H        -2.6551958142   -1.6261192144   -2.1837468994
     26  H        -1.5176455384    3.9741802863   -0.7671620325
     27  H        -0.2859635957    5.0528173391   -0.0391055802
     28  C         1.0441547054   -2.6722769070   -0.6848664484
     29  H         1.9648590997   -3.0370629608   -1.1449891490
     30  H         0.7008193363   -3.4125683056    0.0421191840
     31  H         0.2864691548   -2.5731067211   -1.4629310469
     32  C         2.4033133764    1.9579429209   -0.8252749346
     33  H         3.3239590292    1.6937804008   -1.3510186553
     34  H         1.6646388630    2.2799413138   -1.5589545030
     35  H         2.6062064392    2.7941987221   -0.1551739402
   Point Group: c1    Number of degrees of freedom:    99


   Energy is   -844.525577185

 Hessian Updated using Powell/Murtagh-Sargent Update
  Mixing factors:     0.999887 Powell
                      0.000113 Murtagh-Sargent

 94 Hessian modes will be used to form the next step
  Hessian Eigenvalues:
    -0.005923    0.006435    0.006823    0.007368    0.007560    0.008858
     0.010179    0.010632    0.010960    0.016112    0.022660    0.022710
     0.023024    0.024663    0.034409    0.035798    0.037347    0.038198
     0.044069    0.044739    0.050017    0.051165    0.054554    0.055966
     0.056544    0.057680    0.058185    0.059455    0.060315    0.063682
     0.065443    0.065943    0.080232    0.086081    0.094574    0.101257
     0.101486    0.104010    0.105932    0.106186    0.111178    0.123509
     0.126698    0.154682    0.159998    0.160000    0.160000    0.160000
     0.160000    0.160000    0.160001    0.160018    0.178795    0.228536
     0.240535    0.249332    0.249512    0.249998    0.250001    0.250039
     0.251440    0.252804    0.258182    0.273876    0.303303    0.303839
     0.310563    0.311334    0.336711    0.341822    0.344805    0.345152
     0.345757    0.345820    0.345876    0.346369    0.346399    0.346568
     0.346750    0.347105    0.347140    0.347282    0.347351    0.347467
     0.348382    0.349496    0.350420    0.350829    0.394506    0.400235
     0.556713    0.561160    1.011032    1.015123

 Transition State Search - Taking P-RFO Step
 Searching for Lamda that Maximizes Along the Lowest mode
 Value Taken    Lamda =   0.00000079
 Searching for Lamda that Minimizes Along All other modes
 Value Taken    Lamda =  -0.00000122
 Step Taken.  Stepsize is  0.015301

                             Maximum     Tolerance    Cnvgd?
         Gradient           0.000096      0.000001      NO
         Displacement       0.005480      0.000001      NO
         Energy change     -0.000010      0.000000      NO


 New Cartesian Coordinates Obtained by Inverse Iteration

 Displacement from previous Coordinates is:  0.045428
 Adding empirical dispersion correction 
 ----------------------------------------------------------------
 Doing -D3(op) with
 s6 =   1.00000
 s8 =   0.78311
 a1 =   0.30000
 a2 =   4.25000
 n  =  10.00000
 -D3 energy without 3body term =     -0.0414339453 hartrees
 ----------------------------------------------------------------
             Standard Nuclear Orientation (Angstroms)
    I     Atom           X                Y                Z
 ----------------------------------------------------------------
    1      C       0.5758299151     0.8158103968     0.7763837777
    2      C       0.0783787239    -0.6619248719     0.6944998027
    3      C      -0.4862695372     1.8646148208     0.4866081495
    4      C      -1.2132637078    -0.9224084055    -0.0628211244
    5      O       0.0482352968     3.0849669174     0.2879199142
    6      O      -1.6764709483     1.6729108532     0.5401233733
    7      O      -1.2067811820    -0.4046625087    -1.3040276634
    8      O      -2.1108705518    -1.6007413580     0.3759117612
    9      C      -2.4186551940    -0.5705561546    -2.0579138243
   10      C      -0.8916900661     4.1612480710     0.1020798483
   11      C       1.9257267737     0.7507845109    -0.0492426422
   12      C       2.9763239333     0.1304051216     0.9095315258
   13      C       2.4894710141    -1.3396312582     0.9992529313
   14      C       1.3029053987    -1.3452310697    -0.0052928269
   15      O       1.6910250165    -0.3405946689    -0.9542604836
   16      H       0.8352366286     1.0363196053     1.8176121779
   17      H      -0.0887624489    -1.0814211943     1.6852613973
   18      H      -3.2441642578    -0.0693220845    -1.5499321221
   19      H      -1.5262736159     4.2695778341     0.9827881700
   20      H       3.9639948347     0.1914030546     0.4488490632
   21      H       3.0223546578     0.6398911707     1.8743562964
   22      H       3.2600934315    -2.0376429651     0.6671375346
   23      H       2.1803274763    -1.6378429899     2.0031641585
   24      H      -2.2241861712    -0.1094038102    -3.0239957951
   25      H      -2.6567886928    -1.6286801664    -2.1789292088
   26      H      -1.5186971168     3.9708062656    -0.7700010589
   27      H      -0.2849458929     5.0513552565    -0.0482721176
   28      C       1.0427941117    -2.6700553575    -0.6881363999
   29      H       1.9628947844    -3.0339141515    -1.1501960231
   30      H       0.7005396709    -3.4117176917     0.0379664328
   31      H       0.2840241535    -2.5694994342    -1.4649532742
   32      C       2.4042560049     1.9597473671    -0.8213270935
   33      H       3.3251404445     1.6960379247    -1.3468789481
   34      H       1.6661064671     2.2829630094    -1.5549936683
   35      H       2.6069806554     2.7950279309    -0.1499520105
 ----------------------------------------------------------------
 Nuclear Repulsion Energy =  1400.3189358093 hartrees
 There are       65 alpha and       65 beta electrons
 Applying Cartesian multipole field
    Component          Value
    ---------          -----
     (2,0,0)        1.00000E-11
     (0,2,0)        2.00000E-11
     (0,0,2)       -3.00000E-11
 Nucleus-field energy     =     0.0000000352 hartrees
 Requested basis set is 6-311++G(d,p)
 There are 192 shells and 500 basis functions
 A cutoff of  1.0D-11 yielded  15078 shell pairs
 There are    103989 function pairs (    110831 Cartesian)
 Smallest overlap matrix eigenvalue = 4.79E-07

 Q-Chem warning in module /fs/scratch/osu6415/qchem-kaunlao-vdw/stvman/mkSTV.C, line 281:

 Overlap eigenvalue is smaller than square root of threshold

 Linear dependence detected in AO basis
 Number of orthogonalized atomic orbitals = 499
 Maximum deviation from orthogonality = 1.333E-10
 Guess MOs from SCF MO coefficient file
 Reading MOs from coefficient file
 Reading MOs from coefficient file
 A restricted hybrid HF-DFT SCF calculation will be
 performed using Pulay DIIS extrapolation
 Exchange:     0.2000 Hartree-Fock + 0.0800 Slater + 0.7200 B88
 Correlation:  0.1900 VWN1RPA + 0.8100 LYP
 Using SG-1 standard quadrature grid
 Dispersion:   Grimme D3
 SCF converges when DIIS error is below 1.0E-08
 Geometry optimization detected.  Setting ReadMinima to 0
 Setting SaveMinima to 0
 using 20 threads for integral computing
 -------------------------------------------------------
 OpenMP Integral computing Module                
 Release: version 1.0, May 2013, Q-Chem Inc. Pittsburgh 
 -------------------------------------------------------
 -------------------------------------------------------
 OpenMP BLAS3 based DFT computing Module                
 Release: version 1.0, May 2013, Q-Chem Inc. Pittsburgh 
 -------------------------------------------------------
 ---------------------------------------
  Cycle       Energy         DIIS Error
 ---------------------------------------
    1    -844.5248920980      5.47E-05
    2    -844.5255720320      9.62E-06
    3    -844.5255689166      1.53E-05
    4    -844.5255746526      2.97E-06
    5    -844.5255748264      1.07E-06
    6    -844.5255748526      2.49E-07
    7    -844.5255748537      1.15E-07
    8    -844.5255748540      3.21E-08
    9    -844.5255748545      1.03E-08
   10    -844.5255748584      4.44E-09 Convergence criterion met
 ---------------------------------------
 SCF time:  CPU 782.56 s  wall 42.30 s
 SCF   energy in the final basis set = -844.52557486
 Total energy in the final basis set = -844.52557486
 
 --------------------------------------------------------------
 
                    Orbital Energies (a.u.)
 --------------------------------------------------------------
 
 Alpha MOs
 -- Occupied --
-19.179 -19.160 -19.126 -19.120 -19.103 -10.312 -10.295 -10.243
-10.240 -10.234 -10.218 -10.208 -10.197 -10.178 -10.178 -10.166
-10.164  -1.122  -1.103  -1.061  -1.033  -1.015  -0.829  -0.805
 -0.782  -0.748  -0.726  -0.721  -0.674  -0.643  -0.600  -0.581
 -0.570  -0.559  -0.517  -0.511  -0.500  -0.494  -0.487  -0.480
 -0.473  -0.465  -0.458  -0.442  -0.428  -0.424  -0.418  -0.411
 -0.405  -0.401  -0.387  -0.373  -0.367  -0.365  -0.360  -0.354
 -0.352  -0.347  -0.331  -0.328  -0.321  -0.300  -0.292  -0.271
 -0.269
 -- Virtual --
 -0.021  -0.009  -0.004   0.002   0.007   0.009   0.013   0.019
  0.025   0.027   0.035   0.038   0.042   0.046   0.049   0.052
  0.059   0.063   0.067   0.069   0.074   0.080   0.088   0.090
  0.094   0.097   0.101   0.102   0.106   0.111   0.114   0.117
  0.119   0.121   0.125   0.128   0.131   0.132   0.135   0.137
  0.143   0.146   0.147   0.147   0.150   0.152   0.155   0.158
  0.163   0.168   0.168   0.169   0.173   0.178   0.179   0.181
  0.183   0.185   0.191   0.195   0.199   0.202   0.204   0.207
  0.210   0.213   0.213   0.216   0.219   0.225   0.230   0.233
  0.238   0.247   0.248   0.253   0.260   0.267   0.271   0.275
  0.282   0.284   0.292   0.294   0.296   0.301   0.309   0.314
  0.317   0.321   0.333   0.334   0.339   0.341   0.346   0.350
  0.353   0.358   0.358   0.360   0.364   0.372   0.374   0.375
  0.379   0.383   0.388   0.398   0.401   0.403   0.408   0.414
  0.420   0.429   0.433   0.439   0.454   0.460   0.466   0.469
  0.478   0.480   0.505   0.514   0.519   0.529   0.540   0.544
  0.549   0.551   0.567   0.572   0.587   0.596   0.600   0.607
  0.608   0.621   0.627   0.632   0.641   0.645   0.651   0.659
  0.665   0.669   0.673   0.677   0.682   0.687   0.692   0.697
  0.704   0.706   0.719   0.722   0.724   0.734   0.740   0.745
  0.751   0.762   0.767   0.769   0.782   0.789   0.800   0.808
  0.816   0.820   0.827   0.841   0.842   0.863   0.891   0.919
  0.927   0.947   0.970   0.990   0.998   1.011   1.034   1.054
  1.064   1.078   1.085   1.094   1.100   1.117   1.146   1.160
  1.183   1.199   1.204   1.216   1.217   1.221   1.231   1.249
  1.256   1.258   1.270   1.277   1.284   1.311   1.321   1.330
  1.344   1.365   1.377   1.385   1.400   1.408   1.422   1.433
  1.444   1.455   1.463   1.466   1.479   1.496   1.500   1.513
  1.515   1.536   1.550   1.552   1.560   1.568   1.574   1.576
  1.579   1.591   1.598   1.607   1.618   1.621   1.632   1.653
  1.664   1.674   1.676   1.686   1.699   1.705   1.709   1.713
  1.718   1.724   1.737   1.743   1.753   1.756   1.767   1.780
  1.790   1.799   1.805   1.818   1.828   1.840   1.848   1.854
  1.863   1.877   1.901   1.921   1.929   1.944   1.969   1.988
  1.995   2.011   2.015   2.023   2.029   2.048   2.052   2.083
  2.085   2.105   2.118   2.126   2.142   2.155   2.161   2.186
  2.193   2.200   2.208   2.218   2.242   2.254   2.266   2.298
  2.314   2.366   2.394   2.403   2.411   2.441   2.449   2.477
  2.479   2.490   2.498   2.503   2.513   2.522   2.524   2.529
  2.542   2.550   2.556   2.573   2.588   2.593   2.603   2.614
  2.617   2.638   2.657   2.669   2.678   2.684   2.704   2.718
  2.727   2.753   2.766   2.787   2.814   2.820   2.832   2.865
  2.876   2.883   2.892   2.900   2.910   2.937   2.949   2.965
  2.981   3.015   3.031   3.042   3.052   3.060   3.075   3.077
  3.087   3.099   3.102   3.120   3.148   3.167   3.180   3.190
  3.216   3.229   3.251   3.255   3.273   3.314   3.333   3.360
  3.375   3.388   3.402   3.403   3.534   3.600   3.618   3.664
  3.677   3.689   3.749   3.772   3.796   3.821   3.829   3.835
  3.841   3.854   3.860   3.947   3.963   4.049   4.084   4.088
  4.135   4.136   4.148   4.175   4.187   4.259   4.282   4.316
  4.445   4.516   5.053   5.068   5.152   5.166   5.241   5.270
  5.301   5.403   5.448   5.524   5.627   5.654   5.691   5.887
  5.909  23.767  23.832  23.848  23.884  23.901  23.926  23.951
 23.955  23.965  23.990  23.995  24.035  49.903  49.950  50.005
 50.029  50.065
 --------------------------------------------------------------
 
          Ground-State Mulliken Net Atomic Charges

     Atom                 Charge (a.u.)
  ----------------------------------------
      1 C                     0.403843
      2 C                     0.635636
      3 C                    -0.702682
      4 C                    -1.071039
      5 O                    -0.066205
      6 O                    -0.197033
      7 O                    -0.036243
      8 O                    -0.148128
      9 C                    -0.209116
     10 C                    -0.227684
     11 C                    -0.417275
     12 C                    -0.575508
     13 C                    -0.300375
     14 C                    -0.347570
     15 O                     0.062089
     16 H                     0.261461
     17 H                     0.281105
     18 H                     0.192857
     19 H                     0.179947
     20 H                     0.170263
     21 H                     0.139476
     22 H                     0.170848
     23 H                     0.147488
     24 H                     0.154793
     25 H                     0.174133
     26 H                     0.186924
     27 H                     0.151227
     28 C                     0.094355
     29 H                     0.175322
     30 H                     0.164499
     31 H                     0.179399
     32 C                    -0.148958
     33 H                     0.153584
     34 H                     0.179843
     35 H                     0.188723
  ----------------------------------------
  Sum of atomic charges =     0.000000

 -----------------------------------------------------------------
                    Cartesian Multipole Moments
 -----------------------------------------------------------------
    Charge (ESU x 10^10)
                 0.0000
    Dipole Moment (Debye)
         X       2.5454      Y       2.3351      Z      -0.0290
       Tot       3.4544
    Quadrupole Moments (Debye-Ang)
        XX    -105.6965     XY      -5.3044     YY     -91.4527
        XZ       9.8472     YZ       1.0740     ZZ     -99.0548
    Octopole Moments (Debye-Ang^2)
       XXX     -75.9339    XXY     -20.4569    XYY     -30.6413
       YYY     -29.0487    XXZ      -9.8885    XYZ      -5.2371
       YYZ       0.1980    XZZ     -42.8464    YZZ     -26.4140
       ZZZ      19.3151
    Hexadecapole Moments (Debye-Ang^3)
      XXXX   -2008.8088   XXXY      34.9200   XXYY    -726.2714
      XYYY     -35.5924   YYYY   -2007.7026   XXXZ     -97.4858
      XXYZ     -10.3944   XYYZ     -39.9787   YYYZ     -56.6639
      XXZZ    -432.1301   XYZZ      21.7865   YYZZ    -477.8402
      XZZZ    -105.3954   YZZZ     -60.6318   ZZZZ    -616.8952
 -----------------------------------------------------------------
 Calculating analytic gradient of the SCF energy
 Gradient of SCF Energy
            1           2           3           4           5           6
    1   0.0000201   0.0000232  -0.0000642  -0.0001077   0.0000525  -0.0000246
    2  -0.0000368  -0.0000372   0.0000434   0.0002153  -0.0000221   0.0000339
    3  -0.0000796  -0.0000388   0.0003292   0.0000410  -0.0001309  -0.0000914
            7           8           9          10          11          12
    1   0.0001008   0.0000550   0.0000130  -0.0000251  -0.0000018  -0.0000161
    2  -0.0002203  -0.0000981   0.0000136  -0.0000012  -0.0000000   0.0000209
    3  -0.0000912  -0.0000431   0.0000109   0.0000091   0.0000327   0.0000119
[...]
    -0.00008490     -0.00007379      0.00004411
     0.00005946      0.00004653      0.00006135
    -0.00000783      0.00004231      0.00018234
     0.00082807     -0.00069364     -0.00065218
     0.03499290     -0.01891872     -0.05703723
    -0.04039541      0.01793943      0.04604066
    -0.00058263      0.00035373      0.00044074
    -0.00004455      0.00017031      0.00011117
     0.01557916      0.01191212      0.06422811
    -0.00884599     -0.02397916      0.05718578
    -0.00049774      0.00027876      0.00027009
     0.00086186     -0.00013242     -0.00122164
    -0.44376121     -0.02324362      0.20637011
     0.02324553      0.24955510      0.47328587
     0.36151219     -0.32563100     -0.15095596
     0.11994610      0.11457799     -0.39871675
     0.00010543      0.00037658     -0.00084016
    -0.00036241     -0.00121757     -0.00015697
    -0.00070789     -0.00026452     -0.00101461
    -0.00004106     -0.00008312      0.00000791
     0.00565424      0.00053156     -0.00192557
    -0.03854584      0.01418807      0.01768980
    -0.01048124     -0.02476781      0.02446519
    -0.01675070      0.00262435     -0.01983897
    -0.00435491      0.00493203      0.00192982
     0.03484941     -0.01091889     -0.01861949
     0.02506296     -0.00971554      0.02690911
    -0.00989116     -0.03777098     -0.03128294
vibration 90
    -0.00037248     -0.00010811     -0.00145957
    -0.00275770     -0.00741947      0.01753023
    -0.00012394      0.00029853     -0.00001280
    -0.00053698     -0.00051164      0.00040317
    -0.00004860     -0.00006903      0.00005749
     0.00008215     -0.00003066     -0.00002006
     0.00003183      0.00004686     -0.00008216
     0.00019939      0.00021743     -0.00014057
    -0.00017091      0.00054749     -0.00002165
     0.00000810      0.00000689      0.00028709
     0.00053903     -0.00030111     -0.00048733
     0.02685157     -0.01239222     -0.03927438
     0.03031468     -0.01274758     -0.03511645
    -0.00003129     -0.00016748      0.00040250
    -0.00000118      0.00024293      0.00006014
     0.00315862      0.00339829      0.01772227
     0.03320916      0.08583063     -0.20791752
     0.00315941     -0.00183348     -0.00191365
     0.00099104     -0.00011285     -0.00143162
    -0.33860108     -0.01935135      0.15863792
     0.01584419      0.16606306      0.31049871
    -0.26767980      0.24363522      0.11297177
    -0.09350806     -0.09065811      0.30461559
    -0.00047302     -0.00101590      0.00255428
    -0.00072248     -0.00367253     -0.00021714
    -0.00136568     -0.00045635     -0.00190104
     0.00030682      0.00032745     -0.00004139
    -0.04249831     -0.01169919      0.03817290
     0.38402530     -0.15100998     -0.18511923
     0.12698606      0.29584039     -0.28866327
    -0.00313945     -0.00368214      0.01601587
    -0.01022970      0.01079938      0.00536421
     0.09304502     -0.02737880     -0.05176431
     0.05063323     -0.01996053      0.05355846
    -0.02186508     -0.08123813     -0.06639914
vibration 91
    -0.00020296     -0.00048772     -0.00039120
     0.00438833      0.01068047     -0.02647160
     0.00004697     -0.00031462     -0.00000691
     0.00074657      0.00026816     -0.00012945
     0.00005041      0.00010404     -0.00006491
    -0.00002291      0.00006260      0.00002447
     0.00000233     -0.00005972     -0.00004065
    -0.00019292     -0.00010673      0.00011096
     0.00016521      0.00031683     -0.00000549
     0.00005410      0.00003141     -0.00025111
    -0.00029315      0.00033693      0.00034002
    -0.01713977      0.00759120      0.02454346
    -0.02413135      0.01060883      0.02706355
    -0.00164913      0.00007293      0.00153468
     0.00021528      0.00014388     -0.00031101
     0.00280992      0.00157662      0.00502258
    -0.04903078     -0.12833124      0.30879040
    -0.00059438      0.00037199      0.00014990
    -0.00099244      0.00011021      0.00143428
     0.21639978      0.01283107     -0.10138470
    -0.00996764     -0.10319629     -0.19255292
     0.21730728     -0.19736879     -0.08979768
     0.07152937      0.06856741     -0.23515014
    -0.00033305     -0.00021506      0.00054045
    -0.00104804     -0.00391837     -0.00046256
     0.00093826      0.00031598      0.00131909
    -0.00053831     -0.00062720      0.00009385
    -0.04389537     -0.01698519      0.05295877
     0.44398917     -0.17741946     -0.21414338
     0.16300065      0.37514337     -0.36575998
    -0.07839896      0.00558719     -0.05727301
     0.00995651     -0.01046757     -0.00523296
    -0.09086809      0.02658208      0.05094877
    -0.04946597      0.01959075     -0.05187708
     0.02117532      0.07844716      0.06403726
vibration 92
    -0.00020318     -0.00052822     -0.00206059
     0.00483604      0.01285805     -0.03071775
     0.00049798      0.00038925     -0.00014548
     0.00075499      0.00056680     -0.00048869
    -0.00034143     -0.00009312      0.00016620
    -0.00024892     -0.00010265      0.00002922
     0.00001284     -0.00008872      0.00012411
    -0.00024435     -0.00023745      0.00021259
     0.00062508     -0.00158434     -0.00034079
     0.00046644     -0.00021903      0.00051806
    -0.00181766      0.00031078      0.00125482
    -0.00605493      0.00247698      0.00863847
     0.00053221      0.00069329     -0.00228583
    -0.00004872      0.00013753     -0.00011401
     0.00005484     -0.00033861     -0.00003209
     0.00728399      0.00558734      0.02346131
    -0.05800281     -0.15006434      0.36189308
    -0.01038721      0.00623329      0.00644288
    -0.00166474      0.00054754      0.00195433
     0.07973739      0.00337143     -0.03534530
    -0.00339210     -0.03470269     -0.06759639
     0.00158225     -0.00182427     -0.00053140
    -0.00789132     -0.00708562      0.02735368
     0.00060537      0.00107781     -0.00304017
     0.00242674      0.01149058      0.00087993
    -0.00539956     -0.00143997     -0.00736765
     0.00165307      0.00223071     -0.00038917
     0.00503041     -0.00103285      0.00163091
    -0.02581586      0.00950438      0.01361257
     0.00040361     -0.00190104      0.00144285
    -0.03434763      0.00488362     -0.03487817
    -0.05467316      0.05511964      0.03008686
     0.52241638     -0.14866936     -0.29605284
     0.25112917     -0.09908136      0.26219699
    -0.11217608     -0.41030479     -0.33312683
vibration 93
    -0.00197682     -0.00203153     -0.00622504
     0.00964123      0.02611343     -0.06247862
    -0.00012645     -0.00031097     -0.00002803
     0.00152004      0.00114234     -0.00104768
     0.00008590      0.00002801     -0.00007951
     0.00002997      0.00005796      0.00003140
     0.00002039     -0.00013354      0.00032305
    -0.00047932     -0.00046634      0.00044685
    -0.00014281      0.00034122      0.00069857
    -0.00018540      0.00026244      0.00086707
     0.00048865     -0.00093772     -0.00093698
     0.01348533     -0.00665531     -0.02069488
     0.01980574     -0.00604947     -0.02684382
     0.00063156      0.00080195     -0.00110067
    -0.00033365     -0.00010861      0.00078735
     0.02168992      0.01825227      0.08157173
    -0.11922967     -0.30563671      0.73900180
     0.00227791     -0.00159237     -0.00189251
     0.00541121     -0.00085160     -0.00730116
    -0.17362883     -0.01019573      0.08072645
     0.00850915      0.08962576      0.16828027
    -0.16145192      0.14669782      0.06786907
    -0.07729164     -0.07415203      0.25489757
     0.00093632      0.00251559     -0.00529801
    -0.00145490     -0.00514756     -0.00068325
    -0.00266646     -0.00101300     -0.00367276
    -0.00054330     -0.00063328      0.00030244
     0.01151330      0.00136782     -0.00558721
    -0.08833482      0.03476932      0.04444029
    -0.02279217     -0.05630581      0.05337002
    -0.02725177      0.00483032     -0.03015408
     0.02066230     -0.01984288     -0.01052555
    -0.19460920      0.05505259      0.11078356
    -0.09565090      0.03781267     -0.09913719
     0.04004233      0.14489512      0.11729489
vibration 94
    -0.00009167     -0.00004949     -0.00014142
     0.00028722      0.00019957     -0.00107045
     0.00019795      0.00001698      0.00003158
    -0.00020132      0.00001498      0.00006396
    -0.00002592     -0.00001078     -0.00000038
    -0.00011262      0.00002436     -0.00002409
    -0.00009665      0.00030452      0.00009151
     0.00006593      0.00016904      0.00012545
     0.02989569     -0.08369262     -0.02935051
    -0.00012268     -0.00024271     -0.00081525
     0.00003486     -0.00006733     -0.00006503
     0.00015804     -0.00009920     -0.00030540
    -0.00023087      0.00023312      0.00023229
    -0.00021380      0.00013006     -0.00012246
     0.00001900      0.00000879      0.00005260
     0.00034564      0.00037729      0.00172285
    -0.00197058     -0.00472132      0.01171456
    -0.51995601      0.31259565      0.33156872
    -0.00330086      0.00039829      0.00446097
    -0.00206165     -0.00009311      0.00091127
     0.00017890      0.00141694      0.00288457
     0.00348340     -0.00279661     -0.00117989
     0.00027378      0.00023104     -0.00098246
     0.01414427      0.00241922     -0.04482679
     0.15198333      0.67541143      0.05948416
     0.00412750      0.00147675      0.00563451
     0.00077798      0.00116484     -0.00041588
    -0.01161477      0.00556735     -0.00854766
     0.05701846     -0.02134884     -0.03103273
    -0.01773089     -0.03272204      0.03208779
     0.09970081     -0.01318231      0.10122828
     0.00093615     -0.00088209     -0.00044982
    -0.00876559      0.00249154      0.00494249
    -0.00431185      0.00169914     -0.00456978
     0.00180509      0.00641497      0.00518002
vibration 95
    -0.00008542     -0.00021642     -0.00042229
     0.00127056      0.00280888     -0.00724379
    -0.00009793     -0.00005714     -0.00002113
     0.00023542     -0.00001494     -0.00029272
     0.00001364      0.00002221     -0.00000223
     0.00005755      0.00002400      0.00002748
    -0.00016099      0.00015440      0.00010816
    -0.00002639     -0.00000001      0.00006184
    -0.00476901      0.01411347      0.00515952
     0.00009844      0.00016306      0.00065141
    -0.00013658     -0.00012146      0.00002594
    -0.00076608      0.00039415      0.00102056
    -0.00260934      0.00177676      0.00294254
    -0.00148714      0.00091580     -0.00088265
     0.00010132     -0.00022039      0.00016243
     0.00176877      0.00154538      0.00585957
    -0.01388865     -0.03463870      0.08513077
     0.08488289     -0.05120836     -0.05440925
     0.00254756     -0.00030959     -0.00345684
     0.01036921      0.00036200     -0.00473278
    -0.00033719     -0.00471620     -0.00771927
     0.03109133     -0.02621762     -0.01141094
     0.00594501      0.00553330     -0.01970788
    -0.00177925      0.00089584      0.00471779
    -0.02594395     -0.11667245     -0.01025895
    -0.00321719     -0.00108126     -0.00440180
    -0.00043979     -0.00063552      0.00025555
    -0.06634274      0.03250090     -0.05238538
     0.30846504     -0.11569189     -0.17047374
    -0.10721238     -0.19960408      0.19530974
     0.59685715     -0.07948580      0.60237674
    -0.00041745      0.00147335      0.00162281
     0.01094725     -0.00295158     -0.00601992
    -0.00166271      0.00085611     -0.00104242
    -0.00387213     -0.01549283     -0.01243592
vibration 96
    -0.00001522     -0.00010203     -0.00038019
     0.00010748      0.00028229     -0.00067528
    -0.00001982      0.00001452      0.00020587
     0.00002241      0.00004023     -0.00007262
     0.00000113      0.00008626      0.00041224
     0.00000273      0.00002407      0.00016059
     0.00000429     -0.00001957      0.00002899
    -0.00001515     -0.00001732      0.00002376
    -0.00040546      0.00074861      0.00048895
     0.00053740     -0.01493079     -0.09377328
     0.00003573     -0.00001067      0.00000698
     0.00023650     -0.00016669     -0.00045900
     0.00024770     -0.00005474     -0.00034895
     0.00000476      0.00002066     -0.00003012
    -0.00001055     -0.00001171      0.00001830
     0.00023447      0.00063139      0.00186943
    -0.00128034     -0.00337209      0.00808192
     0.00595654     -0.00358378     -0.00378353
    -0.41025855      0.05250322      0.56335611
    -0.00314757     -0.00015939      0.00147019
     0.00021320      0.00206698      0.00393455
    -0.00185003      0.00167781      0.00077752
    -0.00105077     -0.00103649      0.00344372
     0.00028598      0.00098057     -0.00144758
    -0.00137847     -0.00611986     -0.00046193
     0.41035838      0.13646787      0.56093739
    -0.00647755     -0.01251150     -0.01676918
    -0.00022566      0.00019108     -0.00035082
     0.00062075     -0.00020357     -0.00039801
    -0.00085082     -0.00175854      0.00168856
     0.00291887     -0.00036088      0.00290764
     0.00046124      0.00034814      0.00084426
     0.00107785     -0.00025886     -0.00022345
    -0.00543358      0.00254666     -0.00479188
    -0.00141270     -0.00632634     -0.00509452
vibration 97
    -0.00000096     -0.00002796     -0.00041568
     0.00014174      0.00023743     -0.00060523
     0.00011844      0.00009843     -0.00010222
     0.00001127      0.00006848     -0.00012421
     0.00001329      0.00003337      0.00028288
    -0.00000970     -0.00001785      0.00000259
    -0.00000960     -0.00002719      0.00004632
    -0.00001408     -0.00002630      0.00003609
    -0.00012731      0.00004850      0.00030119
    -0.00019768     -0.00044382     -0.00094917
    -0.00114958     -0.00040688     -0.00139991
    -0.00027775     -0.00048039      0.00001595
     0.00012909     -0.00013749     -0.00024247
     0.00006175      0.00022306     -0.00013246
     0.00017985      0.00026520      0.00029897
     0.00084241      0.00081431      0.00671976
    -0.00131089     -0.00302608      0.00754677
     0.00135241     -0.00088817     -0.00085332
    -0.00421541      0.00052662      0.00553720
     0.00681604     -0.00098457     -0.00262739
     0.00031977      0.00310663      0.00675361
    -0.00096581      0.00142854      0.00051027
    -0.00050478     -0.00050865      0.00290385
     0.00057786      0.00123621     -0.00248951
    -0.00026893     -0.00093122     -0.00003856
     0.00488934      0.00148617      0.00658835
     0.00205247      0.00308292     -0.00079840
    -0.00082342      0.00039218     -0.00070684
     0.00342275     -0.00126061     -0.00199502
    -0.00145450     -0.00276556      0.00257609
     0.00804999     -0.00092075      0.00807320
    -0.05704702     -0.01887587     -0.07047572
     0.04648320     -0.02110740     -0.04646693
     0.53350320     -0.23489504      0.51099227
     0.10229677      0.48185256      0.37754873
vibration 98
    -0.00001772     -0.00000297     -0.00001107
    -0.00000647      0.00011670     -0.00031637
     0.00006484      0.00008317     -0.00002882
     0.00116652      0.00049789      0.00015923
    -0.00001318     -0.00004571      0.00001447
    -0.00004315     -0.00003052      0.00000820
    -0.00012984     -0.00017420      0.00025290
    -0.00047914     -0.00025730      0.00005104
     0.03890606      0.04020416     -0.07616587
    -0.00016148     -0.00013316     -0.00022659
     0.00001167     -0.00000470     -0.00002113
     0.00006025     -0.00001351     -0.00006045
     0.00006976     -0.00002444     -0.00008388
     0.00002424      0.00000607     -0.00005224
    -0.00002234     -0.00001278      0.00002565
    -0.00002550     -0.00004516      0.00009456
    -0.00065609     -0.00180376      0.00436995
    -0.24600111      0.17135114      0.14918811
    -0.00051382      0.00003856      0.00076054
    -0.00078792     -0.00004403      0.00036242
     0.00003517      0.00019924      0.00039142
    -0.00069540      0.00057599      0.00024549
    -0.00023446     -0.00026449      0.00090535
    -0.17188548     -0.37768998      0.79331018
    -0.04836160     -0.27054976     -0.04246542
     0.00151205      0.00041196      0.00202052
     0.00085555      0.00119339     -0.00023170
     0.00016600      0.00007317     -0.00025082
    -0.00212669      0.00080879      0.00092111
    -0.00062569     -0.00174817      0.00172513
     0.00086843      0.00000540      0.00031834
    -0.00014412     -0.00004497     -0.00022138
    -0.00026116      0.00002338      0.00010174
     0.00158267     -0.00076046      0.00150951
     0.00030202      0.00127001      0.00103016
vibration 99
     0.00008877      0.00002871     -0.00003449
     0.00001054      0.00001654     -0.00003751
    -0.00121986      0.00045738     -0.00008962
    -0.00001620      0.00004247     -0.00001216
     0.00030259      0.00025619     -0.00002933
     0.00055428     -0.00009214      0.00001427
     0.00000399     -0.00001799     -0.00000292
     0.00000155     -0.00001174      0.00000357
    -0.00012154      0.00009774      0.00021487
    -0.07033936     -0.06283839      0.00950342
    -0.00004227     -0.00002396      0.00004920
    -0.00005892      0.00000221      0.00002474
    -0.00003615      0.00002311      0.00003262
    -0.00002060      0.00000667      0.00001660
     0.00001499      0.00000440     -0.00001573
     0.00027905     -0.00009573      0.00056566
    -0.00003911     -0.00009287      0.00030312
     0.00141693     -0.00079719     -0.00085124
     0.16318559     -0.03669544     -0.25498202
     0.00092486     -0.00000046     -0.00039877
    -0.00004019     -0.00001190     -0.00000782
     0.00042522     -0.00034288     -0.00016308
     0.00006952      0.00010156     -0.00028506
     0.00031300      0.00077135     -0.00148668
    -0.00022187     -0.00103801     -0.00006946
     0.16669717      0.05060406      0.26274355
     0.50696509      0.72613611     -0.11967361
    -0.00007362      0.00001827     -0.00000496
     0.00060592     -0.00024929     -0.00030709
    -0.00000237      0.00006341     -0.00004101
     0.00033435     -0.00002926      0.00038620
     0.00016924      0.00014838      0.00029481
     0.00059485     -0.00010539     -0.00028783
    -0.00182208      0.00060032     -0.00174489
    -0.00037177     -0.00255160     -0.00178339
[INT]
    0.848114
    0.206974
    1.636257
    1.539500
    1.867397
    1.432485
    0.108003
    0.938710
    1.188635
    0.186359
    0.744572
    4.140907
    1.164030
    1.658825
    4.541790
    6.103250
    2.040236
    5.467488
    8.843264
    6.364967
    9.378715
    2.353186
    2.161036
    4.411247
   18.752600
    3.152006
    4.350937
    3.879721
    2.326392
    4.400738
    7.827147
    8.272515
   10.516500
    9.774905
    5.978431
   18.902295
   17.435695
   16.837862
   24.363083
    4.503443
    0.835088
    6.866829
    0.486887
   51.765501
   86.374503
   32.749476
   31.258199
   12.272916
    9.008430
    0.653084
    0.731470
   64.879976
   23.972240
   10.148677
   12.066307
   97.152587
   60.261483
  287.451412
    9.480527
   23.056362
  142.310077
    1.744665
   24.401668
   32.528884
   23.154928
   16.015693
    9.742225
   15.149278
   10.042465
    3.118124
    6.325059
    6.343893
   11.972691
    1.338435
   10.880658
   10.241841
    4.072217
    4.855850
   10.019525
   52.310748
  493.715710
    5.120907
   13.718889
   18.792653
   29.600448
   36.190321
   42.235549
   34.381635
    1.159945
    2.605164
   23.959463
   18.919937
   34.041977
   15.908440
   18.297615
   16.593467
   15.541302
   13.829627
   12.861898

======= END OF MOLDEN-FORMATTED INPUT FILE =======


        *************************************************************
        *                                                           *
        *  Thank you very much for using Q-Chem.  Have a nice day.  *
        *                                                           *
        *************************************************************


