r0176.ten.osc.edu 10.25.155
Q-Chem Developer Version! Running on 10.25.155.*
                  Welcome to Q-Chem
     A Quantum Leap Into The Future Of Chemistry


 Q-Chem 5.0, Q-Chem, Inc., Pleasanton, CA (2017)

 Yihan Shao,  Zhengting Gan,  E. Epifanovsky,  A. T. B. Gilbert,  M. Wormit,  
 J. Kussmann,  A. W. Lange,  A. Behn,  Jia Deng,  Xintian Feng,  D. Ghosh,  
 M. Goldey,  P. R. Horn,  L. D. Jacobson,  I. Kaliman,  T. Kus,  A. Landau,  
 Jie Liu,  E. I. Proynov,  R. M. Richard,  R. P. Steele,  E. J. Sundstrom,  
 H. L. Woodcock III,  P. M. Zimmerman,  D. Zuev,  B. Albrecht,  E. Alguire,  
 S. A. Baeppler,  Z. Benda,  Y. A. Bernard,  E. J. Berquist,  K. B. Bravaya,  
 D. Casanova,  Chun-Min Chang,  Yunqing Chen,  A. Chien,  K. D. Closser,  
 M. P. Coons,  S. Dasgupta,  M. Diedenhofen,  Hainam Do,  R. G. Edgar,  
 Po-Tung Fang,  S. Fatehi,  Qingguo Feng,  Qinghui Ge,  A. Ghysels,  
 J. Gomes,  J. Gonthier,  A. Gunina,  M. W. D. Hanson-Heine,  
 P. H. P. Harbach,  A. W. Hauser,  J. E. Herr,  E. G. Hohenstein,  
 Z. C. Holden,  Kerwin Hui,  T.-C. Jagau,  Hyunjun Ji,  B. Kaduk,  
 K. Khistyaev,  Jaehoon Kim,  P. Klunzinger,  K. Koh,  D. Kosenkov,  
 T. Kowalczyk,  C. M. Krauter,  A. Kunitsa,  Ka Un Lao,  A. Laurent,  
 K. V. Lawler,  Joonho Lee,  D. Lefrancois,  S. Lehtola,  D. S. Levine,  
 Yi-Pei Li,  You-Sheng Lin,  Fenglai Liu,  E. Livshits,  A. Luenser,  
 P. Manohar,  E. Mansoor,  S. F. Manzer,  Shan-Ping Mao,  Yuezhi Mao,  
 N. Mardirossian,  A. V. Marenich,  L. A. Martinez-Martinez,  S. A. Maurer,  
 N. J. Mayhall,  S. C. McKenzie,  J.-M. Mewes,  A. F. Morrison,  K. Nanda,  
 T. S. Nguyen-Beck,  R. Olivares-Amaya,  J. A. Parkhill,  T. M. Perrine,  
 F. Plasser,  S. Prager,  A. Prociuk,  D. R. Rehn,  F. Rob,  M. Schneider,  
 N. Sergueev,  S. M. Sharada,  S. Sharma,  D. W. Small,  T. Stauch,  
 T. Stein,  Yu-Chuan Su,  A. J. W. Thom,  T. Tsuchimochi,  L. Vogt,  
 O. Vydrov,  M. A. Watson,  J. Wenzel,  M. de Wergifosse,  T. A. Wesolowski,  
 A. White,  J. Witte,  A. Yamada,  Jun Yang,  K. Yao,  S. Yeganeh,  
 S. R. Yost,  Zhi-Qiang You,  A. Zech,  Igor Ying Zhang,  Xing Zhang,  
 Yan Zhao,  Ying Zhu,  B. R. Brooks,  G. K. L. Chan,  C. J. Cramer,  
 M. S. Gordon,  W. J. Hehre,  A. Klamt,  M. W. Schmidt,  C. D. Sherrill,  
 D. G. Truhlar,  A. Aspuru-Guzik,  R. Baer,  A. T. Bell,  N. A. Besley,  
 Jeng-Da Chai,  A. Dreuw,  B. D. Dunietz,  T. R. Furlani,  Chao-Ping Hsu,  
 Yousung Jung,  Jing Kong,  D. S. Lambrecht,  WanZhen Liang,  C. Ochsenfeld,  
 V. A. Rassolov,  L. V. Slipchenko,  J. E. Subotnik,  T. Van Voorhis,  
 J. M. Herbert,  A. I. Krylov,  P. M. W. Gill,  M. Head-Gordon

 Contributors to earlier versions of Q-Chem not listed above: 
 R. D. Adamson,  B. Austin,  J. Baker,  G. J. O. Beran,  K. Brandhorst,  
 S. T. Brown,  E. F. C. Byrd,  A. K. Chakraborty,  C.-L. Cheng,  
 Siu Hung Chien,  D. M. Chipman,  D. L. Crittenden,  H. Dachsel,  
 R. A. DiStasio Jr.,  R. J. Doerksen,  A. D. Dutoi,  L. Fusti-Molnar,  
 W. A. Goddard III,  A. Golubeva-Zadorozhnaya,  S. R. Gwaltney,  G. Hawkins,  
 A. Heyden,  S. Hirata,  G. Kedziora,  F. J. Keil,  C. Kelley,  Jihan Kim,  
 R. A. King,  R. Z. Khaliullin,  P. P. Korambath,  W. Kurlancheek,  
 A. M. Lee,  M. S. Lee,  S. V. Levchenko,  Ching Yeh Lin,  D. Liotard,  
 R. C. Lochan,  I. Lotan,  P. E. Maslen,  N. Nair,  D. P. O'Neill,  
 D. Neuhauser,  E. Neuscamman,  C. M. Oana,  R. Olson,  B. Peters,  
 R. Peverati,  P. A. Pieniazek,  Y. M. Rhee,  J. Ritchie,  M. A. Rohrdanz,  
 E. Rosta,  N. J. Russ,  H. F. Schaefer III,  N. E. Schultz,  N. Shenvi,  
 A. C. Simmonett,  A. Sodt,  D. Stuck,  K. S. Thanthiriwatte,  V. Vanovschi,  
 Tao Wang,  A. Warshel,  C. F. Williams,  Q. Wu,  X. Xu,  W. Zhang

 Please cite Q-Chem as follows:
 Y. Shao et al., Mol. Phys. 113, 184-215 (2015)
 DOI: 10.1080/00268976.2014.952696

 Q-Chem 5.0.1 for Intel X86 EM64T Linux

 Parts of Q-Chem use Armadillo 5.200.1 (Boston Tea Smuggler).
 http://arma.sourceforge.net/

 Q-Chem begins on Sat Oct 14 18:59:07 2017  

Host: r0176.ten.osc.edu
0

     Scratch files written to /tmp/pbstmp.1310479/10//
Processing $rem in /users/PAS0291/osu6415/.qchemrc.
molden_format             true

Checking the input file for inconsistencies... 	...done.

--------------------------------------------------------------
User input:
--------------------------------------------------------------
$molecule
0 1
C -0.37493764 0.80525769 -0.86913065
C -0.43051431 -0.77091904 -0.83358461
C 0.98388390 1.39870877 -0.52659392
C 0.90563606 -1.48660685 -0.75219311
O 1.24685106 1.43479630 0.78720971
O 1.74704976 1.81153489 -1.36989429
O 1.50694600 -1.37737337 0.44616409
O 1.38999164 -2.08518605 -1.68351579
C 2.79402969 -2.00971793 0.56883448
C 2.55443717 1.89962781 1.15857785
C -1.54649716 1.14731514 0.11175697
C -2.87267576 0.71891473 -0.58479211
C -2.87707682 -0.81424355 -0.36151050
C -1.49289364 -1.02622229 0.30195631
O -1.38791820 0.14346548 1.12812002
H -0.58205027 1.15687788 -1.87885536
H -0.83300062 -1.11757058 -1.78447630
H 3.48666638 -1.60960588 -0.17296923
H 2.72065857 2.91687016 0.80102886
H -3.72012999 1.19848636 -0.09212371
H -2.89555610 1.00610119 -1.63829286
H -3.66043548 -1.10978238 0.33909836
H -3.00339105 -1.39349943 -1.27837544
H 3.13140448 -1.78036620 1.57723468
H 2.70470806 -3.08834492 0.42933286
H 3.31987506 1.24414145 0.73940230
H 2.57440716 1.86386574 2.24549441
C -1.35072624 -2.28915802 1.12072945
H -2.16880241 -2.35673764 1.84123389
H -1.39240363 -3.16787983 0.47069225
H -0.40549020 -2.29576924 1.66153780
C -1.57926043 2.54155268 0.69993181
H -2.43520576 2.63554197 1.37195611
H -0.67224950 2.75962703 1.26052608
H -1.69001520 3.28086994 -0.09862623
$end

$rem
sym_ignore      true
jobtype         opt
method          b3lyp
basis           6-311++G(d,p)
dft_d           d3_op
mem_total       62000
MEM_STATIC      4000
ao2mo_disk      350000
max_scf_cycles  200
geom_opt_max_cycles 1000
geom_opt_tol_displacement 1
GEOM_OPT_TOL_GRADIENT       1
GEOM_OPT_TOL_ENERGY         1
$end

--------------------------------------------------------------
 Adding empirical dispersion correction 
 ----------------------------------------------------------------
 Doing -D3(op) with
 s6 =   1.00000
 s8 =   0.78311
 a1 =   0.30000
 a2 =   4.25000
 n  =  10.00000
 -D3 energy without 3body term =     -0.0422523474 hartrees
 ----------------------------------------------------------------
             Standard Nuclear Orientation (Angstroms)
    I     Atom           X                Y                Z
 ----------------------------------------------------------------
    1      C      -0.3749376400     0.8052576900    -0.8691306500
    2      C      -0.4305143100    -0.7709190400    -0.8335846100
    3      C       0.9838839000     1.3987087700    -0.5265939200
    4      C       0.9056360600    -1.4866068500    -0.7521931100
    5      O       1.2468510600     1.4347963000     0.7872097100
    6      O       1.7470497600     1.8115348900    -1.3698942900
    7      O       1.5069460000    -1.3773733700     0.4461640900
    8      O       1.3899916400    -2.0851860500    -1.6835157900
    9      C       2.7940296900    -2.0097179300     0.5688344800
   10      C       2.5544371700     1.8996278100     1.1585778500
   11      C      -1.5464971600     1.1473151400     0.1117569700
   12      C      -2.8726757600     0.7189147300    -0.5847921100
   13      C      -2.8770768200    -0.8142435500    -0.3615105000
   14      C      -1.4928936400    -1.0262222900     0.3019563100
   15      O      -1.3879182000     0.1434654800     1.1281200200
   16      H      -0.5820502700     1.1568778800    -1.8788553600
   17      H      -0.8330006200    -1.1175705800    -1.7844763000
   18      H       3.4866663800    -1.6096058800    -0.1729692300
   19      H       2.7206585700     2.9168701600     0.8010288600
   20      H      -3.7201299900     1.1984863600    -0.0921237100
   21      H      -2.8955561000     1.0061011900    -1.6382928600
   22      H      -3.6604354800    -1.1097823800     0.3390983600
   23      H      -3.0033910500    -1.3934994300    -1.2783754400
   24      H       3.1314044800    -1.7803662000     1.5772346800
   25      H       2.7047080600    -3.0883449200     0.4293328600
   26      H       3.3198750600     1.2441414500     0.7394023000
   27      H       2.5744071600     1.8638657400     2.2454944100
   28      C      -1.3507262400    -2.2891580200     1.1207294500
   29      H      -2.1688024100    -2.3567376400     1.8412338900
   30      H      -1.3924036300    -3.1678798300     0.4706922500
   31      H      -0.4054902000    -2.2957692400     1.6615378000
   32      C      -1.5792604300     2.5415526800     0.6999318100
   33      H      -2.4352057600     2.6355419700     1.3719561100
   34      H      -0.6722495000     2.7596270300     1.2605260800
   35      H      -1.6900152000     3.2808699400    -0.0986262300
 ----------------------------------------------------------------
 Nuclear Repulsion Energy =  1409.5938763462 hartrees
 There are       65 alpha and       65 beta electrons
 Requested basis set is 6-311++G(d,p)
 There are 192 shells and 500 basis functions

 Total QAlloc Memory Limit  62000 MB
 Mega-Array Size      3911 MB
 MEM_STATIC part      4000 MB
 A cutoff of  1.0D-11 yielded  15209 shell pairs
 There are    105059 function pairs (    112035 Cartesian)
 
 -------------------------------------------------------
 OpenMP Integral Computing Module                       
 Release: version 1.0, May 2013, Q-Chem Inc. Pittsburgh 
 -------------------------------------------------------
 Integral Job Info:
 Integral job number is                      11
 Integral operator is                         1
 short-range coefficients                     0
 long-range coefficients              100000000
 Omega coefficients                           0
 if combine SR and LR in K                    0
 Integral screening is                        0
 Integral computing path is                   2
 max size of driver memory is            800000
 size of driver memory is                593474
 size of scratch memory is              2361544
 max col of scratch BK array               1296
 max len of scratch array in speh3          155
 max len of scratch index in speh4           18
 max int batch size is                      520
 min int batch size is                       52
 fixed nKL is                                52
 max L of basis functions is                  2
 order of int derivative is                   0
 number of shells is                        192
 number of basis is                         517
 number of cartesian basis is               517
 number of contracted shell pairs         15209
 number of primitive shell pairs          33328
 maxK2 (contraction) of shell pair           36
 max number of K2 of shell pair               1
 max number of CS2 of shell pair           2890
 max number of PS2 of shell pair           4872
 mem total for path MDJ                  183240
 -------------------------------------------------------
 Smallest overlap matrix eigenvalue = 4.83E-07

 Q-Chem warning in module /fs/scratch/osu6415/qchem-kaunlao-vdw/stvman/mkSTV.C, line 281:

 Overlap eigenvalue is smaller than square root of threshold

 Linear dependence detected in AO basis
 Number of orthogonalized atomic orbitals = 499
 Maximum deviation from orthogonality = 9.055E-11

 Scale SEOQF with 1.000000e-01/1.000000e-01/1.000000e-01

 Standard Electronic Orientation quadrupole field applied
 Nucleus-field energy     =     0.0000000278 hartrees
 Guess from superposition of atomic densities
 Warning:  Energy on first SCF cycle will be non-variational
 A restricted hybrid HF-DFT SCF calculation will be
 performed using Pulay DIIS extrapolation
 Exchange:     0.2000 Hartree-Fock + 0.0800 Slater + 0.7200 B88
 Correlation:  0.1900 VWN1RPA + 0.8100 LYP
 Using SG-1 standard quadrature grid
 Dispersion:   Grimme D3
 SCF converges when DIIS error is below 1.0E-08
 using 20 threads for integral computing
 -------------------------------------------------------
 OpenMP Integral computing Module                
 Release: version 1.0, May 2013, Q-Chem Inc. Pittsburgh 
 -------------------------------------------------------
 -------------------------------------------------------
 OpenMP BLAS3 based DFT computing Module                
 Release: version 1.0, May 2013, Q-Chem Inc. Pittsburgh 
 -------------------------------------------------------
 ---------------------------------------
  Cycle       Energy         DIIS Error
 ---------------------------------------
    1    -847.9464816892      2.82E-02
    2    -844.1590990510      3.74E-03
    3    -843.6631074601      6.01E-03
    4    -844.4664605680      1.51E-03
    5    -844.5210593111      3.74E-04
    6    -844.5235407546      1.76E-04
    7    -844.5242479667      3.05E-05
    8    -844.5242662781      1.26E-05
    9    -844.5242701073      2.53E-06
   10    -844.5242702266      1.15E-06
   11    -844.5242702544      4.16E-07
   12    -844.5242702581      1.58E-07
   13    -844.5242702583      4.12E-08
   14    -844.5242702582      1.26E-08
   15    -844.5242702635      3.37E-09 Convergence criterion met
 ---------------------------------------
 SCF time:  CPU 1182.46 s  wall 61.47 s
 SCF   energy in the final basis set = -844.52427026
 Total energy in the final basis set = -844.52427026
 
 --------------------------------------------------------------
 
                    Orbital Energies (a.u.)
 --------------------------------------------------------------
 
 Alpha MOs
 -- Occupied --
-19.176 -19.171 -19.128 -19.118 -19.116 -10.308 -10.306 -10.243
-10.243 -10.232 -10.230 -10.206 -10.205 -10.179 -10.178 -10.168
-10.168  -1.120  -1.115  -1.062  -1.029  -1.026  -0.831  -0.807
 -0.784  -0.746  -0.731  -0.728  -0.677  -0.645  -0.604  -0.582
 -0.570  -0.568  -0.514  -0.513  -0.509  -0.496  -0.487  -0.482
 -0.477  -0.470  -0.461  -0.442  -0.431  -0.427  -0.424  -0.415
 -0.406  -0.402  -0.397  -0.375  -0.373  -0.368  -0.360  -0.358
 -0.355  -0.350  -0.332  -0.331  -0.320  -0.308  -0.291  -0.277
 -0.271
 -- Virtual --
 -0.015  -0.013  -0.008  -0.007   0.000   0.007   0.013   0.016
  0.024   0.031   0.033   0.039   0.040   0.044   0.048   0.049
  0.061   0.064   0.064   0.070   0.076   0.080   0.085   0.091
  0.093   0.099   0.101   0.104   0.107   0.110   0.111   0.117
  0.118   0.120   0.124   0.127   0.128   0.133   0.136   0.138
  0.142   0.145   0.150   0.152   0.153   0.154   0.157   0.159
  0.162   0.164   0.164   0.168   0.172   0.175   0.178   0.182
  0.185   0.187   0.190   0.195   0.197   0.200   0.201   0.205
  0.206   0.212   0.214   0.216   0.219   0.224   0.226   0.234
  0.240   0.245   0.247   0.253   0.262   0.262   0.266   0.272
  0.276   0.285   0.293   0.299   0.303   0.306   0.307   0.313
  0.315   0.319   0.326   0.328   0.334   0.338   0.340   0.342
  0.349   0.353   0.356   0.361   0.362   0.366   0.368   0.376
  0.378   0.379   0.390   0.393   0.395   0.405   0.412   0.414
  0.419   0.433   0.441   0.443   0.445   0.462   0.468   0.475
  0.494   0.496   0.508   0.511   0.518   0.524   0.529   0.538
  0.544   0.552   0.568   0.576   0.578   0.588   0.594   0.599
  0.605   0.614   0.620   0.633   0.638   0.643   0.652   0.657
  0.657   0.664   0.666   0.676   0.686   0.694   0.701   0.703
  0.709   0.719   0.722   0.724   0.725   0.734   0.743   0.745
  0.758   0.766   0.769   0.781   0.788   0.795   0.802   0.811
  0.817   0.829   0.832   0.836   0.854   0.865   0.880   0.921
  0.935   0.953   0.969   0.984   1.002   1.016   1.029   1.033
  1.046   1.090   1.096   1.108   1.123   1.131   1.141   1.160
  1.174   1.186   1.193   1.213   1.216   1.232   1.241   1.252
  1.255   1.270   1.274   1.279   1.284   1.302   1.307   1.313
  1.329   1.364   1.369   1.381   1.392   1.415   1.430   1.442
  1.450   1.459   1.471   1.480   1.489   1.494   1.506   1.508
  1.518   1.525   1.538   1.549   1.552   1.558   1.572   1.576
  1.585   1.589   1.600   1.604   1.614   1.627   1.633   1.643
  1.650   1.666   1.670   1.693   1.699   1.700   1.709   1.720
  1.724   1.727   1.741   1.747   1.750   1.755   1.767   1.780
  1.786   1.803   1.811   1.820   1.825   1.843   1.847   1.864
  1.876   1.894   1.899   1.934   1.940   1.960   1.975   1.995
  2.002   2.008   2.017   2.022   2.035   2.044   2.056   2.068
  2.089   2.098   2.120   2.132   2.134   2.149   2.166   2.178
  2.185   2.200   2.214   2.224   2.236   2.245   2.256   2.296
  2.305   2.378   2.386   2.408   2.421   2.454   2.464   2.470
  2.477   2.488   2.493   2.501   2.503   2.517   2.529   2.532
  2.554   2.559   2.569   2.576   2.592   2.596   2.605   2.609
  2.624   2.643   2.661   2.670   2.674   2.685   2.692   2.703
  2.736   2.744   2.772   2.787   2.800   2.815   2.831   2.852
  2.858   2.871   2.884   2.887   2.900   2.917   2.948   2.961
  3.000   3.008   3.024   3.034   3.047   3.055   3.065   3.075
  3.080   3.095   3.107   3.119   3.131   3.167   3.179   3.189
  3.198   3.224   3.234   3.256   3.269   3.311   3.331   3.360
  3.368   3.385   3.392   3.399   3.539   3.601   3.616   3.652
  3.681   3.693   3.771   3.780   3.785   3.819   3.824   3.830
  3.841   3.850   3.867   3.958   3.976   4.041   4.088   4.097
  4.129   4.146   4.169   4.183   4.187   4.211   4.288   4.309
  4.450   4.497   5.034   5.126   5.165   5.172   5.228   5.259
  5.265   5.423   5.456   5.531   5.630   5.651   5.699   5.884
  5.900  23.761  23.838  23.860  23.890  23.896  23.939  23.943
 23.951  23.956  23.986  23.989  24.043  49.921  49.942  50.015
 50.038  50.069
 --------------------------------------------------------------
 
          Ground-State Mulliken Net Atomic Charges

     Atom                 Charge (a.u.)
  ----------------------------------------
      1 C                     0.496099
      2 C                     0.635823
      3 C                    -1.051003
      4 C                    -0.644007
      5 O                     0.020005
      6 O                    -0.140838
      7 O                    -0.045420
      8 O                    -0.159930
      9 C                    -0.284863
     10 C                    -0.230642
     11 C                    -0.380029
     12 C                    -0.255482
     13 C                    -0.639687
     14 C                    -0.577058
     15 O                     0.040241
     16 H                     0.283699
     17 H                     0.292953
     18 H                     0.203656
     19 H                     0.185945
     20 H                     0.166633
     21 H                     0.143426
     22 H                     0.169628
     23 H                     0.138251
     24 H                     0.158291
     25 H                     0.179084
     26 H                     0.180301
     27 H                     0.166498
     28 C                    -0.017311
     29 H                     0.165007
     30 H                     0.164778
     31 H                     0.171096
     32 C                    -0.022600
     33 H                     0.164804
     34 H                     0.163402
     35 H                     0.159248
  ----------------------------------------
  Sum of atomic charges =    -0.000000

 -----------------------------------------------------------------
                    Cartesian Multipole Moments
 -----------------------------------------------------------------
    Charge (ESU x 10^10)
                -0.0000
    Dipole Moment (Debye)
         X      -1.1843      Y       0.0315      Z       2.4388
       Tot       2.7113
    Quadrupole Moments (Debye-Ang)
        XX     -92.8255     XY      -1.2307     YY    -100.2787
        XZ      13.4369     YZ      -1.5028     ZZ    -110.0882
    Octopole Moments (Debye-Ang^2)
       XXX      41.1815    XXY      -6.5104    XYY       2.1856
       YYY       3.7079    XXZ      25.2707    XYZ       2.5308
       YYZ      27.0707    XZZ      -2.5748    YZZ       5.6714
       ZZZ      13.6928
    Hexadecapole Moments (Debye-Ang^3)
      XXXX   -2149.6554   XXXY      11.2788   XXYY    -636.0234
      XYYY      36.5696   YYYY   -1720.1945   XXXZ      30.2791
      XXYZ      -1.9936   XYYZ      47.8544   YYYZ     -44.1888
      XXZZ    -494.3810   XYZZ      23.2625   YYZZ    -429.9046
      XZZZ      40.9601   YZZZ     -42.8836   ZZZZ    -678.6298
 -----------------------------------------------------------------
 Calculating analytic gradient of the SCF energy
 Gradient of SCF Energy
            1           2           3           4           5           6
    1   0.0002601  -0.0001956   0.0011895  -0.0010213   0.0000089  -0.0009357
    2   0.0007720   0.0006810  -0.0028753  -0.0019650   0.0000541   0.0019786
    3  -0.0032222   0.0030058   0.0003569   0.0001339   0.0000145   0.0001646
            7           8           9          10          11          12
    1   0.0000162   0.0007206  -0.0000411  -0.0000206   0.0000152  -0.0000069
    2  -0.0000164   0.0013419   0.0000055  -0.0000509   0.0000271   0.0000370
    3  -0.0000059  -0.0004333   0.0000198  -0.0000078  -0.0000601   0.0000260
           13          14          15          16          17          18
    1   0.0000182  -0.0000016  -0.0000204  -0.0000235   0.0000041  -0.0000065
    2  -0.0000102   0.0000057  -0.0000016  -0.0000103  -0.0000155  -0.0000250
    3  -0.0000033  -0.0000495   0.0000551   0.0000025   0.0000062  -0.0000034
           19          20          21          22          23          24
    1   0.0000179  -0.0000040   0.0000265   0.0000064  -0.0000393  -0.0000062
    2  -0.0000031   0.0000285  -0.0000157   0.0000295   0.0000051  -0.0000135
    3  -0.0000099  -0.0000308  -0.0000056   0.0000290   0.0000181   0.0000001
           25          26          27          28          29          30
    1  -0.0000126   0.0000137   0.0000187  -0.0000070   0.0000009  -0.0000290
    2  -0.0000166   0.0000005  -0.0000129  -0.0000247   0.0000338   0.0000137
    3   0.0000024  -0.0000296  -0.0000148  -0.0000017   0.0000290   0.0000194
           31          32          33          34          35
    1  -0.0000126   0.0000143   0.0000272   0.0000197   0.0000057
    2   0.0000108   0.0000264   0.0000052  -0.0000002   0.0000002
    3   0.0000081  -0.0000042   0.0000089  -0.0000103  -0.0000080
 Max gradient component =       3.222E-03
 RMS gradient           =       6.375E-04
 Gradient time:  CPU 400.12 s  wall 27.58 s
 Geometry Optimization Parameters
   NAtoms,    NIC,     NZ,  NCons,   NDum,   NFix, NCnnct, MaxDiis
       35     275       0       0       0       0       0       0


** GEOMETRY OPTIMIZATION IN DELOCALIZED INTERNAL COORDINATES **
   Searching for a Minimum

   Optimization Cycle:   1

                       Coordinates (Angstroms)
     ATOM                X               Y               Z
      1  C        -0.3749376400    0.8052576900   -0.8691306500
      2  C        -0.4305143100   -0.7709190400   -0.8335846100
      3  C         0.9838839000    1.3987087700   -0.5265939200
      4  C         0.9056360600   -1.4866068500   -0.7521931100
      5  O         1.2468510600    1.4347963000    0.7872097100
      6  O         1.7470497600    1.8115348900   -1.3698942900
      7  O         1.5069460000   -1.3773733700    0.4461640900
      8  O         1.3899916400   -2.0851860500   -1.6835157900
      9  C         2.7940296900   -2.0097179300    0.5688344800
     10  C         2.5544371700    1.8996278100    1.1585778500
     11  C        -1.5464971600    1.1473151400    0.1117569700
     12  C        -2.8726757600    0.7189147300   -0.5847921100
     13  C        -2.8770768200   -0.8142435500   -0.3615105000
     14  C        -1.4928936400   -1.0262222900    0.3019563100
     15  O        -1.3879182000    0.1434654800    1.1281200200
     16  H        -0.5820502700    1.1568778800   -1.8788553600
     17  H        -0.8330006200   -1.1175705800   -1.7844763000
     18  H         3.4866663800   -1.6096058800   -0.1729692300
     19  H         2.7206585700    2.9168701600    0.8010288600
     20  H        -3.7201299900    1.1984863600   -0.0921237100
     21  H        -2.8955561000    1.0061011900   -1.6382928600
     22  H        -3.6604354800   -1.1097823800    0.3390983600
     23  H        -3.0033910500   -1.3934994300   -1.2783754400
     24  H         3.1314044800   -1.7803662000    1.5772346800
     25  H         2.7047080600   -3.0883449200    0.4293328600
     26  H         3.3198750600    1.2441414500    0.7394023000
     27  H         2.5744071600    1.8638657400    2.2454944100
     28  C        -1.3507262400   -2.2891580200    1.1207294500
     29  H        -2.1688024100   -2.3567376400    1.8412338900
     30  H        -1.3924036300   -3.1678798300    0.4706922500
     31  H        -0.4054902000   -2.2957692400    1.6615378000
     32  C        -1.5792604300    2.5415526800    0.6999318100
     33  H        -2.4352057600    2.6355419700    1.3719561100
     34  H        -0.6722495000    2.7596270300    1.2605260800
     35  H        -1.6900152000    3.2808699400   -0.0986262300
   Point Group: c1    Number of degrees of freedom:    99


   Energy is   -844.524270264


 Attempting to Generate Delocalized Internal Coordinates

 99 Hessian modes will be used to form the next step
  Hessian Eigenvalues:
     0.002992    0.006293    0.006806    0.007029    0.007383    0.007615
     0.010451    0.010664    0.010806    0.010847    0.022894    0.023140
     0.023536    0.024853    0.034546    0.036210    0.038245    0.039395
     0.043795    0.046209    0.048476    0.050482    0.054172    0.056009
     0.056964    0.057739    0.058539    0.059784    0.060000    0.063005
     0.065043    0.066182    0.079564    0.084444    0.094127    0.101267
     0.101279    0.102337    0.106051    0.106137    0.111095    0.122529
     0.125183    0.153090    0.160000    0.160000    0.160000    0.160000
     0.160000    0.160000    0.160000    0.160000    0.160000    0.160000
     0.160000    0.160000    0.177911    0.230857    0.232376    0.249985
     0.249988    0.250000    0.250000    0.250000    0.250000    0.251932
     0.252633    0.259388    0.273895    0.301927    0.305662    0.309935
     0.311680    0.335993    0.343692    0.343751    0.345496    0.345575
     0.345616    0.345998    0.346149    0.346310    0.346455    0.346653
     0.346660    0.346988    0.347065    0.349052    0.349202    0.349249
     0.350048    0.350689    0.350812    0.396860    0.400581    0.560552
     0.571269    0.999736    1.007074

 Minimum Search - Taking Simple RFO Step
 Searching for Lamda that Minimizes Along All modes
 Value Taken    Lamda =  -0.00096784
 Calculated Step too Large.  Step scaled by  0.904184
 Step Taken.  Stepsize is  0.300000

                             Maximum     Tolerance    Cnvgd?
         Gradient           0.001647      0.000001      NO
         Displacement       0.174621      0.000001      NO
         Energy change     *********      0.000000      NO


 New Cartesian Coordinates Obtained by Inverse Iteration

 Displacement from previous Coordinates is:  0.423073
 Adding empirical dispersion correction 
 ----------------------------------------------------------------
 Doing -D3(op) with
 s6 =   1.00000
 s8 =   0.78311
 a1 =   0.30000
 a2 =   4.25000
 n  =  10.00000
 -D3 energy without 3body term =     -0.0423379788 hartrees
 ----------------------------------------------------------------
             Standard Nuclear Orientation (Angstroms)
    I     Atom           X                Y                Z
 ----------------------------------------------------------------
    1      C      -0.3780859026     0.8121607721    -0.8629038799
    2      C      -0.4290876803    -0.7642358127    -0.8420100282
    3      C       0.9810519920     1.4079425936    -0.5256968387
    4      C       0.9094718317    -1.4751498854    -0.7589243322
    5      O       1.2265008442     1.4927341712     0.7892411976
    6      O       1.7915252302     1.7040622698    -1.3739253172
    7      O       1.5235756951    -1.3366779593     0.4298906324
    8      O       1.3574109835    -2.1427745368    -1.6611062440
    9      C       2.7964783706    -1.9946306979     0.5655358359
   10      C       2.5500300160     1.9101898161     1.1605328107
   11      C      -1.5495513609     1.1479990898     0.1192667570
   12      C      -2.8754593110     0.7211376472    -0.5786898716
   13      C      -2.8750920151    -0.8137339996    -0.3672236017
   14      C      -1.4899948245    -1.0268734877     0.2941039201
   15      O      -1.3875703396     0.1376349249     1.1283099326
   16      H      -0.5856778631     1.1645076018    -1.8722806902
   17      H      -0.8316896361    -1.1094268257    -1.7933865159
   18      H       3.4918013133    -1.6384961691    -0.1959060417
   19      H       2.7722948333     2.8993046963     0.7574379852
   20      H      -3.7234784697     1.1943339597    -0.0808502214
   21      H      -2.9009303467     1.0165561168    -1.6298529658
   22      H      -3.6573944422    -1.1170513685     0.3312380703
   23      H      -2.9998641097    -1.3862804006    -1.2885039439
   24      H       3.1479677573    -1.7366506944     1.5621315517
   25      H       2.6805740371    -3.0751988544     0.4665202882
   26      H       3.2878543416     1.1980191820     0.7867811749
   27      H       2.5518666170     1.9266419151     2.2480959550
   28      C      -1.3450384498    -2.2945842725     1.1049448707
   29      H      -2.1629269205    -2.3685344144     1.8250346590
   30      H      -1.3848569148    -3.1692928144     0.4493883949
   31      H      -0.3997152793    -2.3026039230     1.6455936399
   32      C      -1.5839349994     2.5386663172     0.7157382622
   33      H      -2.4400097382     2.6277450359     1.3882650023
   34      H      -0.6771598284     2.7545766450     1.2775454471
   35      H      -1.6955708512     3.2825553718    -0.0784517153
 ----------------------------------------------------------------
 Nuclear Repulsion Energy =  1410.2044890299 hartrees
 There are       65 alpha and       65 beta electrons
 Applying Cartesian multipole field
    Component          Value
    ---------          -----
     (2,0,0)        1.00000E-11
     (0,2,0)        2.00000E-11
     (0,0,2)       -3.00000E-11
 Nucleus-field energy     =     0.0000000279 hartrees
 Requested basis set is 6-311++G(d,p)
 There are 192 shells and 500 basis functions
 A cutoff of  1.0D-11 yielded  15211 shell pairs
 There are    105016 function pairs (    111985 Cartesian)
 Smallest overlap matrix eigenvalue = 4.77E-07

 Q-Chem warning in module /fs/scratch/osu6415/qchem-kaunlao-vdw/stvman/mkSTV.C, line 281:

 Overlap eigenvalue is smaller than square root of threshold

 Linear dependence detected in AO basis
 Number of orthogonalized atomic orbitals = 499
 Maximum deviation from orthogonality = 1.867E-10
 Guess MOs from SCF MO coefficient file
 Reading MOs from coefficient file
 Reading MOs from coefficient file
 A restricted hybrid HF-DFT SCF calculation will be
 performed using Pulay DIIS extrapolation
 Exchange:     0.2000 Hartree-Fock + 0.0800 Slater + 0.7200 B88
 Correlation:  0.1900 VWN1RPA + 0.8100 LYP
 Using SG-1 standard quadrature grid
 Dispersion:   Grimme D3
 SCF converges when DIIS error is below 1.0E-08
 Geometry optimization detected.  Setting ReadMinima to 0
 Setting SaveMinima to 0
 using 20 threads for integral computing
 -------------------------------------------------------
 OpenMP Integral computing Module                
 Release: version 1.0, May 2013, Q-Chem Inc. Pittsburgh 
 -------------------------------------------------------
 -------------------------------------------------------
 OpenMP BLAS3 based DFT computing Module                
 Release: version 1.0, May 2013, Q-Chem Inc. Pittsburgh 
 -------------------------------------------------------
 ---------------------------------------
  Cycle       Energy         DIIS Error
 ---------------------------------------
    1    -844.5035236570      1.05E-03
    2    -844.5241581996      1.16E-04
    3    -844.5238454867      1.85E-04
    4    -844.5245995640      4.71E-05
    5    -844.5246461780      1.52E-05
    6    -844.5246518035      4.62E-06
    7    -844.5246521884      2.88E-06
    8    -844.5246523583      9.24E-07
    9    -844.5246523790      1.52E-07
   10    -844.5246523798      7.18E-08
   11    -844.5246523805      2.05E-08
   12    -844.5246523770      5.98E-09 Convergence criterion met
 ---------------------------------------
 SCF time:  CPU 991.40 s  wall 54.21 s
 SCF   energy in the final basis set = -844.52465238
 Total energy in the final basis set = -844.52465238
 
 --------------------------------------------------------------
 
                    Orbital Energies (a.u.)
 --------------------------------------------------------------
 
 Alpha MOs
 -- Occupied --
-19.176 -19.172 -19.128 -19.117 -19.116 -10.308 -10.306 -10.243
-10.242 -10.232 -10.230 -10.206 -10.205 -10.179 -10.178 -10.168
-10.167  -1.120  -1.115  -1.062  -1.029  -1.026  -0.831  -0.807
 -0.784  -0.746  -0.731  -0.727  -0.677  -0.645  -0.604  -0.582
 -0.570  -0.568  -0.514  -0.513  -0.509  -0.496  -0.487  -0.482
 -0.477  -0.470  -0.461  -0.442  -0.431  -0.427  -0.424  -0.414
 -0.406  -0.401  -0.396  -0.375  -0.373  -0.368  -0.359  -0.358
 -0.354  -0.350  -0.332  -0.330  -0.319  -0.309  -0.291  -0.277
 -0.271
 -- Virtual --
 -0.015  -0.014  -0.008  -0.006   0.000   0.008   0.013   0.016
  0.025   0.031   0.033   0.039   0.040   0.045   0.048   0.050
  0.061   0.064   0.064   0.069   0.076   0.080   0.086   0.092
  0.093   0.098   0.101   0.104   0.107   0.110   0.111   0.117
  0.118   0.120   0.124   0.126   0.128   0.133   0.136   0.138
  0.142   0.146   0.150   0.151   0.154   0.155   0.157   0.159
  0.162   0.164   0.165   0.168   0.172   0.176   0.179   0.182
  0.184   0.187   0.190   0.194   0.197   0.200   0.202   0.205
  0.206   0.212   0.213   0.217   0.219   0.224   0.227   0.235
  0.239   0.245   0.247   0.253   0.262   0.263   0.266   0.271
  0.276   0.285   0.293   0.299   0.303   0.305   0.309   0.312
  0.315   0.317   0.325   0.328   0.334   0.338   0.339   0.340
  0.348   0.353   0.356   0.359   0.362   0.365   0.368   0.376
  0.377   0.379   0.389   0.393   0.397   0.405   0.411   0.414
  0.420   0.431   0.440   0.443   0.446   0.461   0.466   0.474
  0.491   0.496   0.508   0.511   0.516   0.523   0.529   0.536
  0.543   0.555   0.571   0.576   0.578   0.590   0.593   0.600
  0.606   0.616   0.619   0.634   0.638   0.643   0.651   0.657
  0.657   0.664   0.668   0.676   0.689   0.695   0.701   0.703
  0.709   0.719   0.722   0.724   0.727   0.732   0.742   0.745
  0.755   0.768   0.772   0.782   0.788   0.793   0.800   0.810
  0.819   0.829   0.834   0.839   0.855   0.863   0.880   0.916
  0.936   0.957   0.966   0.988   1.004   1.019   1.026   1.037
  1.045   1.087   1.092   1.104   1.122   1.131   1.146   1.161
  1.173   1.181   1.189   1.211   1.217   1.235   1.239   1.251
  1.256   1.270   1.272   1.276   1.288   1.305   1.308   1.315
  1.329   1.365   1.369   1.385   1.391   1.412   1.426   1.440
  1.449   1.458   1.470   1.477   1.491   1.493   1.504   1.507
  1.520   1.527   1.539   1.553   1.554   1.561   1.575   1.578
  1.584   1.588   1.601   1.602   1.612   1.626   1.632   1.643
  1.648   1.665   1.670   1.693   1.699   1.700   1.712   1.718
  1.722   1.729   1.739   1.747   1.749   1.755   1.768   1.783
  1.787   1.804   1.815   1.822   1.827   1.844   1.846   1.866
  1.876   1.896   1.898   1.935   1.940   1.954   1.981   1.990
  2.000   2.010   2.016   2.022   2.035   2.046   2.058   2.073
  2.085   2.094   2.118   2.129   2.133   2.150   2.169   2.180
  2.183   2.199   2.215   2.222   2.240   2.245   2.257   2.296
  2.307   2.380   2.385   2.407   2.423   2.453   2.465   2.471
  2.475   2.490   2.495   2.502   2.503   2.518   2.531   2.532
  2.553   2.556   2.569   2.576   2.592   2.597   2.604   2.608
  2.624   2.642   2.661   2.669   2.675   2.685   2.695   2.704
  2.739   2.744   2.772   2.783   2.799   2.816   2.832   2.849
  2.861   2.872   2.883   2.887   2.901   2.916   2.948   2.961
  2.999   3.009   3.022   3.035   3.047   3.054   3.063   3.071
  3.082   3.098   3.109   3.116   3.130   3.167   3.178   3.186
  3.200   3.226   3.234   3.257   3.269   3.309   3.333   3.361
  3.368   3.388   3.391   3.399   3.540   3.601   3.617   3.655
  3.679   3.700   3.759   3.781   3.785   3.819   3.825   3.831
  3.841   3.851   3.868   3.958   3.977   4.045   4.083   4.091
  4.130   4.148   4.171   4.183   4.185   4.211   4.290   4.309
  4.450   4.498   5.032   5.125   5.154   5.173   5.231   5.259
  5.261   5.428   5.452   5.531   5.631   5.652   5.698   5.885
  5.899  23.762  23.842  23.859  23.890  23.894  23.939  23.942
 23.951  23.956  23.986  23.989  24.043  49.923  49.941  50.015
 50.044  50.062
 --------------------------------------------------------------
 
          Ground-State Mulliken Net Atomic Charges

     Atom                 Charge (a.u.)
  ----------------------------------------
      1 C                     0.500639
      2 C                     0.631288
      3 C                    -1.058781
      4 C                    -0.646695
      5 O                     0.027213
      6 O                    -0.147470
      7 O                    -0.051362
      8 O                    -0.159769
      9 C                    -0.280677
     10 C                    -0.232157
     11 C                    -0.377040
     12 C                    -0.243542
     13 C                    -0.644333
     14 C                    -0.558549
     15 O                     0.040982
     16 H                     0.282719
     17 H                     0.293789
     18 H                     0.205245
     19 H                     0.185979
     20 H                     0.167255
     21 H                     0.142103
     22 H                     0.169301
     23 H                     0.138146
     24 H                     0.157821
     25 H                     0.178974
     26 H                     0.182441
     27 H                     0.165559
     28 C                    -0.002711
     29 H                     0.168367
     30 H                     0.165459
     31 H                     0.168412
     32 C                    -0.055569
     33 H                     0.161411
     34 H                     0.164073
     35 H                     0.161483
  ----------------------------------------
  Sum of atomic charges =    -0.000000

 -----------------------------------------------------------------
                    Cartesian Multipole Moments
 -----------------------------------------------------------------
    Charge (ESU x 10^10)
                -0.0000
    Dipole Moment (Debye)
         X      -1.1795      Y       0.2451      Z       2.4050
       Tot       2.6899
    Quadrupole Moments (Debye-Ang)
        XX     -92.9964     XY      -0.8691     YY    -100.1472
        XZ      13.4020     YZ      -2.0194     ZZ    -109.9039
    Octopole Moments (Debye-Ang^2)
       XXX      40.6851    XXY      -6.5403    XYY       3.0358
       YYY       7.4974    XXZ      25.3846    XYZ       2.2762
       YYZ      26.5311    XZZ      -2.3209    YZZ       6.2991
       ZZZ      13.2425
    Hexadecapole Moments (Debye-Ang^3)
      XXXX   -2153.6969   XXXY      11.6358   XXYY    -634.2186
      XYYY      43.8677   YYYY   -1718.8668   XXXZ      31.0212
      XXYZ      -3.6640   XYYZ      46.4460   YYYZ     -58.7829
      XXZZ    -494.0988   XYZZ      23.5599   YYZZ    -427.7065
      XZZZ      40.4333   YZZZ     -49.3592   ZZZZ    -674.9883
 -----------------------------------------------------------------
 Calculating analytic gradient of the SCF energy
 Gradient of SCF Energy
            1           2           3           4           5           6
    1   0.0026477  -0.0026862  -0.0037299   0.0029664   0.0006906   0.0009540
    2  -0.0035769  -0.0024631   0.0085572   0.0051469  -0.0028488  -0.0016256
    3  -0.0019542   0.0025434  -0.0002401  -0.0018422  -0.0000131   0.0002971
            7           8           9          10          11          12
    1  -0.0008365  -0.0005572  -0.0001391  -0.0000422  -0.0001583   0.0000872
    2  -0.0024368  -0.0010247   0.0000177  -0.0000515   0.0002116  -0.0000540
    3   0.0004317   0.0003026   0.0000931  -0.0000119   0.0010316  -0.0001949
           13          14          15          16          17          18
    1  -0.0000411   0.0002224  -0.0002243   0.0005460  -0.0003404  -0.0000417
    2  -0.0001097   0.0002856   0.0007522  -0.0003799  -0.0003854  -0.0000464
    3   0.0001664  -0.0006925  -0.0000818   0.0002252  -0.0000486  -0.0000532
           19          20          21          22          23          24
    1  -0.0000349   0.0000496   0.0000002  -0.0000340  -0.0000077  -0.0000198
    2   0.0000016   0.0000687   0.0000047   0.0000482   0.0000297   0.0000173
    3  -0.0000646  -0.0000130  -0.0000067   0.0000192   0.0000012  -0.0000198
           25          26          27          28          29          30
    1   0.0000785   0.0001666   0.0000248  -0.0000438  -0.0000972  -0.0000617
    2  -0.0000391   0.0000450  -0.0000437   0.0000838  -0.0000233  -0.0000329
    3   0.0000140   0.0000647  -0.0000182   0.0002846  -0.0000174  -0.0000054
           31          32          33          34          35
    1  -0.0001834   0.0001948   0.0001669   0.0004056   0.0000780
    2  -0.0000218  -0.0000990  -0.0000204   0.0000228  -0.0000104
    3  -0.0000704  -0.0003984   0.0000858   0.0001290   0.0000569
 Max gradient component =       8.557E-03
 RMS gradient           =       1.358E-03
 Gradient time:  CPU 403.15 s  wall 27.00 s
 Geometry Optimization Parameters
   NAtoms,    NIC,     NZ,  NCons,   NDum,   NFix, NCnnct, MaxDiis
       35     275       0       0       0       0       0       0

 Cartesian Hessian Update
 Hessian Updated using BFGS Update


** GEOMETRY OPTIMIZATION IN DELOCALIZED INTERNAL COORDINATES **
   Searching for a Minimum

   Optimization Cycle:   2

                       Coordinates (Angstroms)
     ATOM                X               Y               Z
      1  C        -0.3780859026    0.8121607721   -0.8629038799
      2  C        -0.4290876803   -0.7642358127   -0.8420100282
      3  C         0.9810519920    1.4079425936   -0.5256968387
      4  C         0.9094718317   -1.4751498854   -0.7589243322
      5  O         1.2265008442    1.4927341712    0.7892411976
      6  O         1.7915252302    1.7040622698   -1.3739253172
      7  O         1.5235756951   -1.3366779593    0.4298906324
      8  O         1.3574109835   -2.1427745368   -1.6611062440
      9  C         2.7964783706   -1.9946306979    0.5655358359
     10  C         2.5500300160    1.9101898161    1.1605328107
     11  C        -1.5495513609    1.1479990898    0.1192667570
     12  C        -2.8754593110    0.7211376472   -0.5786898716
     13  C        -2.8750920151   -0.8137339996   -0.3672236017
     14  C        -1.4899948245   -1.0268734877    0.2941039201
     15  O        -1.3875703396    0.1376349249    1.1283099326
     16  H        -0.5856778631    1.1645076018   -1.8722806902
     17  H        -0.8316896361   -1.1094268257   -1.7933865159
     18  H         3.4918013133   -1.6384961691   -0.1959060417
     19  H         2.7722948333    2.8993046963    0.7574379852
     20  H        -3.7234784697    1.1943339597   -0.0808502214
     21  H        -2.9009303467    1.0165561168   -1.6298529658
     22  H        -3.6573944422   -1.1170513685    0.3312380703
     23  H        -2.9998641097   -1.3862804006   -1.2885039439
     24  H         3.1479677573   -1.7366506944    1.5621315517
     25  H         2.6805740371   -3.0751988544    0.4665202882
     26  H         3.2878543416    1.1980191820    0.7867811749
     27  H         2.5518666170    1.9266419151    2.2480959550
     28  C        -1.3450384498   -2.2945842725    1.1049448707
     29  H        -2.1629269205   -2.3685344144    1.8250346590
     30  H        -1.3848569148   -3.1692928144    0.4493883949
     31  H        -0.3997152793   -2.3026039230    1.6455936399
     32  C        -1.5839349994    2.5386663172    0.7157382622
     33  H        -2.4400097382    2.6277450359    1.3882650023
     34  H        -0.6771598284    2.7545766450    1.2775454471
     35  H        -1.6955708512    3.2825553718   -0.0784517153
   Point Group: c1    Number of degrees of freedom:    99


   Energy is   -844.524652377

 Hessian Updated using BFGS Update

 87 Hessian modes will be used to form the next step
  Hessian Eigenvalues:
     0.002059    0.002998    0.006630    0.007029    0.007383    0.007615
     0.010451    0.010775    0.010806    0.022894    0.023018    0.023510
     0.024604    0.034042    0.034613    0.037971    0.038398    0.039753
     0.043837    0.045511    0.049441    0.051258    0.055008    0.056222
     0.056935    0.057741    0.058539    0.059798    0.060051    0.064205
     0.065499    0.066542    0.080643    0.084518    0.094635    0.101267
     0.101279    0.106049    0.106135    0.109139    0.114418    0.122991
     0.130198    0.155815    0.160000    0.160466    0.180574    0.230880
     0.233358    0.249984    0.249989    0.249999    0.251929    0.252394
     0.255333    0.259482    0.273898    0.301971    0.305929    0.309982
     0.311685    0.338468    0.343698    0.343756    0.345502    0.345578
     0.345616    0.345998    0.346150    0.346361    0.346459    0.346653
     0.346661    0.346988    0.347065    0.349085    0.349241    0.349524
     0.350480    0.350690    0.350812    0.396863    0.400592    0.560632
     0.571271    0.999739    1.007105

 Minimum Search - Taking Simple RFO Step
 Searching for Lamda that Minimizes Along All modes
 Value Taken    Lamda =  -0.00144674
 Calculated Step too Large.  Step scaled by  0.569655
 Step Taken.  Stepsize is  0.300000

                             Maximum     Tolerance    Cnvgd?
         Gradient           0.003243      0.000001      NO
         Displacement       0.140369      0.000001      NO
         Energy change     -0.000382      0.000000      NO


 New Cartesian Coordinates Obtained by Inverse Iteration

 Displacement from previous Coordinates is:  0.660139
 Adding empirical dispersion correction 
 ----------------------------------------------------------------
 Doing -D3(op) with
 s6 =   1.00000
 s8 =   0.78311
 a1 =   0.30000
 a2 =   4.25000
 n  =  10.00000
 -D3 energy without 3body term =     -0.0424079475 hartrees
 ----------------------------------------------------------------
             Standard Nuclear Orientation (Angstroms)
    I     Atom           X                Y                Z
 ----------------------------------------------------------------
    1      C      -0.3704268187     0.7979830649    -0.8499988872
    2      C      -0.4377991089    -0.7772204503    -0.8487170510
    3      C       1.0010194738     1.3656571529    -0.5135483182
    4      C       0.8921788336    -1.5026132051    -0.7594243313
    5      O       1.2089839277     1.5507385258     0.7975497639
    6      O       1.8454813307     1.5687232957    -1.3559968669
    7      O       1.5450524986    -1.2937693761     0.3981575118
    8      O       1.3091608117    -2.2247995667    -1.6339826819
    9      C       2.8170173189    -1.9533411847     0.5354469710
   10      C       2.5356998933     1.9497754637     1.1775953754
   11      C      -1.5415693572     1.1401609143     0.1295337260
   12      C      -2.8698688110     0.7299482201    -0.5742399763
   13      C      -2.8837070400    -0.8064276718    -0.3748915373
   14      C      -1.5015309854    -1.0367189562     0.2864188003
   15      O      -1.3901699588     0.1200576668     1.1304160067
   16      H      -0.5698841242     1.1572161882    -1.8588683435
   17      H      -0.8426566927    -1.1138899717    -1.8019954555
   18      H       3.4906702130    -1.6519227788    -0.2679356706
   19      H       2.8093204594     2.8921854044     0.7009493788
   20      H      -3.7146633939     1.2063449540    -0.0739472471
   21      H      -2.8911490242     1.0340114415    -1.6230241840
   22      H      -3.6696765917    -1.1084540052     0.3199880826
   23      H      -3.0119231018    -1.3706280276    -1.3008393352
   24      H       3.2014831901    -1.6367150840     1.5025370867
   25      H       2.6900745066    -3.0368449120     0.5082625149
   26      H       3.2556272928     1.1815307113     0.8900096992
   27      H       2.5045680266     2.0584842683     2.2593946867
   28      C      -1.3675771169    -2.3118160682     1.0874031831
   29      H      -2.1862136377    -2.3845967597     1.8067151267
   30      H      -1.4141597504    -3.1810523666     0.4250817082
   31      H      -0.4224252087    -2.3317405649     1.6282821937
   32      C      -1.5674787093     2.5269249010     0.7357474241
   33      H      -2.4267441488     2.6184402221     1.4039263684
   34      H      -0.6623694213     2.7318787745     1.3038508196
   35      H      -1.6690301952     3.2770617903    -0.0539723618
 ----------------------------------------------------------------
 Nuclear Repulsion Energy =  1410.8522242812 hartrees
 There are       65 alpha and       65 beta electrons
 Applying Cartesian multipole field
    Component          Value
    ---------          -----
     (2,0,0)        1.00000E-11
     (0,2,0)        2.00000E-11
     (0,0,2)       -3.00000E-11
 Nucleus-field energy     =     0.0000000280 hartrees
 Requested basis set is 6-311++G(d,p)
 There are 192 shells and 500 basis functions
 A cutoff of  1.0D-11 yielded  15225 shell pairs
 There are    105204 function pairs (    112200 Cartesian)
 Smallest overlap matrix eigenvalue = 4.82E-07

 Q-Chem warning in module /fs/scratch/osu6415/qchem-kaunlao-vdw/stvman/mkSTV.C, line 281:

 Overlap eigenvalue is smaller than square root of threshold

 Linear dependence detected in AO basis
 Number of orthogonalized atomic orbitals = 499
 Maximum deviation from orthogonality = 2.086E-10
 Guess MOs from SCF MO coefficient file
 Reading MOs from coefficient file
 Reading MOs from coefficient file
 A restricted hybrid HF-DFT SCF calculation will be
 performed using Pulay DIIS extrapolation
 Exchange:     0.2000 Hartree-Fock + 0.0800 Slater + 0.7200 B88
 Correlation:  0.1900 VWN1RPA + 0.8100 LYP
 Using SG-1 standard quadrature grid
 Dispersion:   Grimme D3
 SCF converges when DIIS error is below 1.0E-08
 Geometry optimization detected.  Setting ReadMinima to 0
 Setting SaveMinima to 0
 using 20 threads for integral computing
 -------------------------------------------------------
 OpenMP Integral computing Module                
 Release: version 1.0, May 2013, Q-Chem Inc. Pittsburgh 
 -------------------------------------------------------
 -------------------------------------------------------
 OpenMP BLAS3 based DFT computing Module                
 Release: version 1.0, May 2013, Q-Chem Inc. Pittsburgh 
 -------------------------------------------------------
 ---------------------------------------
  Cycle       Energy         DIIS Error
 ---------------------------------------
    1    -844.5092981845      1.14E-03
    2    -844.5248983548      1.01E-04
    3    -844.5248188963      1.41E-04
    4    -844.5252653787      4.30E-05
    5    -844.5253001751      1.68E-05
    6    -844.5253068338      5.44E-06
    7    -844.5253074691      2.24E-06
    8    -844.5253075694      7.70E-07
    9    -844.5253075823      2.06E-07
   10    -844.5253075836      8.84E-08
   11    -844.5253075835      2.55E-08
   12    -844.5253075840      6.14E-09 Convergence criterion met
 ---------------------------------------
 SCF time:  CPU 1003.64 s  wall 52.46 s
 SCF   energy in the final basis set = -844.52530758
 Total energy in the final basis set = -844.52530758
 
 --------------------------------------------------------------
 
                    Orbital Energies (a.u.)
 --------------------------------------------------------------
 
 Alpha MOs
 -- Occupied --
-19.176 -19.172 -19.128 -19.117 -19.115 -10.307 -10.306 -10.244
-10.242 -10.231 -10.230 -10.205 -10.205 -10.179 -10.178 -10.169
-10.166  -1.120  -1.114  -1.062  -1.028  -1.026  -0.831  -0.807
 -0.784  -0.746  -0.730  -0.727  -0.677  -0.645  -0.604  -0.582
 -0.570  -0.569  -0.514  -0.513  -0.509  -0.496  -0.487  -0.482
 -0.477  -0.469  -0.461  -0.443  -0.431  -0.426  -0.424  -0.414
 -0.406  -0.401  -0.396  -0.375  -0.373  -0.368  -0.360  -0.358
 -0.354  -0.349  -0.332  -0.330  -0.318  -0.310  -0.291  -0.277
 -0.271
 -- Virtual --
 -0.016  -0.014  -0.008  -0.003  -0.000   0.008   0.013   0.016
  0.025   0.030   0.033   0.039   0.041   0.045   0.049   0.050
  0.061   0.064   0.065   0.069   0.076   0.080   0.086   0.092
  0.093   0.098   0.102   0.104   0.107   0.110   0.111   0.116
  0.119   0.121   0.125   0.126   0.128   0.133   0.136   0.139
  0.141   0.147   0.149   0.152   0.154   0.155   0.158   0.159
  0.162   0.164   0.166   0.167   0.171   0.176   0.179   0.182
  0.184   0.187   0.190   0.193   0.198   0.200   0.202   0.205
  0.206   0.212   0.213   0.217   0.219   0.224   0.228   0.235
  0.239   0.245   0.247   0.253   0.262   0.265   0.267   0.270
  0.275   0.284   0.294   0.300   0.303   0.305   0.309   0.312
  0.313   0.318   0.323   0.329   0.334   0.338   0.339   0.341
  0.346   0.352   0.357   0.359   0.363   0.364   0.369   0.374
  0.377   0.379   0.390   0.392   0.400   0.405   0.411   0.415
  0.422   0.429   0.437   0.443   0.447   0.460   0.466   0.473
  0.486   0.494   0.510   0.511   0.516   0.523   0.527   0.537
  0.542   0.556   0.573   0.577   0.578   0.592   0.594   0.601
  0.607   0.617   0.619   0.637   0.639   0.643   0.647   0.655
  0.658   0.664   0.668   0.676   0.691   0.695   0.699   0.704
  0.708   0.718   0.723   0.726   0.729   0.732   0.743   0.745
  0.753   0.767   0.773   0.781   0.787   0.790   0.797   0.810
  0.820   0.827   0.835   0.841   0.854   0.862   0.876   0.915
  0.940   0.956   0.963   0.992   1.004   1.018   1.021   1.038
  1.045   1.082   1.085   1.101   1.124   1.131   1.153   1.161
  1.171   1.182   1.190   1.211   1.220   1.235   1.238   1.252
  1.257   1.269   1.274   1.281   1.293   1.309   1.311   1.319
  1.338   1.363   1.371   1.387   1.392   1.407   1.424   1.441
  1.444   1.455   1.470   1.476   1.489   1.491   1.502   1.507
  1.519   1.528   1.537   1.553   1.556   1.564   1.571   1.579
  1.582   1.589   1.601   1.606   1.611   1.626   1.632   1.642
  1.649   1.665   1.672   1.692   1.697   1.700   1.713   1.716
  1.720   1.730   1.736   1.748   1.750   1.755   1.767   1.786
  1.791   1.803   1.818   1.823   1.830   1.844   1.846   1.867
  1.875   1.898   1.901   1.931   1.942   1.951   1.981   1.988
  2.002   2.012   2.015   2.026   2.034   2.047   2.063   2.076
  2.085   2.093   2.117   2.125   2.134   2.150   2.172   2.180
  2.183   2.198   2.217   2.220   2.243   2.250   2.257   2.296
  2.307   2.381   2.383   2.406   2.424   2.451   2.464   2.471
  2.474   2.491   2.500   2.501   2.504   2.519   2.531   2.533
  2.548   2.557   2.569   2.576   2.592   2.595   2.604   2.608
  2.623   2.642   2.661   2.673   2.675   2.685   2.700   2.703
  2.740   2.744   2.776   2.781   2.799   2.816   2.833   2.845
  2.863   2.873   2.883   2.889   2.903   2.915   2.947   2.963
  3.001   3.010   3.022   3.038   3.044   3.050   3.060   3.073
  3.082   3.100   3.109   3.114   3.128   3.168   3.177   3.185
  3.200   3.227   3.233   3.261   3.273   3.309   3.334   3.362
  3.370   3.385   3.389   3.404   3.541   3.602   3.619   3.658
  3.677   3.707   3.747   3.780   3.786   3.818   3.826   3.831
  3.841   3.852   3.869   3.958   3.977   4.050   4.074   4.087
  4.133   4.151   4.173   4.180   4.189   4.212   4.291   4.309
  4.451   4.499   5.042   5.121   5.146   5.178   5.237   5.255
  5.260   5.435   5.446   5.532   5.631   5.655   5.696   5.884
  5.899  23.763  23.843  23.858  23.887  23.896  23.938  23.942
 23.950  23.955  23.986  23.990  24.043  49.924  49.942  50.013
 50.045  50.057
 --------------------------------------------------------------
 
          Ground-State Mulliken Net Atomic Charges

     Atom                 Charge (a.u.)
  ----------------------------------------
      1 C                     0.493100
      2 C                     0.621027
      3 C                    -1.095601
      4 C                    -0.628773
      5 O                     0.025675
      6 O                    -0.148303
      7 O                    -0.057802
      8 O                    -0.162392
      9 C                    -0.268163
     10 C                    -0.224895
     11 C                    -0.360240
     12 C                    -0.227755
     13 C                    -0.640093
     14 C                    -0.545832
     15 O                     0.041613
     16 H                     0.280426
     17 H                     0.294308
     18 H                     0.207727
     19 H                     0.185557
     20 H                     0.167672
     21 H                     0.141898
     22 H                     0.169248
     23 H                     0.138378
     24 H                     0.154395
     25 H                     0.179133
     26 H                     0.181538
     27 H                     0.163908
     28 C                     0.003377
     29 H                     0.171719
     30 H                     0.166304
     31 H                     0.163341
     32 C                    -0.078885
     33 H                     0.158788
     34 H                     0.166926
     35 H                     0.162673
  ----------------------------------------
  Sum of atomic charges =    -0.000000

 -----------------------------------------------------------------
                    Cartesian Multipole Moments
 -----------------------------------------------------------------
    Charge (ESU x 10^10)
                -0.0000
    Dipole Moment (Debye)
         X      -1.1583      Y       0.4980      Z       2.3348
       Tot       2.6535
    Quadrupole Moments (Debye-Ang)
        XX     -93.1117     XY      -0.3441     YY    -100.1737
        XZ      13.2416     YZ      -2.5243     ZZ    -109.5644
    Octopole Moments (Debye-Ang^2)
       XXX      40.3782    XXY      -5.8330    XYY       4.0402
       YYY      14.1358    XXZ      25.0401    XYZ       2.1745
       YYZ      26.0430    XZZ      -1.7015    YZZ       8.3772
       ZZZ      11.7134
    Hexadecapole Moments (Debye-Ang^3)
      XXXX   -2161.5773   XXXY       5.9914   XXYY    -632.5786
      XYYY      47.6399   YYYY   -1723.0117   XXXZ      31.9073
      XXYZ      -7.0054   XYYZ      44.6125   YYYZ     -80.6807
      XXZZ    -493.6742   XYZZ      23.1025   YYZZ    -424.3957
      XZZZ      38.9787   YZZZ     -62.1385   ZZZZ    -667.6867
 -----------------------------------------------------------------
 Calculating analytic gradient of the SCF energy
 Gradient of SCF Energy
            1           2           3           4           5           6
    1   0.0025248  -0.0030011  -0.0031811   0.0022833  -0.0004404   0.0010447
    2  -0.0038213  -0.0025947   0.0071514   0.0037876  -0.0018659  -0.0011755
    3  -0.0001910   0.0010971  -0.0013747  -0.0005717   0.0003992   0.0003231
            7           8           9          10          11          12
    1   0.0000532  -0.0000398  -0.0002642  -0.0001281  -0.0007912   0.0000009
    2  -0.0017297  -0.0004192   0.0000694  -0.0000272   0.0001201   0.0000359
    3  -0.0000870  -0.0003618   0.0001658   0.0000630   0.0013403  -0.0001878
           13          14          15          16          17          18
    1  -0.0000516   0.0008992  -0.0004950   0.0007350  -0.0004188   0.0000770
    2  -0.0000831   0.0007295   0.0012828  -0.0007186  -0.0004177  -0.0001730
    3   0.0000758  -0.0006123  -0.0002177   0.0002731  -0.0001392  -0.0000667
           19          20          21          22          23          24
    1   0.0000342  -0.0000002  -0.0000239   0.0000134   0.0000231   0.0000147
    2   0.0000058   0.0000342   0.0000482   0.0000109   0.0000366   0.0001504
    3  -0.0000548   0.0000123   0.0000176   0.0000180  -0.0000255  -0.0000706
           25          26          27          28          29          30
    1   0.0000672   0.0001388  -0.0000307  -0.0001215  -0.0002418  -0.0000918
    2  -0.0000794  -0.0000228   0.0000095   0.0000523  -0.0000262  -0.0000814
    3  -0.0000760   0.0001839  -0.0000495   0.0007207  -0.0001484  -0.0000452
           31          32          33          34          35
    1  -0.0005085   0.0005111   0.0003624   0.0009331   0.0001138
    2   0.0000005  -0.0003355   0.0000424   0.0000238  -0.0000201
    3  -0.0002253  -0.0008942   0.0002243   0.0003861   0.0000991
 Max gradient component =       7.151E-03
 RMS gradient           =       1.163E-03
 Gradient time:  CPU 401.36 s  wall 27.10 s
 Geometry Optimization Parameters
   NAtoms,    NIC,     NZ,  NCons,   NDum,   NFix, NCnnct, MaxDiis
       35     275       0       0       0       0       0       0

 Cartesian Hessian Update
 Hessian Updated using BFGS Update


** GEOMETRY OPTIMIZATION IN DELOCALIZED INTERNAL COORDINATES **
   Searching for a Minimum

   Optimization Cycle:   3

                       Coordinates (Angstroms)
     ATOM                X               Y               Z
      1  C        -0.3704268187    0.7979830649   -0.8499988872
      2  C        -0.4377991089   -0.7772204503   -0.8487170510
      3  C         1.0010194738    1.3656571529   -0.5135483182
      4  C         0.8921788336   -1.5026132051   -0.7594243313
      5  O         1.2089839277    1.5507385258    0.7975497639
      6  O         1.8454813307    1.5687232957   -1.3559968669
      7  O         1.5450524986   -1.2937693761    0.3981575118
      8  O         1.3091608117   -2.2247995667   -1.6339826819
      9  C         2.8170173189   -1.9533411847    0.5354469710
     10  C         2.5356998933    1.9497754637    1.1775953754
     11  C        -1.5415693572    1.1401609143    0.1295337260
     12  C        -2.8698688110    0.7299482201   -0.5742399763
     13  C        -2.8837070400   -0.8064276718   -0.3748915373
     14  C        -1.5015309854   -1.0367189562    0.2864188003
     15  O        -1.3901699588    0.1200576668    1.1304160067
     16  H        -0.5698841242    1.1572161882   -1.8588683435
     17  H        -0.8426566927   -1.1138899717   -1.8019954555
     18  H         3.4906702130   -1.6519227788   -0.2679356706
     19  H         2.8093204594    2.8921854044    0.7009493788
     20  H        -3.7146633939    1.2063449540   -0.0739472471
     21  H        -2.8911490242    1.0340114415   -1.6230241840
     22  H        -3.6696765917   -1.1084540052    0.3199880826
     23  H        -3.0119231018   -1.3706280276   -1.3008393352
     24  H         3.2014831901   -1.6367150840    1.5025370867
     25  H         2.6900745066   -3.0368449120    0.5082625149
     26  H         3.2556272928    1.1815307113    0.8900096992
     27  H         2.5045680266    2.0584842683    2.2593946867
     28  C        -1.3675771169   -2.3118160682    1.0874031831
     29  H        -2.1862136377   -2.3845967597    1.8067151267
     30  H        -1.4141597504   -3.1810523666    0.4250817082
     31  H        -0.4224252087   -2.3317405649    1.6282821937
     32  C        -1.5674787093    2.5269249010    0.7357474241
     33  H        -2.4267441488    2.6184402221    1.4039263684
     34  H        -0.6623694213    2.7318787745    1.3038508196
     35  H        -1.6690301952    3.2770617903   -0.0539723618
   Point Group: c1    Number of degrees of freedom:    99


   Energy is   -844.525307584

 Hessian Updated using BFGS Update

 89 Hessian modes will be used to form the next step
  Hessian Eigenvalues:
     0.001642    0.003064    0.006774    0.007123    0.007434    0.007649
     0.010466    0.010801    0.011216    0.022895    0.023137    0.023503
     0.024954    0.032563    0.035855    0.038197    0.039183    0.041166
     0.043789    0.045721    0.049520    0.051160    0.054402    0.056044
     0.056949    0.057740    0.058540    0.059802    0.060063    0.064671
     0.065951    0.067664    0.083187    0.085381    0.094724    0.101269
     0.101299    0.106031    0.106130    0.108657    0.111472    0.122602
     0.131338    0.153249    0.159995    0.160018    0.160697    0.177666
     0.232445    0.234038    0.249983    0.249992    0.249998    0.250052
     0.251900    0.252614    0.259397    0.273889    0.277699    0.303486
     0.308753    0.310830    0.311766    0.339546    0.343699    0.343782
     0.345507    0.345576    0.345617    0.345999    0.346150    0.346455
     0.346552    0.346655    0.346691    0.346989    0.347081    0.349066
     0.349218    0.349492    0.350689    0.350811    0.353625    0.396857
     0.400594    0.560622    0.571581    0.999947    1.007500

 Minimum Search - Taking Simple RFO Step
 Searching for Lamda that Minimizes Along All modes
 Value Taken    Lamda =  -0.00187998
 Calculated Step too Large.  Step scaled by  0.531714
 Step Taken.  Stepsize is  0.300000

                             Maximum     Tolerance    Cnvgd?
         Gradient           0.005277      0.000001      NO
         Displacement       0.140466      0.000001      NO
         Energy change     -0.000655      0.000000      NO


 New Cartesian Coordinates Obtained by Inverse Iteration

 Displacement from previous Coordinates is:  0.587404
 Adding empirical dispersion correction 
 ----------------------------------------------------------------
 Doing -D3(op) with
 s6 =   1.00000
 s8 =   0.78311
 a1 =   0.30000
 a2 =   4.25000
 n  =  10.00000
 -D3 energy without 3body term =     -0.0425527384 hartrees
 ----------------------------------------------------------------
             Standard Nuclear Orientation (Angstroms)
    I     Atom           X                Y                Z
 ----------------------------------------------------------------
    1      C      -0.3662383643     0.8018353373    -0.8294464870
    2      C      -0.4453210697    -0.7718924899    -0.8588525329
    3      C       1.0261638491     1.3229321917    -0.4981151554
    4      C       0.8721558098    -1.5141549471    -0.7513218586
    5      O       1.2294132960     1.5867318978     0.7999686508
    6      O       1.8829257067     1.4524452061    -1.3425190326
    7      O       1.5491357961    -1.2378013942     0.3783115695
    8      O       1.2597586699    -2.3000286859    -1.5831878082
    9      C       2.8146153211    -1.9052337993     0.5371739208
   10      C       2.5682473025     1.9593954081     1.1639670499
   11      C      -1.5441875388     1.1371491554     0.1443192659
   12      C      -2.8678629235     0.7338972900    -0.5739403587
   13      C      -2.8904742582    -0.8034105242    -0.3865295971
   14      C      -1.5102404411    -1.0420847393     0.2733254210
   15      O      -1.3982508078     0.1031852759     1.1327260045
   16      H      -0.5585324111     1.1764263367    -1.8349785538
   17      H      -0.8466856591    -1.0974652394    -1.8168617264
   18      H       3.4797210653    -1.6612980253    -0.2923106935
   19      H       2.8791115726     2.8595815427     0.6318833627
   20      H      -3.7150976411     1.2089857875    -0.0765696698
   21      H      -2.8805609653     1.0460663498    -1.6204851938
   22      H      -3.6788167108    -1.1077686189     0.3046449736
   23      H      -3.0188816686    -1.3598406705    -1.3171245654
   24      H       3.2174616483    -1.5370626377     1.4782060480
   25      H       2.6727481563    -2.9863992785     0.5774467728
   26      H       3.2591337623     1.1482407018     0.9277937765
   27      H       2.5370875886     2.1355873066     2.2368781546
   28      C      -1.3703580038    -2.3266721833     1.0575894073
   29      H      -2.1844100944    -2.4104107507     1.7807675581
   30      H      -1.4173658585    -3.1877468806     0.3849359102
   31      H      -0.4218126577    -2.3506265932     1.5936933387
   32      C      -1.5902149140     2.5174944342     0.7651470490
   33      H      -2.4634457222     2.5948993807     1.4170616496
   34      H      -0.6987536315     2.7250808669     1.3513228995
   35      H      -1.6848536231     3.2745349987    -0.0190353698
 ----------------------------------------------------------------
 Nuclear Repulsion Energy =  1412.1097007325 hartrees
 There are       65 alpha and       65 beta electrons
 Applying Cartesian multipole field
    Component          Value
    ---------          -----
     (2,0,0)        1.00000E-11
     (0,2,0)        2.00000E-11
     (0,0,2)       -3.00000E-11
 Nucleus-field energy     =     0.0000000283 hartrees
 Requested basis set is 6-311++G(d,p)
 There are 192 shells and 500 basis functions
 A cutoff of  1.0D-11 yielded  15223 shell pairs
 There are    105160 function pairs (    112131 Cartesian)
 Smallest overlap matrix eigenvalue = 4.85E-07

 Q-Chem warning in module /fs/scratch/osu6415/qchem-kaunlao-vdw/stvman/mkSTV.C, line 281:

 Overlap eigenvalue is smaller than square root of threshold

 Linear dependence detected in AO basis
 Number of orthogonalized atomic orbitals = 499
 Maximum deviation from orthogonality = 1.893E-10
 Guess MOs from SCF MO coefficient file
 Reading MOs from coefficient file
 Reading MOs from coefficient file
 A restricted hybrid HF-DFT SCF calculation will be
 performed using Pulay DIIS extrapolation
 Exchange:     0.2000 Hartree-Fock + 0.0800 Slater + 0.7200 B88
 Correlation:  0.1900 VWN1RPA + 0.8100 LYP
 Using SG-1 standard quadrature grid
 Dispersion:   Grimme D3
 SCF converges when DIIS error is below 1.0E-08
 Geometry optimization detected.  Setting ReadMinima to 0
 Setting SaveMinima to 0
 using 20 threads for integral computing
 -------------------------------------------------------
 OpenMP Integral computing Module                
 Release: version 1.0, May 2013, Q-Chem Inc. Pittsburgh 
 -------------------------------------------------------
 -------------------------------------------------------
 OpenMP BLAS3 based DFT computing Module                
 Release: version 1.0, May 2013, Q-Chem Inc. Pittsburgh 
 -------------------------------------------------------
 ---------------------------------------
  Cycle       Energy         DIIS Error
 ---------------------------------------
    1    -844.5124975742      1.09E-03
    2    -844.5255017784      1.19E-04
    3    -844.5251057521      1.91E-04
    4    -844.5259417537      4.69E-05
    5    -844.5259862657      1.60E-05
    6    -844.5259922782      5.42E-06
    7    -844.5259928558      2.38E-06
    8    -844.5259929709      7.09E-07
    9    -844.5259929822      2.37E-07
   10    -844.5259929834      8.52E-08
   11    -844.5259929835      2.29E-08
   12    -844.5259929856      8.76E-09 Convergence criterion met
 ---------------------------------------
 SCF time:  CPU 991.02 s  wall 52.03 s
 SCF   energy in the final basis set = -844.52599299
 Total energy in the final basis set = -844.52599299
 
 --------------------------------------------------------------
 
                    Orbital Energies (a.u.)
 --------------------------------------------------------------
 
 Alpha MOs
 -- Occupied --
-19.176 -19.172 -19.128 -19.117 -19.114 -10.307 -10.306 -10.244
-10.242 -10.231 -10.230 -10.205 -10.205 -10.179 -10.178 -10.169
-10.166  -1.120  -1.114  -1.062  -1.028  -1.026  -0.831  -0.806
 -0.784  -0.746  -0.730  -0.727  -0.676  -0.645  -0.604  -0.582
 -0.570  -0.569  -0.514  -0.513  -0.510  -0.496  -0.487  -0.481
 -0.476  -0.469  -0.461  -0.443  -0.431  -0.425  -0.423  -0.414
 -0.406  -0.401  -0.395  -0.375  -0.373  -0.369  -0.360  -0.357
 -0.354  -0.348  -0.333  -0.329  -0.317  -0.311  -0.291  -0.277
 -0.271
 -- Virtual --
 -0.016  -0.013  -0.008  -0.001   0.000   0.008   0.013   0.016
  0.026   0.031   0.033   0.039   0.041   0.045   0.049   0.050
  0.061   0.064   0.065   0.069   0.076   0.080   0.085   0.092
  0.093   0.097   0.102   0.104   0.108   0.111   0.112   0.116
  0.119   0.120   0.125   0.126   0.128   0.133   0.136   0.139
  0.141   0.147   0.149   0.152   0.155   0.156   0.159   0.160
  0.161   0.164   0.166   0.167   0.171   0.176   0.180   0.182
  0.184   0.187   0.190   0.193   0.198   0.200   0.201   0.205
  0.206   0.212   0.213   0.217   0.220   0.223   0.230   0.235
  0.240   0.245   0.247   0.254   0.261   0.267   0.268   0.270
  0.275   0.283   0.296   0.300   0.301   0.305   0.307   0.311
  0.313   0.320   0.321   0.329   0.332   0.338   0.340   0.343
  0.346   0.353   0.356   0.361   0.364   0.365   0.369   0.374
  0.378   0.381   0.389   0.392   0.400   0.407   0.411   0.416
  0.424   0.426   0.433   0.445   0.449   0.459   0.466   0.471
  0.483   0.491   0.510   0.513   0.517   0.523   0.528   0.538
  0.544   0.558   0.573   0.577   0.581   0.591   0.596   0.603
  0.607   0.616   0.620   0.637   0.641   0.643   0.645   0.655
  0.660   0.666   0.667   0.676   0.692   0.694   0.697   0.704
  0.708   0.718   0.722   0.728   0.730   0.733   0.742   0.745
  0.750   0.767   0.773   0.780   0.784   0.787   0.794   0.809
  0.820   0.825   0.835   0.843   0.854   0.859   0.875   0.912
  0.940   0.952   0.962   0.988   1.005   1.015   1.021   1.035
  1.052   1.079   1.080   1.100   1.125   1.129   1.155   1.162
  1.175   1.189   1.195   1.209   1.225   1.234   1.237   1.255
  1.258   1.270   1.279   1.284   1.299   1.314   1.316   1.322
  1.349   1.363   1.371   1.384   1.398   1.406   1.423   1.439
  1.447   1.452   1.468   1.476   1.485   1.488   1.500   1.507
  1.518   1.528   1.536   1.550   1.558   1.562   1.567   1.578
  1.583   1.591   1.603   1.606   1.616   1.625   1.633   1.644
  1.651   1.664   1.673   1.687   1.697   1.701   1.713   1.718
  1.721   1.731   1.735   1.745   1.751   1.754   1.767   1.786
  1.796   1.803   1.815   1.825   1.830   1.842   1.851   1.867
  1.879   1.893   1.905   1.926   1.941   1.950   1.974   1.989
  2.001   2.012   2.015   2.028   2.034   2.050   2.067   2.079
  2.088   2.093   2.117   2.125   2.134   2.152   2.173   2.180
  2.183   2.197   2.216   2.221   2.247   2.255   2.259   2.298
  2.307   2.379   2.383   2.405   2.425   2.449   2.463   2.469
  2.476   2.491   2.500   2.503   2.508   2.520   2.529   2.535
  2.543   2.560   2.569   2.577   2.591   2.593   2.603   2.609
  2.624   2.642   2.659   2.674   2.677   2.684   2.703   2.706
  2.740   2.744   2.775   2.786   2.799   2.817   2.834   2.845
  2.864   2.876   2.882   2.890   2.906   2.914   2.947   2.964
  2.999   3.011   3.025   3.036   3.042   3.044   3.058   3.076
  3.083   3.104   3.109   3.113   3.129   3.170   3.175   3.186
  3.204   3.228   3.233   3.263   3.278   3.310   3.338   3.363
  3.368   3.382   3.387   3.406   3.541   3.601   3.621   3.661
  3.677   3.711   3.744   3.780   3.788   3.818   3.826   3.831
  3.839   3.854   3.870   3.958   3.978   4.054   4.065   4.085
  4.136   4.154   4.169   4.175   4.196   4.211   4.293   4.310
  4.450   4.499   5.054   5.124   5.139   5.177   5.241   5.253
  5.260   5.439   5.445   5.531   5.632   5.658   5.694   5.885
  5.898  23.764  23.845  23.859  23.888  23.898  23.939  23.941
 23.948  23.955  23.985  23.990  24.041  49.923  49.946  50.010
 50.045  50.053
 --------------------------------------------------------------
 
          Ground-State Mulliken Net Atomic Charges

     Atom                 Charge (a.u.)
  ----------------------------------------
      1 C                     0.459175
      2 C                     0.628420
      3 C                    -1.109876
      4 C                    -0.641599
      5 O                     0.029675
      6 O                    -0.146905
      7 O                    -0.066604
      8 O                    -0.165240
      9 C                    -0.257694
     10 C                    -0.212470
     11 C                    -0.320745
     12 C                    -0.242008
     13 C                    -0.612826
     14 C                    -0.530470
     15 O                     0.037494
     16 H                     0.276894
     17 H                     0.296019
     18 H                     0.209763
     19 H                     0.184012
     20 H                     0.167257
     21 H                     0.142640
     22 H                     0.170096
     23 H                     0.139232
     24 H                     0.151601
     25 H                     0.179038
     26 H                     0.178483
     27 H                     0.162364
     28 C                     0.008647
     29 H                     0.176058
     30 H                     0.167888
     31 H                     0.160454
     32 C                    -0.108969
     33 H                     0.157101
     34 H                     0.168856
     35 H                     0.164242
  ----------------------------------------
  Sum of atomic charges =    -0.000000

 -----------------------------------------------------------------
                    Cartesian Multipole Moments
 -----------------------------------------------------------------
    Charge (ESU x 10^10)
                -0.0000
    Dipole Moment (Debye)
         X      -1.1385      Y       0.7334      Z       2.2392
       Tot       2.6169
    Quadrupole Moments (Debye-Ang)
        XX     -92.9673     XY       0.0306     YY    -100.4528
        XZ      13.0474     YZ      -2.9583     ZZ    -109.1976
    Octopole Moments (Debye-Ang^2)
       XXX      40.4341    XXY      -4.3612    XYY       4.3200
       YYY      19.8303    XXZ      24.5418    XYZ       1.8332
       YYZ      25.4404    XZZ      -0.8743    YZZ       9.3166
       ZZZ       9.3135
    Hexadecapole Moments (Debye-Ang^3)
      XXXX   -2176.7508   XXXY       3.1487   XXYY    -631.2896
      XYYY      49.6009   YYYY   -1721.9202   XXXZ      30.1222
      XXYZ      -8.8554   XYYZ      41.5395   YYYZ     -95.8813
      XXZZ    -493.6921   XYZZ      21.3409   YYZZ    -418.7527
      XZZZ      34.3834   YZZZ     -69.1040   ZZZZ    -655.3793
 -----------------------------------------------------------------
 Calculating analytic gradient of the SCF energy
 Gradient of SCF Energy
            1           2           3           4           5           6
    1   0.0017643  -0.0027862  -0.0012002   0.0019703   0.0010015   0.0007056
    2  -0.0024982  -0.0026835   0.0017434   0.0030416  -0.0014383  -0.0000449
    3   0.0017234  -0.0003718  -0.0019196   0.0001866   0.0003676   0.0006656
            7           8           9          10          11          12
    1  -0.0003058   0.0000157  -0.0000459  -0.0001603  -0.0017192   0.0002803
    2  -0.0002029  -0.0002594   0.0001758   0.0001149   0.0004585   0.0001161
    3  -0.0001069  -0.0008351   0.0001019  -0.0000021   0.0013110  -0.0000177
           13          14          15          16          17          18
    1  -0.0003133   0.0014345  -0.0004637   0.0005453  -0.0002769   0.0001378
    2  -0.0000541   0.0014669   0.0010921  -0.0009360  -0.0003373  -0.0002142
    3   0.0000113  -0.0005098  -0.0003531  -0.0000454  -0.0000469  -0.0000049
           19          20          21          22          23          24
    1   0.0000601  -0.0000381  -0.0000778   0.0000330   0.0000345  -0.0000082
    2  -0.0000074  -0.0000443   0.0000899  -0.0000502   0.0000602   0.0001590
    3  -0.0000286   0.0001069   0.0000515  -0.0000309  -0.0000616  -0.0000575
           25          26          27          28          29          30
    1   0.0000493   0.0000108   0.0000071  -0.0000116  -0.0002142  -0.0000487
    2  -0.0000694  -0.0002664   0.0000348   0.0001791  -0.0000548  -0.0000864
    3  -0.0000645   0.0000786  -0.0000159   0.0005498  -0.0001797  -0.0000725
           31          32          33          34          35
    1  -0.0002238   0.0000442   0.0001506  -0.0002908  -0.0000601
    2   0.0000633   0.0003383   0.0000721   0.0000130   0.0000286
    3  -0.0002022  -0.0004774   0.0001409   0.0000882   0.0000208
 Max gradient component =       3.042E-03
[...]
     0.00005011     -0.00004407     -0.00000992
    -0.00007333      0.00004601      0.00002457
    -0.00016733     -0.00018512     -0.00008882
     0.00027438     -0.00006646      0.00001667
    -0.02243520      0.00253166      0.04242868
     0.01784439     -0.00971992     -0.05571008
     0.00085897     -0.00009862     -0.00070048
    -0.00008758      0.00018287      0.00001121
    -0.10744725      0.17159109     -0.43585407
     0.00932053      0.00676794      0.02610892
     0.00069777      0.00013047     -0.00083733
     0.00085458      0.00230382     -0.00151711
     0.27180200     -0.14622698     -0.17089319
    -0.00477342      0.11910308     -0.33455754
    -0.27208575     -0.11215415      0.21793376
     0.05430984      0.22766817      0.44626143
     0.00029283      0.00025674      0.00057822
    -0.00009516     -0.00090546      0.00009265
     0.00105165     -0.00105698     -0.00013775
     0.00009297      0.00070734      0.00271699
    -0.00454765      0.00256310      0.00506940
     0.04485332      0.00421752     -0.03808113
    -0.00421407     -0.03547384     -0.03061724
     0.01187069     -0.00005250      0.00897924
     0.01644374      0.01099087     -0.02420263
    -0.22290242      0.01655802      0.14564824
     0.01866076      0.00494285      0.00355409
     0.00881626     -0.15444397      0.14030000
vibration 90
     0.00204421     -0.00313915      0.00702616
     0.00160249      0.00123572      0.00423576
     0.00006763     -0.00013090      0.00010608
    -0.00003328      0.00018836      0.00012915
     0.00007594     -0.00001000     -0.00004406
    -0.00003053      0.00001778     -0.00002174
     0.00000986     -0.00000498     -0.00000553
     0.00000365     -0.00003739     -0.00003608
     0.00007565      0.00013004     -0.00009927
     0.00010220      0.00048536     -0.00014710
    -0.00084438     -0.00048621      0.00167514
    -0.00412992      0.00164406      0.00447149
     0.01124194     -0.00527648     -0.03265121
     0.00047577      0.00004901     -0.00033128
     0.00002821      0.00030862     -0.00021848
    -0.02173186      0.03470289     -0.08950279
    -0.01958669     -0.01553338     -0.04999158
    -0.00069900     -0.00018461      0.00092170
    -0.00154705     -0.00457502      0.00330421
     0.05153934     -0.02611108     -0.03088828
    -0.00124113      0.00732325     -0.02586644
    -0.16678614     -0.06891620      0.13424782
     0.03086171      0.13038172      0.25424783
     0.00011851      0.00005671      0.00020161
    -0.00023438     -0.00145149      0.00016957
     0.00073422     -0.00101095     -0.00030525
    -0.00003337     -0.00017226     -0.00089263
    -0.00317351      0.00181061      0.00355118
     0.03154175      0.00311288     -0.02685037
    -0.00298233     -0.02500515     -0.02142339
     0.00833373     -0.00006779      0.00628717
    -0.04251783     -0.03039125      0.06615753
     0.59154203     -0.04487788     -0.38902383
    -0.05868432     -0.01489536     -0.01933564
    -0.02473066      0.42628567     -0.38456517
vibration 91
    -0.00021749     -0.00001754     -0.00012030
     0.00977547      0.00783561      0.02485693
    -0.00029777     -0.00022942     -0.00001730
    -0.00015719      0.00077666      0.00076445
     0.00001189      0.00004920      0.00007402
     0.00009240      0.00001463     -0.00002707
    -0.00003613     -0.00007560     -0.00008986
     0.00002942     -0.00029610     -0.00025330
    -0.00046078     -0.00046078      0.00013873
    -0.00006687     -0.00014647      0.00011241
     0.00093452      0.00023963     -0.00118199
     0.03084760     -0.00422269     -0.05427020
     0.01448186     -0.00387584     -0.03493215
     0.00012362      0.00001312      0.00018055
    -0.00006796     -0.00030146      0.00019154
    -0.00083830      0.00036492      0.00253461
    -0.11453596     -0.09122296     -0.29506544
     0.00329838      0.00056324     -0.00394743
     0.00064529      0.00172604     -0.00121250
    -0.37470004      0.20260315      0.23420351
     0.00595463     -0.15010892      0.41429621
    -0.20461181     -0.08693358      0.16669936
     0.03015880      0.13064401      0.24962961
     0.00122688      0.00110656      0.00277644
     0.00095451      0.00390217     -0.00035686
    -0.00010281      0.00015826      0.00008403
     0.00007500     -0.00003294     -0.00004284
    -0.02452161      0.01904376      0.03707207
     0.28843558      0.03255565     -0.25172826
    -0.02958454     -0.26201253     -0.22230804
     0.03347805      0.00139099      0.02982328
     0.00666793      0.00477373     -0.01209597
    -0.10660241      0.00914480      0.07169599
     0.02013492      0.00399612      0.01173434
     0.00429186     -0.07071932      0.06307636
vibration 92
    -0.00077260      0.00159686     -0.00346186
    -0.00906046     -0.00717897     -0.02412868
     0.00024264      0.00019901     -0.00000822
     0.00036741     -0.00042147     -0.00045271
    -0.00001977     -0.00003440     -0.00005586
    -0.00006399     -0.00002310      0.00003145
     0.00000787      0.00005421     -0.00003241
    -0.00005981      0.00009136      0.00016604
     0.00002559     -0.00038790     -0.00004641
     0.00015408     -0.00022548     -0.00007400
    -0.00051490     -0.00029184      0.00066869
    -0.01453515      0.00214390      0.02517460
    -0.01117806      0.00235356      0.02537662
    -0.00113498      0.00055752      0.00194166
     0.00011503     -0.00018854     -0.00038951
     0.01136093     -0.01759707      0.04111802
     0.10888638      0.08720370      0.28027803
    -0.00078671     -0.00014101      0.00062145
     0.00012368      0.00036642     -0.00038070
     0.17737154     -0.09636751     -0.11080044
    -0.00283685      0.06983179     -0.19143157
     0.15837053      0.06562934     -0.12627263
    -0.02209459     -0.09182760     -0.17833422
     0.00004043      0.00024328      0.00054956
     0.00075867      0.00442351     -0.00051279
    -0.00180801      0.00227350      0.00048662
    -0.00007340      0.00010332      0.00071629
    -0.03115827      0.03173337      0.06405608
     0.45284208      0.05388741     -0.39533995
    -0.04814955     -0.44373743     -0.37590785
    -0.03057766      0.00877525      0.00069656
    -0.00287549     -0.00191175      0.00522567
     0.04719729     -0.00423675     -0.03178287
    -0.00975039     -0.00190215     -0.00571412
    -0.00183142      0.02929083     -0.02600911
vibration 93
    -0.00418399      0.00745934     -0.01738671
    -0.02496208     -0.01972120     -0.06352255
     0.00037430      0.00039387     -0.00045552
     0.00035657     -0.00158389     -0.00167557
     0.00000933      0.00003467      0.00012580
    -0.00014726     -0.00003601      0.00022566
     0.00023258      0.00011942      0.00025400
    -0.00001965      0.00055835      0.00059506
     0.00034808      0.00021092      0.00038883
     0.00015647     -0.00040135      0.00027319
     0.00002684      0.00077060     -0.00057614
     0.01181929     -0.00066279     -0.02356387
     0.00935191     -0.00597428     -0.03150694
     0.00038419     -0.00084861     -0.00099107
    -0.00006135      0.00018494      0.00076494
     0.05298493     -0.08637022      0.21295060
     0.28855631      0.23405513      0.75349292
    -0.00111257      0.00000660      0.00083563
     0.00074323      0.00235842     -0.00185172
    -0.14402674      0.07858025      0.09038956
     0.00227615     -0.06976060      0.19164777
    -0.14933929     -0.06197946      0.12161989
     0.03263731      0.13322295      0.25960923
    -0.00240338     -0.00234381     -0.00523730
    -0.00038112     -0.00019325     -0.00006736
    -0.00248189      0.00301917      0.00070638
     0.00003301     -0.00058405     -0.00192426
     0.01444361     -0.00163168     -0.00287639
    -0.08049863     -0.00890918      0.07426995
     0.00473719      0.02105798      0.01649276
    -0.09808784      0.00706088     -0.05539772
     0.00173277      0.00128793     -0.00298463
    -0.02571416      0.00222948      0.01739789
     0.00340128      0.00086407      0.00206435
     0.00120218     -0.01950128      0.01682988
vibration 94
    -0.00048591      0.00099125     -0.00223043
    -0.00377649     -0.00294133     -0.01019838
     0.00003079      0.00008505     -0.00009080
     0.00004509     -0.00020836     -0.00054281
     0.00001062      0.00001300      0.00001813
    -0.00001060     -0.00000763      0.00003529
    -0.00017260     -0.00013989      0.00027343
     0.00003719      0.00007246      0.00013014
     0.00327621      0.00401677     -0.00335777
     0.00128173     -0.00554901      0.00148312
    -0.00003952      0.00021306     -0.00008269
     0.00037072     -0.00004687     -0.00102182
    -0.00043665     -0.00083664     -0.00008010
    -0.00174421     -0.00061031     -0.00059465
     0.00017910      0.00022339      0.00021440
     0.00690350     -0.01132492      0.02753377
     0.04562315      0.03656723      0.12014810
    -0.03004230     -0.00595589      0.03778504
     0.01177287      0.03339611     -0.02502150
    -0.00437493      0.00279307      0.00283665
     0.00031848     -0.00284868      0.00926407
     0.01008498      0.00256984     -0.00653101
     0.00146208      0.00527507      0.01070195
    -0.00008538      0.00021396     -0.00188291
    -0.00816689     -0.04200239      0.00418244
    -0.02707456      0.03363441      0.00817920
     0.00024346     -0.00128638     -0.00070500
    -0.08191222     -0.01955872     -0.03513009
     0.23130970      0.02109446     -0.22739364
     0.01064282      0.27755469      0.23619153
     0.74343974     -0.06107473      0.41132136
     0.00019492      0.00000424      0.00012762
    -0.00013449     -0.00002758      0.00006511
    -0.00203277     -0.00017417     -0.00135837
     0.00000690      0.00004708     -0.00016848
vibration 95
     0.00011669     -0.00032980      0.00031428
     0.00029322      0.00026687      0.00091958
    -0.00004732      0.00011000     -0.00012238
     0.00016124      0.00005049      0.00018469
     0.00001332      0.00033042     -0.00004649
    -0.00003003      0.00017212      0.00001190
    -0.00006763      0.00000699     -0.00009442
    -0.00002357     -0.00002042     -0.00006217
    -0.00345413     -0.00553561      0.00174177
     0.02035555     -0.08925197      0.02317132
     0.00001840     -0.00006351      0.00003651
    -0.00005044     -0.00002810      0.00020481
     0.00000947      0.00006227      0.00008312
     0.00011575      0.00002894      0.00001355
    -0.00001978      0.00002220     -0.00002343
    -0.00072082      0.00149462     -0.00320647
    -0.00424665     -0.00337568     -0.01089878
     0.02360985      0.00446214     -0.03049207
     0.18930558      0.53672186     -0.40215811
     0.00062527     -0.00034616     -0.00037104
    -0.00004890      0.00072980     -0.00219169
    -0.00031863      0.00000448      0.00012945
    -0.00014981     -0.00061149     -0.00123486
     0.00626606      0.00688593      0.01653262
     0.01040241      0.05387252     -0.00636947
    -0.43441620      0.53908688      0.13159706
     0.00387824     -0.01940389     -0.00403578
     0.00482534      0.00102542      0.00182654
    -0.01482384     -0.00138084      0.01436947
    -0.00044682     -0.01455961     -0.01241835
    -0.04267848      0.00352236     -0.02376040
    -0.00022125     -0.00021410      0.00039165
     0.00317469     -0.00016832     -0.00193603
    -0.00046968     -0.00030126      0.00016871
    -0.00032372      0.00304885     -0.00282187
vibration 96
     0.00002345      0.00005410     -0.00008150
    -0.00047431     -0.00041479     -0.00079664
    -0.00014416     -0.00000833      0.00003606
     0.00012398     -0.00001806     -0.00026026
     0.00004971     -0.00001690      0.00001435
     0.00008094     -0.00001887     -0.00002010
     0.00020737      0.00024706     -0.00014502
     0.00000779      0.00015568     -0.00007673
    -0.04680712     -0.06481602      0.05071187
    -0.00123996      0.00561652     -0.00187295
    -0.00002400     -0.00001365      0.00003833
    -0.00008196     -0.00000456      0.00014654
    -0.00007009     -0.00003220      0.00011280
    -0.00017077     -0.00005105     -0.00005902
     0.00001806      0.00004746      0.00000040
     0.00030092     -0.00043314      0.00088363
     0.00428032      0.00339243      0.01101939
     0.42600257      0.08587089     -0.54118313
    -0.01227315     -0.03560968      0.02637262
     0.00103401     -0.00046578     -0.00060716
    -0.00003181      0.00051570     -0.00128993
     0.00130478      0.00044854     -0.00095924
     0.00001245     -0.00006359     -0.00006563
    -0.00686049     -0.01001809      0.01422839
     0.13424856      0.69057710     -0.07188694
     0.02671176     -0.03243951     -0.00787474
    -0.00014644      0.00188458      0.00383020
    -0.00539500     -0.00147040     -0.00285665
     0.01210647      0.00111710     -0.01252727
     0.00101725      0.02116616      0.01799733
     0.05250705     -0.00439872      0.02848868
    -0.00007519     -0.00006769      0.00018124
     0.00157793     -0.00014400     -0.00102460
    -0.00053601     -0.00005311     -0.00023261
    -0.00007495      0.00108112     -0.00093945
vibration 97
    -0.00003796      0.00004496     -0.00006241
    -0.00017541     -0.00006387     -0.00029400
     0.00015652     -0.00003000     -0.00022582
     0.00086304     -0.00089580     -0.00025875
     0.00003691      0.00003441      0.00014486
    -0.00008564      0.00000837      0.00009033
     0.00003556      0.00020385      0.00028662
    -0.00027869      0.00040281      0.00020134
    -0.01571877     -0.04919555     -0.07802123
     0.00283075     -0.00092720     -0.01432290
     0.00000136      0.00000357     -0.00002063
     0.00005119     -0.00001327     -0.00006447
     0.00004098     -0.00002100     -0.00011634
     0.00001239     -0.00001116     -0.00005721
    -0.00000377      0.00002035      0.00002909
     0.00027207     -0.00032527      0.00095316
     0.00173706      0.00137548      0.00437018
    -0.20171079     -0.05831547      0.23630414
    -0.01429451     -0.04804207      0.03167484
    -0.00060305      0.00033986      0.00038715
     0.00002428     -0.00016084      0.00042751
    -0.00075095     -0.00025846      0.00055018
     0.00017384      0.00051947      0.00102742
     0.32252503      0.35397111      0.73974183
     0.06037369      0.29004490     -0.05235021
    -0.01788153      0.02483546      0.00217695
    -0.00258522      0.03394927      0.13542610
     0.00017626     -0.00013300     -0.00024711
    -0.00211370     -0.00020210      0.00179053
     0.00039997      0.00194729      0.00166767
    -0.00034231     -0.00015512     -0.00054357
    -0.00057470      0.00002523     -0.00035380
     0.00124487     -0.00003081     -0.00092123
     0.00561069      0.00089953      0.00408454
    -0.00004928     -0.00119201      0.00106261
vibration 98
    -0.00010144      0.00007133     -0.00014795
     0.00000770      0.00000681      0.00003930
     0.00121493      0.00027570     -0.00038692
    -0.00011471      0.00016352      0.00005942
    -0.00011248      0.00003872      0.00039393
    -0.00048117     -0.00007276      0.00025105
    -0.00002361     -0.00005604     -0.00002714
     0.00004415     -0.00007329     -0.00003354
     0.00264627      0.00791756      0.01191366
     0.02293602     -0.01801198     -0.08867244
    -0.00007767      0.00001490     -0.00008180
     0.00001431      0.00002880      0.00001291
     0.00003237      0.00000406     -0.00006427
     0.00001415     -0.00001864     -0.00002433
     0.00000598     -0.00000676      0.00003081
     0.00057354     -0.00097495      0.00253710
    -0.00020708     -0.00016106     -0.00045820
     0.02938282      0.00882630     -0.03408903
    -0.07257299     -0.24506147      0.15739296
     0.00007075      0.00000364     -0.00000860
     0.00003641     -0.00007571      0.00017276
    -0.00044997     -0.00018576      0.00035255
     0.00008801      0.00022061      0.00046307
    -0.05022176     -0.05534584     -0.11557094
    -0.00998927     -0.04800467      0.00845591
    -0.18878909      0.24664551      0.03766259
    -0.01594726      0.21104921      0.85443665
    -0.00000092     -0.00000694     -0.00003998
    -0.00032632     -0.00006770      0.00028064
     0.00000866      0.00019644      0.00015145
     0.00024460     -0.00001408      0.00012791
    -0.00534433      0.00022692     -0.00315766
     0.01265428     -0.00066957     -0.00955013
     0.05223564      0.00797374      0.03759668
    -0.00053145     -0.01058901      0.00937541
vibration 99
     0.00003794      0.00001038     -0.00042066
    -0.00001687     -0.00006389     -0.00012037
     0.00002148     -0.00007340     -0.00018585
    -0.00002422     -0.00001914     -0.00003373
    -0.00085593      0.00035113      0.00027216
     0.00003091     -0.00000799      0.00001851
     0.00001272      0.00000832      0.00001179
     0.00000465      0.00000679      0.00000835
    -0.00007495     -0.00019286     -0.00023035
    -0.00155096      0.00126113      0.00621128
    -0.00144603      0.00050624     -0.00049401
    -0.00042831      0.00040038      0.00138467
     0.00000888      0.00006396     -0.00011089
    -0.00001335     -0.00011393     -0.00004666
     0.00014897     -0.00009411      0.00011368
     0.00080435     -0.00145883      0.00473652
     0.00051161      0.00051312      0.00152884
    -0.00044018     -0.00016785      0.00048492
     0.00486594      0.01667363     -0.01083138
     0.01125068     -0.00458517     -0.00578859
    -0.00014243      0.00254939     -0.00778740
    -0.00000512     -0.00024286      0.00005194
     0.00031291      0.00013789      0.00110264
     0.00106644      0.00116497      0.00246078
     0.00026787      0.00128104     -0.00021039
     0.01220482     -0.01636319     -0.00270491
     0.00100308     -0.01475588     -0.05955502
    -0.00016149     -0.00003106     -0.00008561
     0.00027947      0.00002592     -0.00035850
     0.00000151      0.00061421      0.00048357
     0.00177500     -0.00022739      0.00098431
    -0.07694633      0.00177802     -0.04516750
     0.17927236     -0.01014744     -0.13517676
     0.76574329      0.11686397      0.55010351
    -0.00870141     -0.13804845      0.12167121
[INT]
    1.166920
    0.981217
    4.197289
    0.724257
    0.090712
    0.491440
    2.387654
    0.460877
    0.425435
    0.546534
    1.324053
    2.335183
    2.576975
    0.565506
    3.881797
    0.920367
   12.657099
    6.032612
    3.482835
    4.183738
    7.160003
    0.543353
    6.858745
   12.563420
    4.106779
    7.159577
    0.322875
    5.164947
    2.218711
    4.202159
    9.235359
   26.366056
    6.037317
    1.574007
    0.479436
   26.076495
   12.864190
   16.268419
   16.335549
    4.713405
    3.579165
    1.530092
    0.893371
   64.045216
   64.570363
   26.743533
   13.906100
   27.276595
    1.737943
    1.005792
    1.066046
    4.933673
    3.561216
    4.955813
   29.920162
   55.695240
  161.845681
    4.553978
   64.607958
   91.152543
  218.353057
   18.943451
   12.972130
   44.891619
    6.312731
   16.285487
    8.683791
    9.681750
   22.599566
    5.897877
   10.135818
    1.189188
    1.240256
    3.492872
   16.612300
    0.079557
    4.144682
    9.008407
   15.704228
  185.062024
  370.504051
   18.368449
    9.447542
   18.925788
   47.645211
   37.924721
   33.179224
    7.652453
    1.317114
   13.226671
    9.384298
   32.056562
   23.269021
   15.041304
   21.649135
   14.073590
   15.848188
    9.752768
    5.289349

======= END OF MOLDEN-FORMATTED INPUT FILE =======


        *************************************************************
        *                                                           *
        *  Thank you very much for using Q-Chem.  Have a nice day.  *
        *                                                           *
        *************************************************************


