r0217.ten.osc.edu 10.25.156
Q-Chem Developer Version! Running on 10.25.156.*
                  Welcome to Q-Chem
     A Quantum Leap Into The Future Of Chemistry


 Q-Chem 5.0, Q-Chem, Inc., Pleasanton, CA (2017)

 Yihan Shao,  Zhengting Gan,  E. Epifanovsky,  A. T. B. Gilbert,  M. Wormit,  
 J. Kussmann,  A. W. Lange,  A. Behn,  Jia Deng,  Xintian Feng,  D. Ghosh,  
 M. Goldey,  P. R. Horn,  L. D. Jacobson,  I. Kaliman,  T. Kus,  A. Landau,  
 Jie Liu,  E. I. Proynov,  R. M. Richard,  R. P. Steele,  E. J. Sundstrom,  
 H. L. Woodcock III,  P. M. Zimmerman,  D. Zuev,  B. Albrecht,  E. Alguire,  
 S. A. Baeppler,  Z. Benda,  Y. A. Bernard,  E. J. Berquist,  K. B. Bravaya,  
 D. Casanova,  Chun-Min Chang,  Yunqing Chen,  A. Chien,  K. D. Closser,  
 M. P. Coons,  S. Dasgupta,  M. Diedenhofen,  Hainam Do,  R. G. Edgar,  
 Po-Tung Fang,  S. Fatehi,  Qingguo Feng,  Qinghui Ge,  A. Ghysels,  
 J. Gomes,  J. Gonthier,  A. Gunina,  M. W. D. Hanson-Heine,  
 P. H. P. Harbach,  A. W. Hauser,  J. E. Herr,  E. G. Hohenstein,  
 Z. C. Holden,  Kerwin Hui,  T.-C. Jagau,  Hyunjun Ji,  B. Kaduk,  
 K. Khistyaev,  Jaehoon Kim,  P. Klunzinger,  K. Koh,  D. Kosenkov,  
 T. Kowalczyk,  C. M. Krauter,  A. Kunitsa,  Ka Un Lao,  A. Laurent,  
 K. V. Lawler,  Joonho Lee,  D. Lefrancois,  S. Lehtola,  D. S. Levine,  
 Yi-Pei Li,  You-Sheng Lin,  Fenglai Liu,  E. Livshits,  A. Luenser,  
 P. Manohar,  E. Mansoor,  S. F. Manzer,  Shan-Ping Mao,  Yuezhi Mao,  
 N. Mardirossian,  A. V. Marenich,  L. A. Martinez-Martinez,  S. A. Maurer,  
 N. J. Mayhall,  S. C. McKenzie,  J.-M. Mewes,  A. F. Morrison,  K. Nanda,  
 T. S. Nguyen-Beck,  R. Olivares-Amaya,  J. A. Parkhill,  T. M. Perrine,  
 F. Plasser,  S. Prager,  A. Prociuk,  D. R. Rehn,  F. Rob,  M. Schneider,  
 N. Sergueev,  S. M. Sharada,  S. Sharma,  D. W. Small,  T. Stauch,  
 T. Stein,  Yu-Chuan Su,  A. J. W. Thom,  T. Tsuchimochi,  L. Vogt,  
 O. Vydrov,  M. A. Watson,  J. Wenzel,  M. de Wergifosse,  T. A. Wesolowski,  
 A. White,  J. Witte,  A. Yamada,  Jun Yang,  K. Yao,  S. Yeganeh,  
 S. R. Yost,  Zhi-Qiang You,  A. Zech,  Igor Ying Zhang,  Xing Zhang,  
 Yan Zhao,  Ying Zhu,  B. R. Brooks,  G. K. L. Chan,  C. J. Cramer,  
 M. S. Gordon,  W. J. Hehre,  A. Klamt,  M. W. Schmidt,  C. D. Sherrill,  
 D. G. Truhlar,  A. Aspuru-Guzik,  R. Baer,  A. T. Bell,  N. A. Besley,  
 Jeng-Da Chai,  A. Dreuw,  B. D. Dunietz,  T. R. Furlani,  Chao-Ping Hsu,  
 Yousung Jung,  Jing Kong,  D. S. Lambrecht,  WanZhen Liang,  C. Ochsenfeld,  
 V. A. Rassolov,  L. V. Slipchenko,  J. E. Subotnik,  T. Van Voorhis,  
 J. M. Herbert,  A. I. Krylov,  P. M. W. Gill,  M. Head-Gordon

 Contributors to earlier versions of Q-Chem not listed above: 
 R. D. Adamson,  B. Austin,  J. Baker,  G. J. O. Beran,  K. Brandhorst,  
 S. T. Brown,  E. F. C. Byrd,  A. K. Chakraborty,  C.-L. Cheng,  
 Siu Hung Chien,  D. M. Chipman,  D. L. Crittenden,  H. Dachsel,  
 R. A. DiStasio Jr.,  R. J. Doerksen,  A. D. Dutoi,  L. Fusti-Molnar,  
 W. A. Goddard III,  A. Golubeva-Zadorozhnaya,  S. R. Gwaltney,  G. Hawkins,  
 A. Heyden,  S. Hirata,  G. Kedziora,  F. J. Keil,  C. Kelley,  Jihan Kim,  
 R. A. King,  R. Z. Khaliullin,  P. P. Korambath,  W. Kurlancheek,  
 A. M. Lee,  M. S. Lee,  S. V. Levchenko,  Ching Yeh Lin,  D. Liotard,  
 R. C. Lochan,  I. Lotan,  P. E. Maslen,  N. Nair,  D. P. O'Neill,  
 D. Neuhauser,  E. Neuscamman,  C. M. Oana,  R. Olson,  B. Peters,  
 R. Peverati,  P. A. Pieniazek,  Y. M. Rhee,  J. Ritchie,  M. A. Rohrdanz,  
 E. Rosta,  N. J. Russ,  H. F. Schaefer III,  N. E. Schultz,  N. Shenvi,  
 A. C. Simmonett,  A. Sodt,  D. Stuck,  K. S. Thanthiriwatte,  V. Vanovschi,  
 Tao Wang,  A. Warshel,  C. F. Williams,  Q. Wu,  X. Xu,  W. Zhang

 Please cite Q-Chem as follows:
 Y. Shao et al., Mol. Phys. 113, 184-215 (2015)
 DOI: 10.1080/00268976.2014.952696

 Q-Chem 5.0.1 for Intel X86 EM64T Linux

 Parts of Q-Chem use Armadillo 5.200.1 (Boston Tea Smuggler).
 http://arma.sourceforge.net/

 Q-Chem begins on Sat Oct 14 17:27:22 2017  

Host: r0217.ten.osc.edu
0

     Scratch files written to /tmp/pbstmp.1310469/00//
Processing $rem in /users/PAS0291/osu6415/.qchemrc.
molden_format             true

Checking the input file for inconsistencies... 	...done.

--------------------------------------------------------------
User input:
--------------------------------------------------------------
$molecule
0 1
C 0.06095410 0.63889407 0.66541820
C 0.48277495 -0.86993622 0.63542576
C -1.21236640 0.96953300 -0.07974992
C -0.57672910 -1.79733324 0.05763349
O -1.89295552 1.94400808 0.56651798
O -1.57370198 0.49406550 -1.12712895
O -1.69565778 -1.70368573 0.81955023
O -0.47777264 -2.54996139 -0.87409694
C -2.84048543 -2.43286643 0.34142279
C -3.09419266 2.40502652 -0.07886246
C 1.30218796 1.31178386 -0.03645511
C 2.47042136 1.28443544 0.98144602
C 2.87287353 -0.21170522 0.94955990
C 1.87020216 -0.79962198 -0.08446631
O 1.68992931 0.31220716 -0.98498711
H -0.04949190 1.00619769 1.68399376
H 0.61436345 -1.21341392 1.66476653
H -2.62529968 -3.50132953 0.29347541
H -3.78829474 1.57671084 -0.22769427
H 3.28038601 1.92374287 0.62458888
H 2.17251365 1.64066991 1.96948408
H 3.89104845 -0.33949122 0.57837195
H 2.80825065 -0.70472619 1.92187818
H -3.63235774 -2.23463132 1.06082799
H -3.12071951 -2.07404730 -0.65020725
H -2.86001219 2.85386401 -1.04555178
H -3.51948808 3.14611712 0.59428743
C 2.38138403 -2.01478744 -0.82721513
H 3.38026103 -1.80272038 -1.21606422
H 2.44881463 -2.87154044 -0.15122609
H 1.72047143 -2.28260065 -1.64719148
C 1.05874229 2.63886096 -0.72093520
H 1.98344478 2.98664571 -1.18577622
H 0.30025955 2.54285244 -1.50006303
H 0.72860973 3.38844648 0.00248013
$end

$rem
sym_ignore      true
jobtype         opt
method          b3lyp
basis           6-311++G(d,p)
dft_d           d3_op
mem_total       62000
MEM_STATIC      4000
ao2mo_disk      350000
max_scf_cycles  200
geom_opt_max_cycles 1000
geom_opt_tol_displacement 1
GEOM_OPT_TOL_GRADIENT       1
GEOM_OPT_TOL_ENERGY         1
$end

--------------------------------------------------------------
 Adding empirical dispersion correction 
 ----------------------------------------------------------------
 Doing -D3(op) with
 s6 =   1.00000
 s8 =   0.78311
 a1 =   0.30000
 a2 =   4.25000
 n  =  10.00000
 -D3 energy without 3body term =     -0.0414941231 hartrees
 ----------------------------------------------------------------
             Standard Nuclear Orientation (Angstroms)
    I     Atom           X                Y                Z
 ----------------------------------------------------------------
    1      C       0.0609541000     0.6388940700     0.6654182000
    2      C       0.4827749500    -0.8699362200     0.6354257600
    3      C      -1.2123664000     0.9695330000    -0.0797499200
    4      C      -0.5767291000    -1.7973332400     0.0576334900
    5      O      -1.8929555200     1.9440080800     0.5665179800
    6      O      -1.5737019800     0.4940655000    -1.1271289500
    7      O      -1.6956577800    -1.7036857300     0.8195502300
    8      O      -0.4777726400    -2.5499613900    -0.8740969400
    9      C      -2.8404854300    -2.4328664300     0.3414227900
   10      C      -3.0941926600     2.4050265200    -0.0788624600
   11      C       1.3021879600     1.3117838600    -0.0364551100
   12      C       2.4704213600     1.2844354400     0.9814460200
   13      C       2.8728735300    -0.2117052200     0.9495599000
   14      C       1.8702021600    -0.7996219800    -0.0844663100
   15      O       1.6899293100     0.3122071600    -0.9849871100
   16      H      -0.0494919000     1.0061976900     1.6839937600
   17      H       0.6143634500    -1.2134139200     1.6647665300
   18      H      -2.6252996800    -3.5013295300     0.2934754100
   19      H      -3.7882947400     1.5767108400    -0.2276942700
   20      H       3.2803860100     1.9237428700     0.6245888800
   21      H       2.1725136500     1.6406699100     1.9694840800
   22      H       3.8910484500    -0.3394912200     0.5783719500
   23      H       2.8082506500    -0.7047261900     1.9218781800
   24      H      -3.6323577400    -2.2346313200     1.0608279900
   25      H      -3.1207195100    -2.0740473000    -0.6502072500
   26      H      -2.8600121900     2.8538640100    -1.0455517800
   27      H      -3.5194880800     3.1461171200     0.5942874300
   28      C       2.3813840300    -2.0147874400    -0.8272151300
   29      H       3.3802610300    -1.8027203800    -1.2160642200
   30      H       2.4488146300    -2.8715404400    -0.1512260900
   31      H       1.7204714300    -2.2826006500    -1.6471914800
   32      C       1.0587422900     2.6388609600    -0.7209352000
   33      H       1.9834447800     2.9866457100    -1.1857762200
   34      H       0.3002595500     2.5428524400    -1.5000630300
   35      H       0.7286097300     3.3884464800     0.0024801300
 ----------------------------------------------------------------
 Nuclear Repulsion Energy =  1397.7305734949 hartrees
 There are       65 alpha and       65 beta electrons
 Requested basis set is 6-311++G(d,p)
 There are 192 shells and 500 basis functions

 Total QAlloc Memory Limit  62000 MB
 Mega-Array Size      3911 MB
 MEM_STATIC part      4000 MB
 A cutoff of  1.0D-11 yielded  15029 shell pairs
 There are    103734 function pairs (    110543 Cartesian)
 
 -------------------------------------------------------
 OpenMP Integral Computing Module                       
 Release: version 1.0, May 2013, Q-Chem Inc. Pittsburgh 
 -------------------------------------------------------
 Integral Job Info:
 Integral job number is                      11
 Integral operator is                         1
 short-range coefficients                     0
 long-range coefficients              100000000
 Omega coefficients                           0
 if combine SR and LR in K                    0
 Integral screening is                        0
 Integral computing path is                   2
 max size of driver memory is            800000
 size of driver memory is                593474
 size of scratch memory is              2361544
 max col of scratch BK array               1296
 max len of scratch array in speh3          155
 max len of scratch index in speh4           18
 max int batch size is                      520
 min int batch size is                       52
 fixed nKL is                                52
 max L of basis functions is                  2
 order of int derivative is                   0
 number of shells is                        192
 number of basis is                         517
 number of cartesian basis is               517
 number of contracted shell pairs         15029
 number of primitive shell pairs          32981
 maxK2 (contraction) of shell pair           36
 max number of K2 of shell pair               1
 max number of CS2 of shell pair           2857
 max number of PS2 of shell pair           4818
 mem total for path MDJ                  182408
 -------------------------------------------------------
 Smallest overlap matrix eigenvalue = 3.81E-07

 Q-Chem warning in module /fs/scratch/osu6415/qchem-kaunlao-vdw/stvman/mkSTV.C, line 281:

 Overlap eigenvalue is smaller than square root of threshold

 Linear dependence detected in AO basis
 Number of orthogonalized atomic orbitals = 499
 Maximum deviation from orthogonality = 9.249E-11

 Scale SEOQF with 1.000000e-01/1.000000e-01/1.000000e-01

 Standard Electronic Orientation quadrupole field applied
 Nucleus-field energy     =     0.0000000375 hartrees
 Guess from superposition of atomic densities
 Warning:  Energy on first SCF cycle will be non-variational
 A restricted hybrid HF-DFT SCF calculation will be
 performed using Pulay DIIS extrapolation
 Exchange:     0.2000 Hartree-Fock + 0.0800 Slater + 0.7200 B88
 Correlation:  0.1900 VWN1RPA + 0.8100 LYP
 Using SG-1 standard quadrature grid
 Dispersion:   Grimme D3
 SCF converges when DIIS error is below 1.0E-08
 using 20 threads for integral computing
 -------------------------------------------------------
 OpenMP Integral computing Module                
 Release: version 1.0, May 2013, Q-Chem Inc. Pittsburgh 
 -------------------------------------------------------
 -------------------------------------------------------
 OpenMP BLAS3 based DFT computing Module                
 Release: version 1.0, May 2013, Q-Chem Inc. Pittsburgh 
 -------------------------------------------------------
 ---------------------------------------
  Cycle       Energy         DIIS Error
 ---------------------------------------
    1    -847.9534424939      2.82E-02
    2    -844.1643084315      3.72E-03
    3    -843.6344200745      6.10E-03
    4    -844.4705214101      1.53E-03
    5    -844.5265183756      3.43E-04
    6    -844.5285062146      1.63E-04
    7    -844.5290997702      3.05E-05
    8    -844.5291194750      1.08E-05
    9    -844.5291222845      3.06E-06
   10    -844.5291224459      1.55E-06
   11    -844.5291224981      4.08E-07
   12    -844.5291225020      1.18E-07
   13    -844.5291225016      4.06E-08
   14    -844.5291225036      1.32E-08
   15    -844.5291225056      4.19E-09 Convergence criterion met
 ---------------------------------------
 SCF time:  CPU 1179.61 s  wall 62.69 s
 SCF   energy in the final basis set = -844.52912251
 Total energy in the final basis set = -844.52912251
 
 --------------------------------------------------------------
 
                    Orbital Energies (a.u.)
 --------------------------------------------------------------
 
 Alpha MOs
 -- Occupied --
-19.176 -19.167 -19.125 -19.117 -19.112 -10.306 -10.303 -10.242
-10.236 -10.231 -10.223 -10.203 -10.203 -10.177 -10.175 -10.169
-10.154  -1.117  -1.108  -1.059  -1.029  -1.023  -0.830  -0.803
 -0.782  -0.749  -0.725  -0.720  -0.670  -0.642  -0.601  -0.581
 -0.563  -0.553  -0.526  -0.508  -0.501  -0.491  -0.488  -0.480
 -0.473  -0.470  -0.456  -0.439  -0.433  -0.422  -0.419  -0.411
 -0.405  -0.396  -0.392  -0.373  -0.369  -0.365  -0.358  -0.355
 -0.352  -0.346  -0.331  -0.323  -0.318  -0.308  -0.289  -0.274
 -0.269
 -- Virtual --
 -0.019  -0.012  -0.005  -0.000   0.009   0.011   0.012   0.019
  0.025   0.030   0.035   0.038   0.043   0.044   0.048   0.051
  0.061   0.064   0.068   0.072   0.076   0.081   0.083   0.089
  0.093   0.100   0.104   0.105   0.108   0.113   0.115   0.116
  0.117   0.122   0.126   0.127   0.130   0.137   0.138   0.140
  0.140   0.144   0.145   0.150   0.152   0.156   0.156   0.161
  0.163   0.167   0.169   0.170   0.174   0.176   0.179   0.180
  0.184   0.187   0.193   0.195   0.197   0.201   0.204   0.210
  0.211   0.212   0.215   0.220   0.223   0.228   0.231   0.234
  0.241   0.246   0.251   0.258   0.259   0.268   0.271   0.275
  0.279   0.283   0.286   0.293   0.300   0.304   0.307   0.312
  0.318   0.321   0.330   0.332   0.339   0.342   0.344   0.349
  0.353   0.356   0.360   0.366   0.369   0.370   0.375   0.376
  0.380   0.384   0.391   0.394   0.401   0.407   0.413   0.419
  0.425   0.428   0.432   0.435   0.446   0.461   0.466   0.479
  0.488   0.495   0.499   0.509   0.519   0.526   0.537   0.539
  0.547   0.556   0.568   0.573   0.580   0.594   0.597   0.604
  0.615   0.620   0.622   0.636   0.642   0.647   0.653   0.656
  0.660   0.666   0.672   0.679   0.681   0.683   0.684   0.692
  0.699   0.708   0.715   0.720   0.727   0.729   0.734   0.740
  0.745   0.749   0.768   0.771   0.787   0.793   0.798   0.804
  0.805   0.818   0.822   0.847   0.849   0.858   0.885   0.912
  0.933   0.944   0.975   0.982   0.997   1.024   1.033   1.048
  1.067   1.071   1.083   1.087   1.110   1.127   1.130   1.150
  1.178   1.188   1.197   1.209   1.217   1.233   1.243   1.253
  1.261   1.274   1.281   1.291   1.304   1.312   1.322   1.339
  1.348   1.363   1.367   1.384   1.401   1.406   1.418   1.430
  1.439   1.441   1.464   1.468   1.474   1.487   1.502   1.521
  1.526   1.535   1.545   1.551   1.553   1.564   1.568   1.581
  1.585   1.594   1.597   1.611   1.612   1.625   1.628   1.639
  1.656   1.662   1.671   1.686   1.690   1.700   1.704   1.709
  1.715   1.718   1.733   1.741   1.749   1.750   1.755   1.777
  1.788   1.803   1.817   1.819   1.835   1.840   1.846   1.860
  1.871   1.883   1.903   1.912   1.928   1.935   1.963   1.970
  1.993   2.001   2.018   2.027   2.032   2.044   2.051   2.088
  2.096   2.104   2.117   2.137   2.144   2.148   2.160   2.175
  2.181   2.198   2.208   2.232   2.237   2.259   2.282   2.294
  2.320   2.378   2.399   2.402   2.421   2.443   2.454   2.462
  2.482   2.491   2.499   2.507   2.514   2.519   2.527   2.534
  2.541   2.549   2.557   2.577   2.582   2.588   2.597   2.605
  2.612   2.631   2.651   2.669   2.676   2.691   2.702   2.719
  2.725   2.742   2.759   2.795   2.818   2.832   2.843   2.859
  2.868   2.873   2.886   2.889   2.922   2.932   2.954   2.981
  2.992   3.004   3.008   3.036   3.042   3.051   3.061   3.074
  3.082   3.093   3.107   3.115   3.135   3.156   3.180   3.186
  3.211   3.218   3.237   3.248   3.272   3.306   3.319   3.355
  3.382   3.397   3.403   3.431   3.547   3.599   3.607   3.670
  3.683   3.694   3.738   3.776   3.792   3.823   3.824   3.834
  3.845   3.848   3.868   3.963   3.984   4.029   4.069   4.105
  4.124   4.132   4.143   4.162   4.178   4.255   4.285   4.314
  4.442   4.507   5.046   5.116   5.131   5.190   5.223   5.290
  5.313   5.404   5.424   5.511   5.634   5.639   5.688   5.884
  5.912  23.764  23.849  23.852  23.897  23.900  23.929  23.939
 23.949  23.958  23.989  24.002  24.042  49.911  49.919  49.990
 50.051  50.060
 --------------------------------------------------------------
 
          Ground-State Mulliken Net Atomic Charges

     Atom                 Charge (a.u.)
  ----------------------------------------
      1 C                     0.676136
      2 C                     0.420995
      3 C                    -1.527082
      4 C                    -0.507290
      5 O                     0.041531
      6 O                    -0.150327
      7 O                    -0.018227
      8 O                    -0.172217
      9 C                    -0.176312
     10 C                    -0.186376
     11 C                    -0.164431
     12 C                    -0.284465
     13 C                    -0.445778
     14 C                    -0.754631
     15 O                     0.039541
     16 H                     0.294776
     17 H                     0.260683
     18 H                     0.169710
     19 H                     0.162302
     20 H                     0.170267
     21 H                     0.140861
     22 H                     0.175012
     23 H                     0.139480
     24 H                     0.148926
     25 H                     0.190248
     26 H                     0.178444
     27 H                     0.153985
     28 C                    -0.025304
     29 H                     0.141637
     30 H                     0.160459
     31 H                     0.207710
     32 C                    -0.020767
     33 H                     0.177784
     34 H                     0.218444
     35 H                     0.164280
  ----------------------------------------
  Sum of atomic charges =    -0.000000

 -----------------------------------------------------------------
                    Cartesian Multipole Moments
 -----------------------------------------------------------------
    Charge (ESU x 10^10)
                -0.0000
    Dipole Moment (Debye)
         X      -0.7319      Y       1.9835      Z       3.5296
       Tot       4.1144
    Quadrupole Moments (Debye-Ang)
        XX     -89.2983     XY      -1.3305     YY     -97.6601
        XZ       1.3793     YZ      -4.7037     ZZ    -107.9003
    Octopole Moments (Debye-Ang^2)
       XXX     -59.6702    XXY       0.8595    XYY     -24.7296
       YYY      19.7297    XXZ       2.1052    XYZ       4.0995
       YYZ       3.3714    XZZ      -2.6403    YZZ       2.6639
       ZZZ       1.2476
    Hexadecapole Moments (Debye-Ang^3)
      XXXX   -2291.9590   XXXY      -0.4117   XXYY    -637.7782
      XYYY       0.7224   YYYY   -1944.6424   XXXZ     -25.0306
      XXYZ      -7.5359   XYYZ      -8.3669   YYYZ     -52.5739
      XXZZ    -510.3552   XYZZ      -3.0971   YYZZ    -412.7171
      XZZZ      -3.1769   YZZZ      -7.2248   ZZZZ    -480.2764
 -----------------------------------------------------------------
 Calculating analytic gradient of the SCF energy
 Gradient of SCF Energy
            1           2           3           4           5           6
    1  -0.0000086  -0.0000793  -0.0000013   0.0000404  -0.0000195   0.0000226
    2   0.0000480  -0.0000612  -0.0000519  -0.0000818   0.0000013   0.0000310
    3  -0.0000583   0.0000089   0.0000193   0.0000840  -0.0000006  -0.0000091
            7           8           9          10          11          12
    1   0.0000011  -0.0000175   0.0000043   0.0000205   0.0000131  -0.0000176
    2   0.0000079   0.0000630  -0.0000126  -0.0000164  -0.0000360   0.0000064
    3  -0.0000308  -0.0000562  -0.0000238   0.0000037  -0.0000323   0.0000062
           13          14          15          16          17          18
    1   0.0000290  -0.0000148   0.0000241  -0.0000073   0.0000269  -0.0000009
    2  -0.0000482   0.0000183   0.0000270   0.0000077   0.0000414   0.0000042
    3  -0.0000028  -0.0000464   0.0000285  -0.0000041   0.0000019  -0.0000184
           19          20          21          22          23          24
    1   0.0000004  -0.0000051   0.0000115   0.0000005  -0.0000111  -0.0000033
    2   0.0000056   0.0000018  -0.0000112  -0.0000094  -0.0000039  -0.0000057
    3   0.0000072   0.0000180   0.0000157   0.0000206   0.0000033  -0.0000121
           25          26          27          28          29          30
    1  -0.0000025   0.0000031  -0.0000040  -0.0000225  -0.0000066   0.0000212
    2   0.0000120   0.0000133   0.0000017   0.0000008   0.0000145   0.0000112
    3  -0.0000079   0.0000152   0.0000118   0.0000032  -0.0000282  -0.0000042
           31          32          33          34          35
    1  -0.0000027  -0.0000076   0.0000013   0.0000093   0.0000028
    2  -0.0000041   0.0000134   0.0000070   0.0000111  -0.0000060
    3  -0.0000021   0.0000657   0.0000080  -0.0000009   0.0000170
 Max gradient component =       8.405E-05
 RMS gradient           =       2.581E-05
 Gradient time:  CPU 393.82 s  wall 28.57 s
 Geometry Optimization Parameters
   NAtoms,    NIC,     NZ,  NCons,   NDum,   NFix, NCnnct, MaxDiis
       35     275       0       0       0       0       0       0


** GEOMETRY OPTIMIZATION IN DELOCALIZED INTERNAL COORDINATES **
   Searching for a Minimum

   Optimization Cycle:   1

                       Coordinates (Angstroms)
     ATOM                X               Y               Z
      1  C         0.0609541000    0.6388940700    0.6654182000
      2  C         0.4827749500   -0.8699362200    0.6354257600
      3  C        -1.2123664000    0.9695330000   -0.0797499200
      4  C        -0.5767291000   -1.7973332400    0.0576334900
      5  O        -1.8929555200    1.9440080800    0.5665179800
      6  O        -1.5737019800    0.4940655000   -1.1271289500
      7  O        -1.6956577800   -1.7036857300    0.8195502300
      8  O        -0.4777726400   -2.5499613900   -0.8740969400
      9  C        -2.8404854300   -2.4328664300    0.3414227900
     10  C        -3.0941926600    2.4050265200   -0.0788624600
     11  C         1.3021879600    1.3117838600   -0.0364551100
     12  C         2.4704213600    1.2844354400    0.9814460200
     13  C         2.8728735300   -0.2117052200    0.9495599000
     14  C         1.8702021600   -0.7996219800   -0.0844663100
     15  O         1.6899293100    0.3122071600   -0.9849871100
     16  H        -0.0494919000    1.0061976900    1.6839937600
     17  H         0.6143634500   -1.2134139200    1.6647665300
     18  H        -2.6252996800   -3.5013295300    0.2934754100
     19  H        -3.7882947400    1.5767108400   -0.2276942700
     20  H         3.2803860100    1.9237428700    0.6245888800
     21  H         2.1725136500    1.6406699100    1.9694840800
     22  H         3.8910484500   -0.3394912200    0.5783719500
     23  H         2.8082506500   -0.7047261900    1.9218781800
     24  H        -3.6323577400   -2.2346313200    1.0608279900
     25  H        -3.1207195100   -2.0740473000   -0.6502072500
     26  H        -2.8600121900    2.8538640100   -1.0455517800
     27  H        -3.5194880800    3.1461171200    0.5942874300
     28  C         2.3813840300   -2.0147874400   -0.8272151300
     29  H         3.3802610300   -1.8027203800   -1.2160642200
     30  H         2.4488146300   -2.8715404400   -0.1512260900
     31  H         1.7204714300   -2.2826006500   -1.6471914800
     32  C         1.0587422900    2.6388609600   -0.7209352000
     33  H         1.9834447800    2.9866457100   -1.1857762200
     34  H         0.3002595500    2.5428524400   -1.5000630300
     35  H         0.7286097300    3.3884464800    0.0024801300
   Point Group: c1    Number of degrees of freedom:    99


   Energy is   -844.529122506


 Attempting to Generate Delocalized Internal Coordinates

 99 Hessian modes will be used to form the next step
  Hessian Eigenvalues:
     0.002905    0.006270    0.006990    0.007440    0.007470    0.007600
     0.009783    0.010427    0.010476    0.011043    0.021341    0.021870
     0.023136    0.025689    0.035832    0.036115    0.037982    0.039346
     0.044018    0.045239    0.049957    0.050896    0.054743    0.055546
     0.056951    0.058138    0.058172    0.059640    0.060120    0.063104
     0.065465    0.066315    0.080067    0.085276    0.094403    0.101221
     0.101322    0.101430    0.105870    0.106080    0.110851    0.121220
     0.125059    0.151301    0.160000    0.160000    0.160000    0.160000
     0.160000    0.160000    0.160000    0.160000    0.160000    0.160000
     0.160000    0.160000    0.176858    0.228975    0.237688    0.249762
     0.249806    0.250000    0.250000    0.250000    0.250000    0.251911
     0.253491    0.260366    0.274623    0.301756    0.310364    0.310593
     0.311569    0.333964    0.344221    0.344585    0.344919    0.345057
     0.345728    0.346013    0.346014    0.346136    0.346303    0.346705
     0.346708    0.346799    0.347007    0.347103    0.348698    0.349986
     0.350363    0.350728    0.351982    0.396606    0.397124    0.535707
     0.543991    1.020258    1.039156

 Minimum Search - Taking Simple RFO Step
 Searching for Lamda that Minimizes Along All modes
 Value Taken    Lamda =  -0.00000198
 Step Taken.  Stepsize is  0.019188

                             Maximum     Tolerance    Cnvgd?
         Gradient           0.000034      0.000001      NO
         Displacement       0.005332      0.000001      NO
         Energy change     *********      0.000000      NO


 New Cartesian Coordinates Obtained by Inverse Iteration

 Displacement from previous Coordinates is:  0.051733
 Adding empirical dispersion correction 
 ----------------------------------------------------------------
 Doing -D3(op) with
 s6 =   1.00000
 s8 =   0.78311
 a1 =   0.30000
 a2 =   4.25000
 n  =  10.00000
 -D3 energy without 3body term =     -0.0414944729 hartrees
 ----------------------------------------------------------------
             Standard Nuclear Orientation (Angstroms)
    I     Atom           X                Y                Z
 ----------------------------------------------------------------
    1      C       0.0615078039     0.6384626970     0.6659157886
    2      C       0.4826699707    -0.8705026876     0.6351573722
    3      C      -1.2129893811     0.9697994272    -0.0770107239
    4      C      -0.5766294764    -1.7968706546     0.0552366561
    5      O      -1.8913502421     1.9454199034     0.5698704845
    6      O      -1.5774491205     0.4930942278    -1.1227483125
    7      O      -1.6969605571    -1.7020027860     0.8149583497
    8      O      -0.4754668585    -2.5522069655    -0.8740653449
    9      C      -2.8409269544    -2.4318696701     0.3358116699
   10      C      -3.0939537682     2.4064395218    -0.0730145267
   11      C       1.3018526892     1.3109994921    -0.0379730153
   12      C       2.4703643462     1.2859996393     0.9795382869
   13      C       2.8725411610    -0.2102409790     0.9508062738
   14      C       1.8708824770    -0.8002610337    -0.0830843189
   15      O       1.6901525852     0.3102371808    -0.9851129339
   16      H      -0.0470799053     1.0056986542     1.6847186744
   17      H       0.6125985383    -1.2151537866     1.6643243722
   18      H      -2.6259079564    -3.5004888894     0.2905152265
   19      H      -3.7890176771     1.5784058915    -0.2189284045
   20      H       3.2802941287     1.9244384149     0.6210397295
   21      H       2.1726048159     1.6444266115     1.9668257536
   22      H       3.8909575370    -0.3386585893     0.5804799088
   23      H       2.8073510622    -0.7015193442     1.9239656057
   24      H      -3.6343366805    -2.2319564418     1.0530481416
   25      H      -3.1188685191    -2.0750607264    -0.6571925353
   26      H      -2.8619725878     2.8537418511    -1.0409478442
   27      H      -3.5169550541     3.1487502611     0.6002251761
   28      C       2.3834986074    -2.0159150608    -0.8240769100
   29      H       3.3832936985    -1.8042729113    -1.2107796206
   30      H       2.4492057284    -2.8723727658    -0.1475382090
   31      H       1.7243209958    -2.2839835802    -1.6453660368
   32      C       1.0572461171     2.6366978605    -0.7247325702
   33      H       1.9815007086     2.9841965362    -1.1906660092
   34      H       0.2983618460     2.5387760405    -1.5032219437
   35      H       0.7270276217     3.3874157213    -0.0025209708
 ----------------------------------------------------------------
 Nuclear Repulsion Energy =  1397.7617726203 hartrees
 There are       65 alpha and       65 beta electrons
 Applying Cartesian multipole field
    Component          Value
    ---------          -----
     (2,0,0)        1.00000E-11
     (0,2,0)        2.00000E-11
     (0,0,2)       -3.00000E-11
 Nucleus-field energy     =     0.0000000375 hartrees
 Requested basis set is 6-311++G(d,p)
 There are 192 shells and 500 basis functions
 A cutoff of  1.0D-11 yielded  15027 shell pairs
 There are    103729 function pairs (    110538 Cartesian)
 Smallest overlap matrix eigenvalue = 3.82E-07

 Q-Chem warning in module /fs/scratch/osu6415/qchem-kaunlao-vdw/stvman/mkSTV.C, line 281:

 Overlap eigenvalue is smaller than square root of threshold

 Linear dependence detected in AO basis
 Number of orthogonalized atomic orbitals = 499
 Maximum deviation from orthogonality = 1.769E-10
 Guess MOs from SCF MO coefficient file
 Reading MOs from coefficient file
 Reading MOs from coefficient file
 A restricted hybrid HF-DFT SCF calculation will be
 performed using Pulay DIIS extrapolation
 Exchange:     0.2000 Hartree-Fock + 0.0800 Slater + 0.7200 B88
 Correlation:  0.1900 VWN1RPA + 0.8100 LYP
 Using SG-1 standard quadrature grid
 Dispersion:   Grimme D3
 SCF converges when DIIS error is below 1.0E-08
 Geometry optimization detected.  Setting ReadMinima to 0
 Setting SaveMinima to 0
 using 20 threads for integral computing
 -------------------------------------------------------
 OpenMP Integral computing Module                
 Release: version 1.0, May 2013, Q-Chem Inc. Pittsburgh 
 -------------------------------------------------------
 -------------------------------------------------------
 OpenMP BLAS3 based DFT computing Module                
 Release: version 1.0, May 2013, Q-Chem Inc. Pittsburgh 
 -------------------------------------------------------
 ---------------------------------------
  Cycle       Energy         DIIS Error
 ---------------------------------------
    1    -844.5285412768      8.57E-05
    2    -844.5291116919      1.76E-05
    3    -844.5291051030      2.43E-05
    4    -844.5291213791      3.94E-06
    5    -844.5291216697      1.73E-06
    6    -844.5291217339      4.75E-07
    7    -844.5291217390      1.87E-07
    8    -844.5291217395      6.38E-08
    9    -844.5291217395      1.73E-08
   10    -844.5291217419      8.86E-09 Convergence criterion met
 ---------------------------------------
 SCF time:  CPU 778.80 s  wall 40.75 s
 SCF   energy in the final basis set = -844.52912174
 Total energy in the final basis set = -844.52912174
 
 --------------------------------------------------------------
 
                    Orbital Energies (a.u.)
 --------------------------------------------------------------
 
 Alpha MOs
 -- Occupied --
-19.176 -19.166 -19.125 -19.117 -19.111 -10.306 -10.303 -10.242
-10.236 -10.231 -10.223 -10.203 -10.203 -10.177 -10.175 -10.169
-10.154  -1.117  -1.108  -1.059  -1.029  -1.023  -0.830  -0.803
 -0.782  -0.749  -0.725  -0.720  -0.670  -0.642  -0.601  -0.581
 -0.563  -0.553  -0.526  -0.508  -0.501  -0.491  -0.488  -0.480
 -0.473  -0.470  -0.456  -0.439  -0.433  -0.422  -0.419  -0.411
 -0.405  -0.396  -0.392  -0.373  -0.369  -0.365  -0.358  -0.355
 -0.352  -0.346  -0.331  -0.323  -0.318  -0.308  -0.289  -0.274
 -0.269
 -- Virtual --
 -0.019  -0.012  -0.005  -0.000   0.009   0.011   0.012   0.019
  0.025   0.030   0.035   0.038   0.043   0.044   0.048   0.051
  0.061   0.064   0.068   0.072   0.076   0.081   0.083   0.089
  0.093   0.100   0.104   0.105   0.108   0.113   0.115   0.116
  0.117   0.122   0.126   0.127   0.130   0.137   0.138   0.140
  0.140   0.144   0.145   0.150   0.152   0.156   0.156   0.161
  0.163   0.167   0.169   0.170   0.173   0.176   0.179   0.180
  0.184   0.187   0.193   0.195   0.197   0.201   0.204   0.210
  0.211   0.212   0.215   0.220   0.223   0.228   0.231   0.234
  0.241   0.246   0.251   0.258   0.259   0.268   0.271   0.275
  0.280   0.283   0.286   0.293   0.300   0.304   0.307   0.312
  0.318   0.321   0.330   0.332   0.339   0.342   0.344   0.349
  0.353   0.356   0.360   0.366   0.369   0.370   0.375   0.376
  0.380   0.384   0.391   0.394   0.401   0.407   0.412   0.419
  0.425   0.428   0.432   0.435   0.446   0.462   0.466   0.479
  0.488   0.495   0.499   0.509   0.519   0.526   0.537   0.539
  0.547   0.556   0.568   0.573   0.580   0.594   0.597   0.604
  0.615   0.620   0.622   0.636   0.642   0.647   0.653   0.656
  0.660   0.665   0.672   0.679   0.681   0.683   0.684   0.692
  0.699   0.708   0.715   0.720   0.727   0.729   0.734   0.740
  0.745   0.749   0.768   0.771   0.787   0.793   0.798   0.804
  0.805   0.818   0.822   0.847   0.849   0.858   0.885   0.912
  0.933   0.944   0.975   0.982   0.996   1.024   1.033   1.048
  1.067   1.071   1.084   1.087   1.110   1.127   1.131   1.150
  1.178   1.188   1.197   1.209   1.217   1.233   1.242   1.253
  1.261   1.274   1.281   1.290   1.304   1.312   1.322   1.339
  1.348   1.363   1.367   1.384   1.401   1.407   1.418   1.430
  1.439   1.442   1.464   1.468   1.474   1.487   1.502   1.521
  1.526   1.535   1.545   1.551   1.553   1.564   1.568   1.581
  1.586   1.594   1.597   1.611   1.612   1.625   1.628   1.639
  1.656   1.662   1.671   1.686   1.690   1.700   1.704   1.709
  1.714   1.718   1.733   1.741   1.749   1.750   1.755   1.776
  1.787   1.803   1.817   1.819   1.835   1.840   1.846   1.860
  1.871   1.883   1.903   1.912   1.928   1.935   1.963   1.970
  1.993   2.001   2.018   2.027   2.032   2.044   2.052   2.088
  2.096   2.104   2.117   2.137   2.144   2.149   2.160   2.175
  2.181   2.198   2.208   2.232   2.237   2.259   2.282   2.294
  2.320   2.378   2.399   2.402   2.421   2.443   2.454   2.463
  2.482   2.491   2.499   2.507   2.514   2.519   2.527   2.534
  2.541   2.549   2.558   2.577   2.582   2.589   2.598   2.605
  2.612   2.631   2.651   2.669   2.676   2.691   2.702   2.719
  2.725   2.742   2.759   2.795   2.818   2.831   2.843   2.859
  2.868   2.873   2.886   2.889   2.922   2.932   2.954   2.980
  2.992   3.004   3.009   3.035   3.042   3.051   3.061   3.074
  3.082   3.094   3.107   3.115   3.135   3.156   3.180   3.186
  3.211   3.218   3.237   3.248   3.272   3.305   3.318   3.355
  3.381   3.397   3.403   3.431   3.547   3.599   3.607   3.670
  3.683   3.694   3.738   3.776   3.792   3.823   3.824   3.834
  3.845   3.848   3.868   3.963   3.984   4.029   4.069   4.105
  4.124   4.132   4.143   4.162   4.178   4.255   4.285   4.314
  4.442   4.507   5.046   5.115   5.131   5.191   5.223   5.290
  5.312   5.404   5.424   5.511   5.634   5.639   5.688   5.884
  5.913  23.764  23.849  23.852  23.898  23.900  23.929  23.939
 23.949  23.958  23.989  24.002  24.042  49.911  49.919  49.990
 50.052  50.060
 --------------------------------------------------------------
 
          Ground-State Mulliken Net Atomic Charges

     Atom                 Charge (a.u.)
  ----------------------------------------
      1 C                     0.678682
      2 C                     0.422573
      3 C                    -1.522937
      4 C                    -0.513715
      5 O                     0.040886
      6 O                    -0.151144
      7 O                    -0.018656
      8 O                    -0.172548
      9 C                    -0.176694
     10 C                    -0.186373
     11 C                    -0.167824
     12 C                    -0.285090
     13 C                    -0.444378
     14 C                    -0.751286
     15 O                     0.039358
     16 H                     0.294885
     17 H                     0.260459
     18 H                     0.169611
     19 H                     0.162283
     20 H                     0.170303
     21 H                     0.140802
     22 H                     0.174849
     23 H                     0.139618
     24 H                     0.148876
     25 H                     0.190407
     26 H                     0.178503
     27 H                     0.154039
     28 C                    -0.026185
     29 H                     0.141504
     30 H                     0.160439
     31 H                     0.207704
     32 C                    -0.019709
     33 H                     0.177931
     34 H                     0.218474
     35 H                     0.164350
  ----------------------------------------
  Sum of atomic charges =    -0.000000

 -----------------------------------------------------------------
                    Cartesian Multipole Moments
 -----------------------------------------------------------------
    Charge (ESU x 10^10)
                -0.0000
    Dipole Moment (Debye)
         X      -0.7307      Y       1.9914      Z       3.5262
       Tot       4.1151
    Quadrupole Moments (Debye-Ang)
        XX     -89.3092     XY      -1.3355     YY     -97.6872
        XZ       1.3798     YZ      -4.7006     ZZ    -107.8777
    Octopole Moments (Debye-Ang^2)
       XXX     -59.6102    XXY       0.8934    XYY     -24.7519
       YYY      19.8671    XXZ       2.1264    XYZ       4.0088
       YYZ       3.3752    XZZ      -2.6608    YZZ       2.6709
       ZZZ       1.1854
    Hexadecapole Moments (Debye-Ang^3)
      XXXX   -2292.6230   XXXY      -0.0709   XXYY    -637.8759
      XYYY       1.0171   YYYY   -1945.2307   XXXZ     -25.0347
      XXYZ      -7.5375   XYYZ      -8.3429   YYYZ     -53.2434
      XXZZ    -510.3822   XYZZ      -2.9129   YYZZ    -412.6410
      XZZZ      -2.9843   YZZZ      -8.0289   ZZZZ    -479.4806
 -----------------------------------------------------------------
 Calculating analytic gradient of the SCF energy
 Gradient of SCF Energy
            1           2           3           4           5           6
    1   0.0000151  -0.0000489   0.0000765  -0.0000317  -0.0000355  -0.0000387
    2   0.0000353  -0.0001442   0.0000597   0.0002331  -0.0000053  -0.0000748
    3   0.0000592   0.0000009  -0.0000928  -0.0002203   0.0000443   0.0000804
            7           8           9          10          11          12
    1   0.0000123  -0.0000042  -0.0000125   0.0000068  -0.0000502   0.0000130
    2   0.0000234  -0.0000656  -0.0000231  -0.0000083  -0.0000677   0.0000061
    3  -0.0000083   0.0000794  -0.0000061   0.0000130  -0.0000203  -0.0000031
           13          14          15          16          17          18
    1  -0.0000068   0.0000776   0.0000338  -0.0000055   0.0000126  -0.0000048
    2  -0.0000185  -0.0000137  -0.0000303  -0.0000060   0.0000460   0.0000034
    3   0.0000104  -0.0000085   0.0000473   0.0000103  -0.0000025  -0.0000259
           19          20          21          22          23          24
    1  -0.0000022  -0.0000094  -0.0000114   0.0000008   0.0000079   0.0000001
    2   0.0000052   0.0000074  -0.0000179   0.0000033  -0.0000085  -0.0000066
    3   0.0000014   0.0000175   0.0000140  -0.0000013   0.0000008  -0.0000136
           25          26          27          28          29          30
    1   0.0000012   0.0000030  -0.0000028  -0.0000163  -0.0000040   0.0000127
    2  -0.0000001   0.0000077  -0.0000005   0.0000157   0.0000156   0.0000074
    3  -0.0000233   0.0000105   0.0000107  -0.0000252  -0.0000144   0.0000007
           31          32          33          34          35
    1   0.0000080  -0.0000048   0.0000010   0.0000070   0.0000005
    2  -0.0000037   0.0000059   0.0000093   0.0000161  -0.0000058
    3  -0.0000086   0.0000395   0.0000117   0.0000039   0.0000185
 Max gradient component =       2.331E-04
 RMS gradient           =       4.452E-05
 Gradient time:  CPU 395.36 s  wall 27.59 s
 Geometry Optimization Parameters
   NAtoms,    NIC,     NZ,  NCons,   NDum,   NFix, NCnnct, MaxDiis
       35     275       0       0       0       0       0       0

 Cartesian Hessian Update
 Hessian Updated using BFGS Update


** GEOMETRY OPTIMIZATION IN DELOCALIZED INTERNAL COORDINATES **
   Searching for a Minimum

   Optimization Cycle:   2

                       Coordinates (Angstroms)
     ATOM                X               Y               Z
      1  C         0.0615078039    0.6384626970    0.6659157886
      2  C         0.4826699707   -0.8705026876    0.6351573722
      3  C        -1.2129893811    0.9697994272   -0.0770107239
      4  C        -0.5766294764   -1.7968706546    0.0552366561
      5  O        -1.8913502421    1.9454199034    0.5698704845
      6  O        -1.5774491205    0.4930942278   -1.1227483125
      7  O        -1.6969605571   -1.7020027860    0.8149583497
      8  O        -0.4754668585   -2.5522069655   -0.8740653449
      9  C        -2.8409269544   -2.4318696701    0.3358116699
     10  C        -3.0939537682    2.4064395218   -0.0730145267
     11  C         1.3018526892    1.3109994921   -0.0379730153
     12  C         2.4703643462    1.2859996393    0.9795382869
     13  C         2.8725411610   -0.2102409790    0.9508062738
     14  C         1.8708824770   -0.8002610337   -0.0830843189
     15  O         1.6901525852    0.3102371808   -0.9851129339
     16  H        -0.0470799053    1.0056986542    1.6847186744
     17  H         0.6125985383   -1.2151537866    1.6643243722
     18  H        -2.6259079564   -3.5004888894    0.2905152265
     19  H        -3.7890176771    1.5784058915   -0.2189284045
     20  H         3.2802941287    1.9244384149    0.6210397295
     21  H         2.1726048159    1.6444266115    1.9668257536
     22  H         3.8909575370   -0.3386585893    0.5804799088
     23  H         2.8073510622   -0.7015193442    1.9239656057
     24  H        -3.6343366805   -2.2319564418    1.0530481416
     25  H        -3.1188685191   -2.0750607264   -0.6571925353
     26  H        -2.8619725878    2.8537418511   -1.0409478442
     27  H        -3.5169550541    3.1487502611    0.6002251761
     28  C         2.3834986074   -2.0159150608   -0.8240769100
     29  H         3.3832936985   -1.8042729113   -1.2107796206
     30  H         2.4492057284   -2.8723727658   -0.1475382090
     31  H         1.7243209958   -2.2839835802   -1.6453660368
     32  C         1.0572461171    2.6366978605   -0.7247325702
     33  H         1.9815007086    2.9841965362   -1.1906660092
     34  H         0.2983618460    2.5387760405   -1.5032219437
     35  H         0.7270276217    3.3874157213   -0.0025209708
   Point Group: c1    Number of degrees of freedom:    99


   Energy is   -844.529121742

 Hessian Updated using BFGS Update

 87 Hessian modes will be used to form the next step
  Hessian Eigenvalues:
     0.002916    0.006062    0.006629    0.007355    0.007470    0.007980
     0.010000    0.010424    0.010459    0.018749    0.021827    0.022468
     0.023232    0.025837    0.035831    0.036380    0.037370    0.039419
     0.044158    0.045369    0.050601    0.052643    0.055421    0.055695
     0.056714    0.058114    0.058170    0.059636    0.060155    0.063711
     0.065440    0.066337    0.080193    0.085337    0.094979    0.101167
     0.101378    0.101595    0.105869    0.106092    0.111336    0.122735
     0.126651    0.155797    0.159790    0.160340    0.180406    0.228998
     0.238689    0.249759    0.249943    0.249966    0.251118    0.252271
     0.253603    0.260603    0.274620    0.301517    0.310302    0.310589
     0.311312    0.334938    0.344227    0.344591    0.344909    0.345055
     0.345728    0.346006    0.346014    0.346137    0.346295    0.346706
     0.346708    0.346816    0.346998    0.347102    0.348741    0.350008
     0.350362    0.350720    0.351983    0.396486    0.397297    0.535675
     0.544231    1.020300    1.039285

 Minimum Search - Taking Simple RFO Step
 Searching for Lamda that Minimizes Along All modes
 Value Taken    Lamda =  -0.00000178
 Step Taken.  Stepsize is  0.007896

                             Maximum     Tolerance    Cnvgd?
         Gradient           0.000142      0.000001      NO
         Displacement       0.002375      0.000001      NO
         Energy change      0.000001      0.000000      NO


 New Cartesian Coordinates Obtained by Inverse Iteration

 Displacement from previous Coordinates is:  0.021613
 Adding empirical dispersion correction 
 ----------------------------------------------------------------
 Doing -D3(op) with
 s6 =   1.00000
 s8 =   0.78311
 a1 =   0.30000
 a2 =   4.25000
 n  =  10.00000
 -D3 energy without 3body term =     -0.0414945246 hartrees
 ----------------------------------------------------------------
             Standard Nuclear Orientation (Angstroms)
    I     Atom           X                Y                Z
 ----------------------------------------------------------------
    1      C       0.0608929236     0.6379312306     0.6663204911
    2      C       0.4826688456    -0.8709048613     0.6354496184
    3      C      -1.2134014648     0.9694410537    -0.0769385154
    4      C      -0.5762360070    -1.7982829804     0.0563161466
    5      O      -1.8912535621     1.9458066542     0.5693213805
    6      O      -1.5764667695     0.4945822104    -1.1240093305
    7      O      -1.6961982534    -1.7043790448     0.8167079170
    8      O      -0.4754881970    -2.5523160628    -0.8740986555
    9      C      -2.8403043766    -2.4338602945     0.3373495075
   10      C      -3.0924949419     2.4085328962    -0.0749068102
   11      C       1.3011188624     1.3110728469    -0.0373399341
   12      C       2.4699105346     1.2858691085     0.9798506427
   13      C       2.8723286350    -0.2102680776     0.9504352008
   14      C       1.8704740722    -0.8000864849    -0.0833500517
   15      O       1.6892506561     0.3107003106    -0.9849657247
   16      H      -0.0479535262     1.0049096086     1.6851845296
   17      H       0.6132310043    -1.2157216368     1.6644928246
   18      H      -2.6252500407    -3.5024333178     0.2910187617
   19      H      -3.7885013665     1.5814446286    -0.2216948182
   20      H       3.2796902256     1.9244758831     0.6213043696
   21      H       2.1724053423     1.6439624761     1.9673322941
   22      H       3.8906371946    -0.3383817427     0.5797044671
   23      H       2.8075279679    -0.7019527485     1.9234143416
   24      H      -3.6334557987    -2.2346130004     1.0550546106
   25      H      -3.1186368026    -2.0761707361    -0.6552252968
   26      H      -2.8587990509     2.8555884430    -1.0425423772
   27      H      -3.5152474566     3.1513536125     0.5979207849
   28      C       2.3830295547    -2.0154394768    -0.8249044173
   29      H       3.3831032947    -1.8039644875    -1.2109721373
   30      H       2.4480205982    -2.8724289786    -0.1489722065
   31      H       1.7240976522    -2.2826342856    -1.6466777669
   32      C       1.0561960030     2.6368758367    -0.7237904952
   33      H       1.9802965885     2.9845314530    -1.1899052027
   34      H       0.2970788829     2.5389628423    -1.5020483004
   35      H       0.7260964761     3.3874601823    -0.0013786081
 ----------------------------------------------------------------
 Nuclear Repulsion Energy =  1397.7056084940 hartrees
 There are       65 alpha and       65 beta electrons
 Applying Cartesian multipole field
    Component          Value
    ---------          -----
     (2,0,0)        1.00000E-11
     (0,2,0)        2.00000E-11
     (0,0,2)       -3.00000E-11
 Nucleus-field energy     =     0.0000000375 hartrees
 Requested basis set is 6-311++G(d,p)
 There are 192 shells and 500 basis functions
 A cutoff of  1.0D-11 yielded  15028 shell pairs
 There are    103733 function pairs (    110542 Cartesian)
 Smallest overlap matrix eigenvalue = 3.82E-07

 Q-Chem warning in module /fs/scratch/osu6415/qchem-kaunlao-vdw/stvman/mkSTV.C, line 281:

 Overlap eigenvalue is smaller than square root of threshold

 Linear dependence detected in AO basis
 Number of orthogonalized atomic orbitals = 499
 Maximum deviation from orthogonality = 1.357E-10
 Guess MOs from SCF MO coefficient file
 Reading MOs from coefficient file
 Reading MOs from coefficient file
 A restricted hybrid HF-DFT SCF calculation will be
 performed using Pulay DIIS extrapolation
 Exchange:     0.2000 Hartree-Fock + 0.0800 Slater + 0.7200 B88
 Correlation:  0.1900 VWN1RPA + 0.8100 LYP
 Using SG-1 standard quadrature grid
 Dispersion:   Grimme D3
 SCF converges when DIIS error is below 1.0E-08
 Geometry optimization detected.  Setting ReadMinima to 0
 Setting SaveMinima to 0
 using 20 threads for integral computing
 -------------------------------------------------------
 OpenMP Integral computing Module                
 Release: version 1.0, May 2013, Q-Chem Inc. Pittsburgh 
 -------------------------------------------------------
 -------------------------------------------------------
 OpenMP BLAS3 based DFT computing Module                
 Release: version 1.0, May 2013, Q-Chem Inc. Pittsburgh 
 -------------------------------------------------------
 ---------------------------------------
  Cycle       Energy         DIIS Error
 ---------------------------------------
    1    -844.5292054555      3.16E-05
    2    -844.5291227683      3.09E-06
    3    -844.5291226466      4.22E-06
    4    -844.5291231232      8.35E-07
    5    -844.5291231325      5.11E-07
    6    -844.5291231389      1.56E-07
    7    -844.5291231385      6.47E-08
    8    -844.5291231389      1.50E-08
    9    -844.5291231334      3.90E-09 Convergence criterion met
 ---------------------------------------
 SCF time:  CPU 688.34 s  wall 36.47 s
 SCF   energy in the final basis set = -844.52912313
 Total energy in the final basis set = -844.52912313
 
 --------------------------------------------------------------
 
                    Orbital Energies (a.u.)
 --------------------------------------------------------------
 
 Alpha MOs
 -- Occupied --
-19.176 -19.166 -19.125 -19.117 -19.112 -10.306 -10.303 -10.242
-10.236 -10.231 -10.223 -10.203 -10.203 -10.177 -10.175 -10.169
-10.154  -1.117  -1.108  -1.059  -1.029  -1.023  -0.830  -0.803
 -0.782  -0.749  -0.725  -0.720  -0.670  -0.642  -0.601  -0.581
 -0.563  -0.553  -0.526  -0.508  -0.501  -0.491  -0.488  -0.480
 -0.473  -0.470  -0.456  -0.439  -0.433  -0.422  -0.419  -0.411
 -0.405  -0.396  -0.392  -0.373  -0.369  -0.365  -0.358  -0.355
 -0.352  -0.346  -0.331  -0.323  -0.318  -0.308  -0.289  -0.274
 -0.269
 -- Virtual --
 -0.019  -0.012  -0.005  -0.000   0.009   0.011   0.012   0.019
  0.025   0.030   0.035   0.038   0.043   0.044   0.048   0.051
  0.061   0.064   0.068   0.072   0.076   0.081   0.083   0.089
  0.093   0.100   0.104   0.105   0.108   0.113   0.115   0.116
  0.118   0.122   0.126   0.127   0.130   0.137   0.138   0.140
  0.140   0.144   0.145   0.150   0.152   0.156   0.156   0.161
  0.163   0.167   0.169   0.170   0.173   0.176   0.179   0.180
  0.184   0.187   0.193   0.195   0.197   0.201   0.204   0.210
  0.211   0.212   0.215   0.220   0.223   0.228   0.231   0.234
  0.241   0.246   0.251   0.258   0.259   0.268   0.271   0.275
  0.280   0.283   0.286   0.293   0.300   0.304   0.307   0.312
  0.318   0.321   0.330   0.332   0.339   0.342   0.344   0.349
  0.353   0.356   0.360   0.366   0.369   0.370   0.375   0.376
  0.380   0.384   0.391   0.394   0.401   0.407   0.412   0.419
  0.425   0.428   0.432   0.435   0.446   0.462   0.466   0.479
  0.488   0.495   0.499   0.509   0.519   0.526   0.537   0.539
  0.547   0.556   0.568   0.573   0.580   0.594   0.597   0.604
  0.615   0.620   0.622   0.636   0.642   0.647   0.653   0.656
  0.660   0.665   0.672   0.679   0.681   0.683   0.684   0.692
  0.699   0.708   0.715   0.720   0.727   0.729   0.734   0.740
  0.745   0.749   0.768   0.771   0.787   0.793   0.798   0.803
  0.805   0.818   0.822   0.847   0.849   0.858   0.885   0.912
  0.933   0.944   0.975   0.982   0.996   1.024   1.034   1.048
  1.067   1.071   1.083   1.087   1.110   1.127   1.131   1.150
  1.178   1.188   1.197   1.209   1.217   1.233   1.242   1.253
  1.261   1.274   1.281   1.291   1.304   1.312   1.322   1.339
  1.348   1.363   1.367   1.384   1.401   1.406   1.418   1.430
  1.439   1.442   1.464   1.468   1.474   1.487   1.502   1.521
  1.526   1.535   1.545   1.551   1.553   1.564   1.568   1.581
  1.586   1.594   1.597   1.611   1.612   1.625   1.628   1.639
  1.656   1.662   1.671   1.686   1.690   1.700   1.704   1.709
  1.715   1.718   1.733   1.741   1.749   1.750   1.755   1.776
  1.787   1.803   1.817   1.819   1.835   1.840   1.846   1.860
  1.871   1.883   1.903   1.912   1.928   1.935   1.963   1.970
  1.993   2.001   2.018   2.027   2.032   2.044   2.051   2.088
  2.096   2.104   2.117   2.137   2.144   2.149   2.160   2.175
  2.181   2.198   2.208   2.232   2.237   2.259   2.282   2.294
  2.320   2.378   2.399   2.402   2.421   2.443   2.454   2.462
  2.482   2.491   2.499   2.507   2.514   2.519   2.527   2.534
  2.541   2.549   2.557   2.577   2.582   2.588   2.597   2.605
  2.612   2.631   2.651   2.669   2.676   2.690   2.703   2.719
  2.725   2.743   2.759   2.795   2.818   2.831   2.843   2.859
  2.868   2.873   2.886   2.889   2.922   2.932   2.954   2.980
  2.992   3.004   3.009   3.035   3.042   3.051   3.062   3.074
  3.082   3.093   3.107   3.115   3.135   3.156   3.180   3.186
  3.211   3.218   3.237   3.248   3.272   3.305   3.319   3.355
  3.381   3.397   3.403   3.431   3.547   3.599   3.607   3.670
  3.683   3.694   3.738   3.776   3.792   3.823   3.824   3.834
  3.845   3.848   3.868   3.963   3.984   4.029   4.069   4.105
  4.124   4.132   4.143   4.162   4.178   4.255   4.285   4.314
  4.442   4.507   5.046   5.115   5.131   5.191   5.223   5.290
  5.312   5.404   5.424   5.511   5.634   5.639   5.688   5.884
  5.913  23.764  23.849  23.852  23.897  23.900  23.929  23.939
 23.949  23.958  23.989  24.002  24.042  49.911  49.919  49.990
 50.051  50.060
 --------------------------------------------------------------
 
          Ground-State Mulliken Net Atomic Charges

     Atom                 Charge (a.u.)
  ----------------------------------------
      1 C                     0.678532
      2 C                     0.421969
      3 C                    -1.524108
      4 C                    -0.511117
      5 O                     0.041094
      6 O                    -0.151066
      7 O                    -0.018661
      8 O                    -0.172362
      9 C                    -0.176623
     10 C                    -0.186342
     11 C                    -0.167457
     12 C                    -0.284989
     13 C                    -0.445268
     14 C                    -0.752578
     15 O                     0.039521
     16 H                     0.294788
     17 H                     0.260486
     18 H                     0.169656
     19 H                     0.162354
     20 H                     0.170290
     21 H                     0.140849
     22 H                     0.174816
     23 H                     0.139621
     24 H                     0.148914
     25 H                     0.190334
     26 H                     0.178457
     27 H                     0.154037
     28 C                    -0.026398
     29 H                     0.141437
     30 H                     0.160496
     31 H                     0.207762
     32 C                    -0.019337
     33 H                     0.177894
     34 H                     0.218645
     35 H                     0.164353
  ----------------------------------------
  Sum of atomic charges =    -0.000000

 -----------------------------------------------------------------
                    Cartesian Multipole Moments
 -----------------------------------------------------------------
    Charge (ESU x 10^10)
                -0.0000
    Dipole Moment (Debye)
         X      -0.7306      Y       1.9879      Z       3.5274
       Tot       4.1144
    Quadrupole Moments (Debye-Ang)
        XX     -89.3113     XY      -1.3322     YY     -97.6685
        XZ       1.3794     YZ      -4.7005     ZZ    -107.8872
    Octopole Moments (Debye-Ang^2)
       XXX     -59.5654    XXY       0.8842    XYY     -24.7887
       YYY      19.8824    XXZ       2.1020    XYZ       4.0286
       YYZ       3.3665    XZZ      -2.6411    YZZ       2.6782
       ZZZ       1.1604
    Hexadecapole Moments (Debye-Ang^3)
      XXXX   -2291.4958   XXXY       0.0477   XXYY    -637.8050
      XYYY       1.0099   YYYY   -1946.2315   XXXZ     -25.0243
      XXYZ      -7.5159   XYYZ      -8.3370   YYYZ     -53.0121
      XXZZ    -510.2123   XYZZ      -2.8994   YYZZ    -412.9325
      XZZZ      -3.0261   YZZZ      -7.7294   ZZZZ    -479.7491
 -----------------------------------------------------------------
 Calculating analytic gradient of the SCF energy
 Gradient of SCF Energy
            1           2           3           4           5           6
    1   0.0000701  -0.0000260  -0.0001373   0.0000145   0.0000392   0.0000505
    2   0.0001115  -0.0000462  -0.0001719   0.0000069   0.0000600   0.0001013
    3  -0.0000325  -0.0000343   0.0001251  -0.0000301  -0.0000425  -0.0000424
            7           8           9          10          11          12
    1  -0.0000151   0.0000021  -0.0000017   0.0000026  -0.0000240   0.0000292
    2  -0.0000048  -0.0000147  -0.0000003  -0.0000010  -0.0000407   0.0000045
    3  -0.0000021   0.0000038  -0.0000089   0.0000129   0.0000338   0.0000002
           13          14          15          16          17          18
    1  -0.0000228   0.0000453   0.0000000  -0.0000065  -0.0000053   0.0000003
    2  -0.0000083  -0.0000010  -0.0000021  -0.0000049  -0.0000101   0.0000007
    3   0.0000178   0.0000006   0.0000226   0.0000002  -0.0000216  -0.0000250
           19          20          21          22          23          24
    1   0.0000010   0.0000015  -0.0000088  -0.0000023   0.0000047  -0.0000006
    2   0.0000007  -0.0000018  -0.0000139  -0.0000010  -0.0000098  -0.0000038
    3   0.0000016   0.0000166   0.0000099  -0.0000072   0.0000004  -0.0000152
           25          26          27          28          29          30
    1   0.0000003  -0.0000017  -0.0000007  -0.0000150  -0.0000017   0.0000074
    2   0.0000034   0.0000090   0.0000004   0.0000090   0.0000151   0.0000034
    3  -0.0000182   0.0000083   0.0000088  -0.0000237  -0.0000080  -0.0000018
           31          32          33          34          35
    1   0.0000047   0.0000045   0.0000004  -0.0000056  -0.0000033
    2   0.0000003  -0.0000108   0.0000125   0.0000117  -0.0000033
    3  -0.0000070   0.0000190   0.0000132   0.0000067   0.0000190
 Max gradient component =       1.719E-04
 RMS gradient           =       3.427E-05
 Gradient time:  CPU 393.08 s  wall 27.43 s
 Geometry Optimization Parameters
   NAtoms,    NIC,     NZ,  NCons,   NDum,   NFix, NCnnct, MaxDiis
       35     275       0       0       0       0       0       0

 Cartesian Hessian Update
 Hessian Updated using BFGS Update


** GEOMETRY OPTIMIZATION IN DELOCALIZED INTERNAL COORDINATES **
   Searching for a Minimum

   Optimization Cycle:   3

                       Coordinates (Angstroms)
     ATOM                X               Y               Z
      1  C         0.0608929236    0.6379312306    0.6663204911
      2  C         0.4826688456   -0.8709048613    0.6354496184
      3  C        -1.2134014648    0.9694410537   -0.0769385154
      4  C        -0.5762360070   -1.7982829804    0.0563161466
      5  O        -1.8912535621    1.9458066542    0.5693213805
      6  O        -1.5764667695    0.4945822104   -1.1240093305
      7  O        -1.6961982534   -1.7043790448    0.8167079170
      8  O        -0.4754881970   -2.5523160628   -0.8740986555
      9  C        -2.8403043766   -2.4338602945    0.3373495075
     10  C        -3.0924949419    2.4085328962   -0.0749068102
     11  C         1.3011188624    1.3110728469   -0.0373399341
     12  C         2.4699105346    1.2858691085    0.9798506427
     13  C         2.8723286350   -0.2102680776    0.9504352008
     14  C         1.8704740722   -0.8000864849   -0.0833500517
     15  O         1.6892506561    0.3107003106   -0.9849657247
     16  H        -0.0479535262    1.0049096086    1.6851845296
     17  H         0.6132310043   -1.2157216368    1.6644928246
     18  H        -2.6252500407   -3.5024333178    0.2910187617
     19  H        -3.7885013665    1.5814446286   -0.2216948182
     20  H         3.2796902256    1.9244758831    0.6213043696
     21  H         2.1724053423    1.6439624761    1.9673322941
     22  H         3.8906371946   -0.3383817427    0.5797044671
     23  H         2.8075279679   -0.7019527485    1.9234143416
     24  H        -3.6334557987   -2.2346130004    1.0550546106
     25  H        -3.1186368026   -2.0761707361   -0.6552252968
     26  H        -2.8587990509    2.8555884430   -1.0425423772
     27  H        -3.5152474566    3.1513536125    0.5979207849
     28  C         2.3830295547   -2.0154394768   -0.8249044173
     29  H         3.3831032947   -1.8039644875   -1.2109721373
     30  H         2.4480205982   -2.8724289786   -0.1489722065
     31  H         1.7240976522   -2.2826342856   -1.6466777669
     32  C         1.0561960030    2.6368758367   -0.7237904952
     33  H         1.9802965885    2.9845314530   -1.1899052027
     34  H         0.2970788829    2.5389628423   -1.5020483004
     35  H         0.7260964761    3.3874601823   -0.0013786081
   Point Group: c1    Number of degrees of freedom:    99


   Energy is   -844.529123133

 Hessian Updated using BFGS Update

 89 Hessian modes will be used to form the next step
  Hessian Eigenvalues:
     0.002882    0.006086    0.006282    0.006992    0.007470    0.007622
     0.009492    0.010405    0.010446    0.020940    0.021854    0.023007
     0.024601    0.030241    0.035825    0.037333    0.037778    0.039368
     0.044319    0.046372    0.050551    0.053372    0.054989    0.055786
     0.057806    0.058090    0.058464    0.059636    0.060074    0.064184
     0.065444    0.066389    0.080558    0.085304    0.095004    0.101184
     0.101424    0.101869    0.105869    0.106082    0.111996    0.122291
     0.124978    0.157919    0.159752    0.159993    0.162306    0.177500
     0.228571    0.243976    0.249611    0.249938    0.249971    0.250000
     0.251042    0.252896    0.254149    0.263286    0.274723    0.301488
     0.310261    0.310589    0.312259    0.334019    0.344222    0.344539
     0.344911    0.345055    0.345728    0.346004    0.346017    0.346134
     0.346338    0.346703    0.346709    0.346800    0.346997    0.347102
     0.348770    0.350027    0.350361    0.350720    0.351981    0.396496
     0.397301    0.535789    0.544041    1.019979    1.039148

 Minimum Search - Taking Simple RFO Step
 Searching for Lamda that Minimizes Along All modes
 Value Taken    Lamda =  -0.00000123
 Step Taken.  Stepsize is  0.011417

                             Maximum     Tolerance    Cnvgd?
         Gradient           0.000091      0.000001      NO
         Displacement       0.004833      0.000001      NO
         Energy change     -0.000001      0.000000      NO


 New Cartesian Coordinates Obtained by Inverse Iteration

 Displacement from previous Coordinates is:  0.028317
 Adding empirical dispersion correction 
 ----------------------------------------------------------------
 Doing -D3(op) with
 s6 =   1.00000
 s8 =   0.78311
 a1 =   0.30000
 a2 =   4.25000
 n  =  10.00000
 -D3 energy without 3body term =     -0.0414968163 hartrees
 ----------------------------------------------------------------
             Standard Nuclear Orientation (Angstroms)
    I     Atom           X                Y                Z
 ----------------------------------------------------------------
    1      C       0.0612723690     0.6387086784     0.6658398369
    2      C       0.4829919963    -0.8700933767     0.6358072818
    3      C      -1.2122602174     0.9700354286    -0.0787587815
    4      C      -0.5760772110    -1.7978404732     0.0575274027
    5      O      -1.8925513058     1.9440725750     0.5684285534
    6      O      -1.5751614160     0.4936830240    -1.1252193398
    7      O      -1.6957308258    -1.7039148005     0.8183500364
    8      O      -0.4765909990    -2.5498482634    -0.8746668420
    9      C      -2.8406543522    -2.4316602885     0.3383245529
   10      C      -3.0947082971     2.4047277683    -0.0755737145
   11      C       1.3021437256     1.3116437546    -0.0371052404
   12      C       2.4707544366     1.2854502280     0.9802950835
   13      C       2.8727337341    -0.2107888521     0.9502252137
   14      C       1.8704495959    -0.7997773769    -0.0835672906
   15      O       1.6898020214     0.3113285019    -0.9849734028
   16      H      -0.0484001419     1.0059820422     1.6845086194
   17      H       0.6139415592    -1.2144842303     1.6649674162
   18      H      -2.6266800662    -3.5003920617     0.2906243634
   19      H      -3.7887675263     1.5761985614    -0.2234358624
   20      H       3.2808366220     1.9238658289     0.6220935175
   21      H       2.1733503990     1.6432707431     1.9679039224
   22      H       3.8909690932    -0.3391843489     0.5793987496
   23      H       2.8077532663    -0.7028239544     1.9230146548
   24      H      -3.6334607461    -2.2325169976     1.0564400326
   25      H      -3.1188491823    -2.0724271131    -0.6537253325
   26      H      -2.8617935204     2.8533821128    -1.0426550408
   27      H      -3.5193193110     3.1458221292     0.5979850877
   28      C       2.3821237344    -2.0153574693    -0.8253874943
   29      H       3.3825421484    -1.8047991568    -1.2110614500
   30      H       2.4459715108    -2.8727275035    -0.1498401368
   31      H       1.7231473313    -2.2815006106    -1.6474713312
   32      C       1.0582154196     2.6377840402    -0.7232666922
   33      H       1.9826759266     2.9848878611    -1.1890716605
   34      H       0.2992323712     2.5405044827    -1.5017174333
   35      H       0.7284655577     3.3884521773    -0.0007800396
 ----------------------------------------------------------------
 Nuclear Repulsion Energy =  1397.7478391452 hartrees
 There are       65 alpha and       65 beta electrons
 Applying Cartesian multipole field
    Component          Value
    ---------          -----
     (2,0,0)        1.00000E-11
     (0,2,0)        2.00000E-11
     (0,0,2)       -3.00000E-11
 Nucleus-field energy     =     0.0000000375 hartrees
 Requested basis set is 6-311++G(d,p)
 There are 192 shells and 500 basis functions
 A cutoff of  1.0D-11 yielded  15028 shell pairs
 There are    103733 function pairs (    110542 Cartesian)
 Smallest overlap matrix eigenvalue = 3.82E-07

 Q-Chem warning in module /fs/scratch/osu6415/qchem-kaunlao-vdw/stvman/mkSTV.C, line 281:

 Overlap eigenvalue is smaller than square root of threshold

 Linear dependence detected in AO basis
 Number of orthogonalized atomic orbitals = 499
 Maximum deviation from orthogonality = 1.200E-10
 Guess MOs from SCF MO coefficient file
 Reading MOs from coefficient file
 Reading MOs from coefficient file
 A restricted hybrid HF-DFT SCF calculation will be
 performed using Pulay DIIS extrapolation
 Exchange:     0.2000 Hartree-Fock + 0.0800 Slater + 0.7200 B88
 Correlation:  0.1900 VWN1RPA + 0.8100 LYP
 Using SG-1 standard quadrature grid
 Dispersion:   Grimme D3
 SCF converges when DIIS error is below 1.0E-08
 Geometry optimization detected.  Setting ReadMinima to 0
 Setting SaveMinima to 0
 using 20 threads for integral computing
 -------------------------------------------------------
 OpenMP Integral computing Module                
 Release: version 1.0, May 2013, Q-Chem Inc. Pittsburgh 
 -------------------------------------------------------
 -------------------------------------------------------
 OpenMP BLAS3 based DFT computing Module                
 Release: version 1.0, May 2013, Q-Chem Inc. Pittsburgh 
 -------------------------------------------------------
 ---------------------------------------
  Cycle       Energy         DIIS Error
 ---------------------------------------
    1    -844.5295774827      4.48E-05
    2    -844.5291187283      8.80E-06
    3    -844.5291171898      1.21E-05
    4    -844.5291211306      2.36E-06
    5    -844.5291212379      9.53E-07
    6    -844.5291212578      2.55E-07
    7    -844.5291212592      9.78E-08
    8    -844.5291212591      3.43E-08
    9    -844.5291212585      1.01E-08
   10    -844.5291212487      5.22E-09 Convergence criterion met
 ---------------------------------------
 SCF time:  CPU 763.46 s  wall 40.55 s
 SCF   energy in the final basis set = -844.52912125
 Total energy in the final basis set = -844.52912125
 
 --------------------------------------------------------------
 
                    Orbital Energies (a.u.)
 --------------------------------------------------------------
 
 Alpha MOs
 -- Occupied --
-19.176 -19.166 -19.125 -19.117 -19.112 -10.306 -10.303 -10.242
-10.236 -10.231 -10.223 -10.203 -10.203 -10.177 -10.175 -10.169
-10.154  -1.117  -1.108  -1.059  -1.029  -1.023  -0.830  -0.803
 -0.782  -0.749  -0.725  -0.720  -0.670  -0.642  -0.601  -0.581
 -0.563  -0.553  -0.526  -0.508  -0.501  -0.491  -0.488  -0.480
 -0.473  -0.470  -0.456  -0.439  -0.433  -0.422  -0.419  -0.411
 -0.405  -0.396  -0.392  -0.373  -0.369  -0.365  -0.358  -0.355
 -0.352  -0.346  -0.331  -0.323  -0.318  -0.308  -0.289  -0.274
 -0.269
 -- Virtual --
 -0.019  -0.012  -0.005  -0.000   0.009   0.011   0.012   0.019
  0.025   0.030   0.035   0.038   0.043   0.044   0.048   0.051
  0.061   0.064   0.068   0.072   0.076   0.081   0.083   0.089
  0.093   0.100   0.104   0.105   0.108   0.113   0.115   0.116
  0.117   0.122   0.126   0.127   0.130   0.137   0.138   0.140
  0.140   0.144   0.145   0.150   0.152   0.156   0.156   0.161
  0.163   0.167   0.169   0.170   0.174   0.176   0.179   0.180
  0.184   0.187   0.193   0.195   0.197   0.201   0.204   0.210
  0.211   0.212   0.215   0.220   0.223   0.228   0.231   0.234
  0.241   0.246   0.251   0.258   0.259   0.268   0.271   0.275
  0.280   0.283   0.286   0.293   0.300   0.304   0.307   0.312
  0.318   0.321   0.330   0.332   0.339   0.342   0.344   0.349
  0.353   0.356   0.360   0.366   0.369   0.370   0.375   0.376
  0.380   0.384   0.391   0.394   0.401   0.407   0.412   0.419
  0.425   0.428   0.432   0.435   0.446   0.461   0.466   0.479
  0.488   0.495   0.499   0.509   0.519   0.526   0.537   0.539
  0.547   0.556   0.568   0.573   0.580   0.594   0.597   0.604
  0.615   0.620   0.622   0.636   0.642   0.647   0.653   0.656
  0.660   0.665   0.672   0.679   0.681   0.683   0.684   0.692
  0.699   0.708   0.715   0.720   0.727   0.729   0.734   0.740
  0.745   0.749   0.768   0.771   0.787   0.793   0.798   0.804
  0.805   0.818   0.822   0.846   0.849   0.858   0.885   0.912
  0.933   0.944   0.975   0.982   0.997   1.024   1.033   1.048
  1.067   1.071   1.083   1.087   1.110   1.127   1.130   1.150
  1.178   1.188   1.197   1.209   1.217   1.233   1.243   1.253
  1.260   1.274   1.281   1.291   1.304   1.312   1.322   1.339
  1.348   1.363   1.367   1.384   1.401   1.406   1.418   1.430
  1.439   1.441   1.464   1.468   1.474   1.487   1.502   1.521
  1.526   1.535   1.545   1.551   1.553   1.564   1.568   1.581
  1.586   1.594   1.597   1.611   1.612   1.625   1.628   1.639
  1.656   1.662   1.671   1.686   1.690   1.700   1.704   1.709
  1.715   1.718   1.733   1.741   1.749   1.750   1.755   1.776
  1.788   1.803   1.817   1.819   1.835   1.840   1.846   1.860
  1.871   1.883   1.903   1.912   1.928   1.935   1.963   1.970
  1.993   2.001   2.018   2.027   2.032   2.044   2.051   2.088
  2.096   2.104   2.117   2.137   2.144   2.149   2.160   2.175
  2.181   2.198   2.208   2.232   2.237   2.259   2.282   2.294
  2.320   2.378   2.399   2.402   2.421   2.443   2.454   2.462
  2.482   2.491   2.499   2.507   2.514   2.519   2.527   2.534
  2.541   2.549   2.558   2.577   2.582   2.588   2.597   2.605
  2.612   2.631   2.651   2.669   2.676   2.691   2.702   2.719
  2.725   2.742   2.759   2.795   2.818   2.832   2.843   2.859
  2.868   2.873   2.886   2.889   2.922   2.932   2.954   2.980
  2.992   3.004   3.009   3.036   3.042   3.051   3.062   3.074
  3.082   3.094   3.107   3.115   3.135   3.156   3.180   3.186
  3.211   3.218   3.237   3.248   3.272   3.305   3.319   3.355
  3.381   3.397   3.403   3.431   3.547   3.599   3.607   3.670
  3.683   3.694   3.738   3.776   3.792   3.823   3.824   3.834
  3.845   3.848   3.868   3.963   3.984   4.029   4.069   4.105
  4.124   4.132   4.143   4.162   4.178   4.255   4.285   4.314
  4.442   4.507   5.046   5.116   5.131   5.191   5.223   5.290
  5.313   5.404   5.424   5.511   5.634   5.639   5.688   5.884
  5.913  23.764  23.849  23.852  23.897  23.900  23.929  23.939
 23.949  23.958  23.989  24.002  24.042  49.911  49.919  49.990
 50.051  50.060
 --------------------------------------------------------------
 
          Ground-State Mulliken Net Atomic Charges

     Atom                 Charge (a.u.)
  ----------------------------------------
      1 C                     0.677334
      2 C                     0.420411
      3 C                    -1.527307
      4 C                    -0.506815
      5 O                     0.041489
      6 O                    -0.150704
      7 O                    -0.018253
      8 O                    -0.172347
      9 C                    -0.176294
     10 C                    -0.186361
     11 C                    -0.165073
     12 C                    -0.284336
     13 C                    -0.446022
     14 C                    -0.753877
     15 O                     0.039563
     16 H                     0.294874
     17 H                     0.260504
     18 H                     0.169707
     19 H                     0.162274
     20 H                     0.170228
     21 H                     0.140873
     22 H                     0.174846
     23 H                     0.139554
     24 H                     0.148891
     25 H                     0.190280
     26 H                     0.178475
     27 H                     0.153985
     28 C                    -0.026150
     29 H                     0.141415
     30 H                     0.160566
     31 H                     0.207818
     32 C                    -0.020179
     33 H                     0.177909
     34 H                     0.218460
     35 H                     0.164261
  ----------------------------------------
  Sum of atomic charges =    -0.000000

 -----------------------------------------------------------------
                    Cartesian Multipole Moments
 -----------------------------------------------------------------
    Charge (ESU x 10^10)
                -0.0000
    Dipole Moment (Debye)
         X      -0.7312      Y       1.9867      Z       3.5278
       Tot       4.1143
    Quadrupole Moments (Debye-Ang)
        XX     -89.2996     XY      -1.3339     YY     -97.6658
        XZ       1.3806     YZ      -4.6997     ZZ    -107.8970
    Octopole Moments (Debye-Ang^2)
       XXX     -59.6848    XXY       0.8900    XYY     -24.7261
       YYY      19.7499    XXZ       2.1006    XYZ       4.0433
       YYZ       3.3541    XZZ      -2.6474    YZZ       2.6824
       ZZZ       1.1850
    Hexadecapole Moments (Debye-Ang^3)
      XXXX   -2292.2705   XXXY      -0.3201   XXYY    -637.8366
      XYYY       0.8450   YYYY   -1944.4105   XXXZ     -25.0379
      XXYZ      -7.4867   XYYZ      -8.3406   YYYZ     -52.7864
      XXZZ    -510.4271   XYZZ      -3.0383   YYZZ    -412.6574
      XZZZ      -3.0671   YZZZ      -7.5320   ZZZZ    -480.0165
 -----------------------------------------------------------------
 Calculating analytic gradient of the SCF energy
 Gradient of SCF Energy
            1           2           3           4           5           6
    1  -0.0000612   0.0000046   0.0001858   0.0001241  -0.0000523  -0.0000638
    2  -0.0000855   0.0000983   0.0002780  -0.0002843  -0.0000772  -0.0001033
    3   0.0000404  -0.0000447  -0.0001682   0.0002640   0.0000592   0.0000332
            7           8           9          10          11          12
    1  -0.0000560  -0.0000245   0.0000023  -0.0000017  -0.0000154   0.0000065
    2   0.0000515   0.0001036   0.0000132   0.0000009   0.0000379  -0.0000132
    3  -0.0000592  -0.0001260  -0.0000149   0.0000116  -0.0000135   0.0000207
           13          14          15          16          17          18
    1  -0.0000158  -0.0000358  -0.0000126   0.0000077  -0.0000165   0.0000044
    2  -0.0000102   0.0000205   0.0000448  -0.0000138  -0.0000606  -0.0000012
    3   0.0000105  -0.0000053  -0.0000024   0.0000102  -0.0000218  -0.0000222
           19          20          21          22          23          24
    1   0.0000008   0.0000021   0.0000027  -0.0000022  -0.0000061  -0.0000025
    2   0.0000048  -0.0000106  -0.0000085  -0.0000118  -0.0000108  -0.0000011
    3   0.0000013   0.0000112   0.0000081  -0.0000008   0.0000010  -0.0000201
           25          26          27          28          29          30
    1  -0.0000074   0.0000074   0.0000003  -0.0000051  -0.0000004   0.0000021
    2   0.0000064   0.0000048  -0.0000038  -0.0000035   0.0000118   0.0000009
    3  -0.0000109   0.0000099   0.0000126  -0.0000080  -0.0000078  -0.0000103
           31          32          33          34          35
    1   0.0000004   0.0000181   0.0000036   0.0000047   0.0000018
    2   0.0000057   0.0000070   0.0000081   0.0000031  -0.0000017
    3  -0.0000048  -0.0000045   0.0000180   0.0000181   0.0000156
 Max gradient component =       2.843E-04
 RMS gradient           =       6.258E-05
 Gradient time:  CPU 390.20 s  wall 26.97 s
 Geometry Optimization Parameters
   NAtoms,    NIC,     NZ,  NCons,   NDum,   NFix, NCnnct, MaxDiis
       35     275       0       0       0       0       0       0

 Cartesian Hessian Update
 Hessian Updated using BFGS Update


** GEOMETRY OPTIMIZATION IN DELOCALIZED INTERNAL COORDINATES **
   Searching for a Minimum

   Optimization Cycle:   4

[...]
     0.00005181     -0.00014454     -0.00011897
     0.00007496      0.00010139     -0.00001143
    -0.00000091     -0.00004593      0.00003413
     0.00095751      0.00010981     -0.00045150
     0.04193087      0.00807970     -0.05456984
    -0.04152761     -0.00969621      0.04419514
    -0.00045840     -0.00016780      0.00036608
    -0.00004831      0.00010441      0.00003507
     0.00700979     -0.02878050     -0.08007533
    -0.01352316      0.03316481     -0.10527530
     0.00025697     -0.00148529     -0.00004490
    -0.00001204      0.00001476      0.00004377
    -0.35273014     -0.27518752      0.15125233
    -0.14898294      0.17734678      0.49772172
     0.47038499     -0.05744689     -0.16990526
     0.02319449      0.17656473     -0.35725285
    -0.00076530      0.00018887      0.00069261
    -0.00027369      0.00017373     -0.00063640
     0.00022375      0.00039668     -0.00079033
    -0.00001562      0.00003327      0.00007065
     0.00816512      0.01017523     -0.00889487
    -0.10153459     -0.02173987      0.03605976
     0.00870287     -0.10077258      0.07981121
    -0.00263001      0.00063166     -0.00971424
    -0.00658723      0.00026185      0.00238716
     0.05026966      0.01743948     -0.02331198
     0.01644828      0.00286356      0.01992375
     0.00990934     -0.02502218     -0.02447180
vibration 90
    -0.00056360      0.00201176      0.00596846
     0.00040324     -0.00033095      0.00020595
    -0.00013355      0.00015693      0.00010746
     0.00021224     -0.00032797     -0.00034634
    -0.00000125     -0.00001609     -0.00001644
     0.00001361     -0.00000739     -0.00001982
    -0.00009087      0.00001031      0.00007429
    -0.00006811      0.00021672      0.00010837
    -0.00007602      0.00030379      0.00002987
     0.00008937      0.00004118      0.00000830
     0.00029976      0.00019843     -0.00008483
     0.01631365      0.00356835     -0.02044543
     0.00448151      0.00172099     -0.00601463
    -0.00099744     -0.00065143      0.00140814
    -0.00000040      0.00030333     -0.00019333
     0.00663357     -0.02491702     -0.07103387
    -0.00046081      0.00188560     -0.00659788
     0.00073422     -0.00335535     -0.00018883
    -0.00086607     -0.00102832     -0.00016677
    -0.13962746     -0.10914840      0.06039759
    -0.05470085      0.06560719      0.18199109
    -0.04836129      0.00723468      0.01911250
    -0.00340590     -0.02726948      0.05068886
     0.00046546     -0.00007547     -0.00046979
     0.00001667     -0.00011304      0.00025235
     0.00005265      0.00015277     -0.00024172
    -0.00010626      0.00022190      0.00020600
    -0.04499320     -0.05369878      0.05349886
     0.60798894      0.12483773     -0.22275203
    -0.04807539      0.53528251     -0.42154503
    -0.02019545     -0.01701782      0.00204862
    -0.00385111      0.00025932      0.00168056
     0.03064304      0.01100950     -0.01448171
     0.00829388      0.00146692      0.01022213
     0.00639978     -0.01619604     -0.01553511
vibration 91
     0.00228866     -0.00887728     -0.02476746
     0.00038861     -0.00051824      0.00196523
     0.00044616     -0.00067081     -0.00058993
     0.00025300      0.00032597      0.00013162
    -0.00003776      0.00014966      0.00008813
     0.00001413      0.00015435      0.00017365
    -0.00010384     -0.00002741      0.00001965
    -0.00001063     -0.00008546     -0.00009643
    -0.00004116      0.00034312      0.00000250
     0.00029687      0.00073523     -0.00048081
    -0.00030295      0.00001509     -0.00006162
    -0.02844561     -0.00719741      0.03430101
    -0.04208291     -0.01130734      0.04682126
    -0.00128234     -0.00065931      0.00119685
     0.00010424      0.00032290     -0.00026253
    -0.02736402      0.10375022      0.29325282
    -0.00165755      0.00728872     -0.02556064
     0.00075033     -0.00374860     -0.00015199
    -0.00283463     -0.00373777     -0.00075886
     0.24990226      0.19725885     -0.10896139
     0.09046506     -0.10998493     -0.29925617
     0.47941401     -0.06031106     -0.17238970
     0.02560624      0.19456137     -0.38812431
    -0.00007570     -0.00001420     -0.00003059
     0.00002655     -0.00015346      0.00041021
    -0.00195881     -0.00370933      0.00799517
     0.00054238     -0.00078079     -0.00101241
    -0.01089141     -0.01262413      0.01388954
     0.15688697      0.03092269     -0.05884233
    -0.01176134      0.12744573     -0.09976840
    -0.01153397     -0.00670570     -0.00919371
     0.02994452     -0.00610198     -0.02188448
    -0.26253173     -0.09792091      0.12746363
    -0.02219326     -0.00558654     -0.03474831
    -0.07261078      0.17737369      0.16933342
vibration 92
    -0.00209824      0.00726925      0.02129366
     0.00019674     -0.00062292      0.00118967
    -0.00047999      0.00011929      0.00005342
    -0.00013099     -0.00019974     -0.00007078
     0.00008542      0.00004933     -0.00003381
    -0.00003089     -0.00008192      0.00006880
     0.00003791      0.00002514      0.00000056
     0.00000910      0.00005356      0.00007105
    -0.00008540      0.00011098     -0.00013586
     0.00043984      0.00063272     -0.00047509
     0.00125203     -0.00016723     -0.00173424
     0.01273254      0.00362314     -0.01439652
     0.01303701      0.00330617     -0.01424047
     0.00042229      0.00039703     -0.00046039
    -0.00020179      0.00015748      0.00036875
     0.02310527     -0.08838690     -0.24837595
    -0.00297320      0.00515908     -0.01388943
     0.00018201     -0.00072235     -0.00005987
    -0.00393421     -0.00498123     -0.00090095
    -0.11476975     -0.09049240      0.04864115
    -0.03741155      0.04519532      0.12554680
    -0.14938008      0.01918598      0.05365225
    -0.00761881     -0.05905088      0.11767749
     0.00027770     -0.00002059     -0.00022859
     0.00046279     -0.00067896      0.00176165
    -0.00162012     -0.00264030      0.00583316
     0.00027511     -0.00008542     -0.00014447
     0.00302777      0.00330849     -0.00374762
    -0.04398915     -0.00853732      0.01651240
     0.00317952     -0.03349525      0.02613420
     0.00356420      0.00205581      0.00295018
     0.04031422     -0.02656057     -0.06938152
    -0.46212694     -0.17817206      0.21939550
     0.18190132      0.01875878      0.15909938
    -0.20466861      0.47825940      0.45646501
vibration 93
     0.00033622     -0.00003475     -0.00099965
     0.00011660     -0.00015569      0.00067251
     0.00012499      0.00008550     -0.00019275
    -0.00001327      0.00006487      0.00003544
     0.00001802     -0.00002090      0.00000917
    -0.00011138     -0.00011829      0.00012836
     0.00001104     -0.00002109      0.00000561
     0.00001463     -0.00003370     -0.00002161
     0.00021962     -0.00045920      0.00033460
    -0.00127724     -0.00153859      0.00140422
    -0.00192649     -0.00069307     -0.00053153
    -0.00829678     -0.00262833      0.01010598
    -0.00589903     -0.00172819      0.00665796
    -0.00017926     -0.00005396      0.00013879
     0.00019849      0.00016338      0.00002162
    -0.00102598      0.00318269      0.01078009
    -0.00082343      0.00245706     -0.00821191
    -0.00086399      0.00387252      0.00024648
     0.01027969      0.01275889      0.00252334
     0.08061251      0.06151402     -0.03333120
     0.02502901     -0.03018438     -0.08397319
     0.06813965     -0.00850303     -0.02449180
     0.00371917      0.02861188     -0.05557973
    -0.00036855      0.00003314      0.00043359
    -0.00115235      0.00166334     -0.00449024
     0.00455589      0.00774354     -0.01718127
     0.00098107     -0.00254612     -0.00182403
    -0.00102364     -0.00121072      0.00153010
     0.01636116      0.00312687     -0.00621025
    -0.00117960      0.01253870     -0.00980872
    -0.00238151     -0.00105266     -0.00235097
    -0.07633963     -0.03181862     -0.03891870
     0.44819975      0.16290676     -0.23932742
     0.55098423      0.07451604      0.56461956
    -0.08202589      0.14615044      0.14121973
vibration 94
     0.00622612     -0.02512951     -0.07069108
    -0.00153282      0.00409038     -0.01035467
     0.00109710     -0.00148365     -0.00150811
     0.00021415      0.00030566     -0.00018445
    -0.00004900      0.00023326      0.00028447
     0.00014908      0.00035181      0.00062428
    -0.00009434     -0.00002438      0.00005110
    -0.00004004      0.00003575      0.00006424
     0.00005077     -0.00052885      0.00051285
    -0.00072209      0.00005199      0.00016494
     0.00043084     -0.00088735     -0.00126366
     0.01700077      0.00133943     -0.02503732
     0.01294918      0.00452378     -0.01639522
    -0.00009022      0.00079003     -0.00050002
    -0.00027476      0.00020630      0.00074374
    -0.08064733      0.29586889      0.83808187
     0.01830808     -0.04369082      0.12989277
    -0.00105019      0.00495254      0.00032087
     0.00533271      0.00601267      0.00111436
    -0.13358325     -0.10478838      0.05845448
    -0.07262865      0.08750405      0.24348249
    -0.14694824      0.01925574      0.05311184
    -0.00954319     -0.07263680      0.14411312
     0.00128232     -0.00053289     -0.00121685
    -0.00109170      0.00187753     -0.00479380
    -0.00009776     -0.00130540      0.00237778
     0.00199351     -0.00389777     -0.00372880
     0.00180951      0.00196178     -0.00208960
    -0.02479463     -0.00475511      0.00939813
     0.00200408     -0.02027891      0.01550297
     0.00073709      0.00076557      0.00047857
     0.00182041     -0.00590470     -0.01167816
    -0.03689592     -0.01481674      0.01668474
     0.05011065      0.00559409      0.04869143
    -0.03496753      0.08063837      0.07531025
vibration 95
     0.00016890      0.00003351     -0.00046887
    -0.00006325      0.00007401     -0.00017795
    -0.00012821     -0.00006436      0.00010574
     0.00009740     -0.00000528     -0.00000719
    -0.00017217     -0.00028071      0.00021603
    -0.00011034     -0.00007800      0.00006369
    -0.00002142     -0.00003861      0.00004144
    -0.00002593     -0.00001751      0.00002127
    -0.00448445      0.01184124     -0.00689545
     0.05059241      0.06502970     -0.04482319
    -0.00001448     -0.00000049      0.00003074
     0.00004294     -0.00003547     -0.00008814
     0.00013812      0.00007819     -0.00022788
     0.00001426      0.00003350     -0.00003359
     0.00000760     -0.00003326      0.00001769
    -0.00047856      0.00142932      0.00399580
     0.00026734     -0.00070292      0.00192475
     0.02359336     -0.10728691     -0.00570583
    -0.43604629     -0.54027942     -0.10114299
    -0.00000832     -0.00006264      0.00007919
    -0.00030212      0.00038485      0.00097035
    -0.00151760      0.00015694      0.00052697
    -0.00013550     -0.00114442      0.00229659
     0.00553580      0.00035197     -0.00711850
     0.02392563     -0.03340948      0.09416194
    -0.15537118     -0.27022184      0.61308538
    -0.00618764      0.04122515      0.01713676
     0.00010546      0.00014340     -0.00014327
    -0.00154265     -0.00030629      0.00055906
     0.00016638     -0.00153983      0.00119116
     0.00009258      0.00007088     -0.00001744
    -0.00270496     -0.00046834     -0.00025343
     0.01770525      0.00642890     -0.00898384
     0.01387016      0.00216637      0.01508177
     0.00045843     -0.00291721     -0.00290626
vibration 96
    -0.00007390      0.00016320      0.00042189
     0.00008133     -0.00020678      0.00024387
     0.00009860      0.00009585      0.00015948
    -0.00000285      0.00000587     -0.00027134
    -0.00004460     -0.00005530      0.00001661
    -0.00010167     -0.00006500     -0.00005789
    -0.00015858      0.00027265     -0.00014265
     0.00002360      0.00018261     -0.00000460
     0.02817394     -0.07625364      0.04717842
     0.00783766      0.00981539     -0.00708098
     0.00003803      0.00000427     -0.00001501
    -0.00006074      0.00000909      0.00010971
    -0.00010457     -0.00007021      0.00019296
     0.00001039     -0.00001934      0.00001290
    -0.00001032      0.00001299     -0.00000740
     0.00046833     -0.00187999     -0.00543769
    -0.00008774      0.00078536     -0.00134412
    -0.15207837      0.68719626      0.03707685
    -0.06641168     -0.08192743     -0.01545218
     0.00030341      0.00030320     -0.00018051
     0.00036288     -0.00040538     -0.00113995
     0.00116250     -0.00013586     -0.00041385
     0.00012997      0.00096991     -0.00199244
    -0.02165054     -0.00747648      0.03357235
    -0.15980396      0.22225788     -0.62830999
    -0.02414877     -0.04197244      0.09487492
    -0.00203525      0.00802070      0.00425716
    -0.00008739     -0.00017569      0.00018186
     0.00139803      0.00031282     -0.00049359
    -0.00020761      0.00193757     -0.00154281
    -0.00017851     -0.00014856     -0.00013225
     0.00020953      0.00010297      0.00010579
    -0.00146123     -0.00055533      0.00078141
    -0.00147023     -0.00014607     -0.00150688
     0.00026325     -0.00051292     -0.00053654
vibration 97
    -0.00002550      0.00005023      0.00015608
     0.00003797     -0.00005308     -0.00003735
    -0.00006340      0.00012036      0.00011682
     0.00051879      0.00086408      0.00078147
     0.00005040     -0.00003913     -0.00003261
    -0.00000843     -0.00006196     -0.00004845
     0.00021417     -0.00015364     -0.00024223
    -0.00011832     -0.00037644     -0.00040249
    -0.05136404      0.02691795      0.07485528
    -0.00016015     -0.00059561     -0.00021261
     0.00000293      0.00000618      0.00000611
    -0.00000690      0.00002560      0.00004294
    -0.00000057     -0.00000750      0.00001343
     0.00001195      0.00002767      0.00000008
    -0.00000201     -0.00001566     -0.00000594
     0.00012455     -0.00073648     -0.00190867
    -0.00032837     -0.00002031     -0.00053028
     0.05483480     -0.28129873      0.00631381
     0.00313118      0.00372932      0.00079035
    -0.00011321     -0.00009401      0.00005399
     0.00018843     -0.00021816     -0.00061228
     0.00000911     -0.00000787     -0.00000238
     0.00002114      0.00007548     -0.00013314
     0.64250263     -0.16790376     -0.59196460
    -0.09331262      0.12785554     -0.30381634
     0.00030112      0.00035211     -0.00090697
    -0.00170329      0.00291003      0.00279491
    -0.00021497      0.00002898     -0.00037305
    -0.00034073     -0.00008745     -0.00000586
     0.00012540     -0.00147060      0.00112083
     0.00284696      0.00112764      0.00323501
    -0.00001399      0.00002959      0.00002919
    -0.00000469     -0.00001206      0.00002139
    -0.00002940      0.00002033      0.00000081
     0.00014537     -0.00037305     -0.00035079
vibration 98
     0.00002567      0.00000141     -0.00007292
    -0.00001313      0.00000816     -0.00003149
    -0.00083512     -0.00003070     -0.00095352
    -0.00002686      0.00002526     -0.00001355
    -0.00010005      0.00023839      0.00029149
     0.00029852      0.00009246      0.00045770
     0.00000437     -0.00001445      0.00000856
     0.00000827     -0.00000825      0.00000002
     0.00020110      0.00008175     -0.00054315
     0.01711134     -0.06173512     -0.06954069
    -0.00000797     -0.00001837      0.00001134
     0.00000312     -0.00003672     -0.00005265
    -0.00001762      0.00001333     -0.00001283
    -0.00001094      0.00000716     -0.00000118
     0.00001110      0.00000433      0.00000410
     0.00015294      0.00046300      0.00168775
     0.00011227     -0.00013050      0.00040256
     0.00018722     -0.00056865     -0.00008859
     0.21122911      0.24773983      0.02626403
     0.00029965      0.00018376     -0.00011123
    -0.00021869      0.00021867      0.00069589
     0.00027561     -0.00002345     -0.00010247
    -0.00002517     -0.00013536      0.00025451
    -0.00337177      0.00096016      0.00303924
     0.00094567     -0.00116425      0.00344721
    -0.06659644     -0.12929509      0.23849213
    -0.34213275      0.61122603      0.56181854
     0.00007090      0.00001404      0.00010152
     0.00006256      0.00000909     -0.00000747
    -0.00000547      0.00019323     -0.00014004
    -0.00092002     -0.00034398     -0.00109082
    -0.00019386     -0.00013579     -0.00018246
     0.00122289      0.00045591     -0.00055597
     0.00152025      0.00016549      0.00177366
    -0.00042366      0.00099184      0.00098251
vibration 99
     0.00004270     -0.00006539     -0.00015033
     0.00013081     -0.00005622     -0.00029243
    -0.00000006     -0.00002738     -0.00003356
     0.00015906     -0.00016412     -0.00029837
    -0.00000498      0.00000748      0.00000412
     0.00000062      0.00000839      0.00001502
    -0.00004322      0.00000710      0.00006530
    -0.00082562     -0.00001671      0.00026197
     0.00024314     -0.00015400     -0.00031927
     0.00002673     -0.00008963     -0.00009692
     0.00005889     -0.00011179     -0.00006385
     0.00000341      0.00004373     -0.00008474
    -0.00062623      0.00026166      0.00096634
    -0.00114598      0.00024337     -0.00074259
     0.00011646     -0.00005635      0.00015727
    -0.00025427      0.00065110      0.00187734
    -0.00006820     -0.00081861      0.00308982
    -0.00031212      0.00164414     -0.00004538
     0.00027759      0.00031929      0.00002627
     0.00039588      0.00007422     -0.00013405
    -0.00019247      0.00033445      0.00153195
     0.01086871     -0.00036072     -0.00302305
     0.00029207      0.00202131     -0.00449480
    -0.00282968      0.00077403      0.00265183
     0.00040724     -0.00054829      0.00120420
    -0.00008648     -0.00017041      0.00029057
    -0.00048174      0.00085911      0.00078829
    -0.06374803     -0.01041908     -0.06254715
     0.20028738      0.04649433     -0.08709263
    -0.00077058     -0.15831639      0.11437191
     0.57667081      0.23322466      0.71886501
    -0.00007553     -0.00005472     -0.00009170
     0.00028911      0.00008758     -0.00021627
     0.00093007      0.00005247      0.00090857
    -0.00029400      0.00060774      0.00051760
[INT]
    0.015919
    0.815594
    3.110472
    1.948652
    0.255365
    1.872095
    0.499325
    0.233831
    0.499073
    0.690845
    1.079392
    5.167026
    2.031107
    1.210590
    4.114846
    0.990288
    9.501371
    1.979068
    6.399620
    8.069038
    4.808010
    3.982303
   12.713357
   11.517900
    8.946635
    3.863585
    2.313640
    0.878613
    7.297175
    2.887844
    1.791707
    7.999646
    7.952408
    5.115676
   22.501461
   18.990268
    8.218231
   11.301817
   32.402460
    6.649877
    5.095687
    4.747349
    1.778888
   61.629268
   55.187544
    7.293835
   19.072330
   23.418232
  119.390618
    9.067182
    9.898579
   56.457457
  368.247467
   10.405921
   13.954975
  157.892694
   20.838085
   38.300553
    4.290163
   22.839905
    8.494308
    1.916869
    5.124273
  109.633146
   31.582109
   24.840032
   12.770096
   15.736508
   11.985368
    5.456626
    7.849489
   10.551501
    4.571187
    0.982859
    7.557308
   13.509249
    5.168807
   14.105993
    7.550684
   90.850654
  318.856369
   12.978698
   17.286681
   29.801760
   40.250820
   31.511538
   21.969455
   29.582439
    0.263820
   11.853561
   19.309027
   24.216334
   21.916075
   25.640746
   21.521579
   13.068064
   14.085054
   14.371198
    2.287854

======= END OF MOLDEN-FORMATTED INPUT FILE =======


        *************************************************************
        *                                                           *
        *  Thank you very much for using Q-Chem.  Have a nice day.  *
        *                                                           *
        *************************************************************


