r0157.ten.osc.edu 10.25.154
Q-Chem Developer Version! Running on 10.25.154.*
                  Welcome to Q-Chem
     A Quantum Leap Into The Future Of Chemistry


 Q-Chem 5.0, Q-Chem, Inc., Pleasanton, CA (2017)

 Yihan Shao,  Zhengting Gan,  E. Epifanovsky,  A. T. B. Gilbert,  M. Wormit,  
 J. Kussmann,  A. W. Lange,  A. Behn,  Jia Deng,  Xintian Feng,  D. Ghosh,  
 M. Goldey,  P. R. Horn,  L. D. Jacobson,  I. Kaliman,  T. Kus,  A. Landau,  
 Jie Liu,  E. I. Proynov,  R. M. Richard,  R. P. Steele,  E. J. Sundstrom,  
 H. L. Woodcock III,  P. M. Zimmerman,  D. Zuev,  B. Albrecht,  E. Alguire,  
 S. A. Baeppler,  Z. Benda,  Y. A. Bernard,  E. J. Berquist,  K. B. Bravaya,  
 D. Casanova,  Chun-Min Chang,  Yunqing Chen,  A. Chien,  K. D. Closser,  
 M. P. Coons,  S. Dasgupta,  M. Diedenhofen,  Hainam Do,  R. G. Edgar,  
 Po-Tung Fang,  S. Fatehi,  Qingguo Feng,  Qinghui Ge,  A. Ghysels,  
 J. Gomes,  J. Gonthier,  A. Gunina,  M. W. D. Hanson-Heine,  
 P. H. P. Harbach,  A. W. Hauser,  J. E. Herr,  E. G. Hohenstein,  
 Z. C. Holden,  Kerwin Hui,  T.-C. Jagau,  Hyunjun Ji,  B. Kaduk,  
 K. Khistyaev,  Jaehoon Kim,  P. Klunzinger,  K. Koh,  D. Kosenkov,  
 T. Kowalczyk,  C. M. Krauter,  A. Kunitsa,  Ka Un Lao,  A. Laurent,  
 K. V. Lawler,  Joonho Lee,  D. Lefrancois,  S. Lehtola,  D. S. Levine,  
 Yi-Pei Li,  You-Sheng Lin,  Fenglai Liu,  E. Livshits,  A. Luenser,  
 P. Manohar,  E. Mansoor,  S. F. Manzer,  Shan-Ping Mao,  Yuezhi Mao,  
 N. Mardirossian,  A. V. Marenich,  L. A. Martinez-Martinez,  S. A. Maurer,  
 N. J. Mayhall,  S. C. McKenzie,  J.-M. Mewes,  A. F. Morrison,  K. Nanda,  
 T. S. Nguyen-Beck,  R. Olivares-Amaya,  J. A. Parkhill,  T. M. Perrine,  
 F. Plasser,  S. Prager,  A. Prociuk,  D. R. Rehn,  F. Rob,  M. Schneider,  
 N. Sergueev,  S. M. Sharada,  S. Sharma,  D. W. Small,  T. Stauch,  
 T. Stein,  Yu-Chuan Su,  A. J. W. Thom,  T. Tsuchimochi,  L. Vogt,  
 O. Vydrov,  M. A. Watson,  J. Wenzel,  M. de Wergifosse,  T. A. Wesolowski,  
 A. White,  J. Witte,  A. Yamada,  Jun Yang,  K. Yao,  S. Yeganeh,  
 S. R. Yost,  Zhi-Qiang You,  A. Zech,  Igor Ying Zhang,  Xing Zhang,  
 Yan Zhao,  Ying Zhu,  B. R. Brooks,  G. K. L. Chan,  C. J. Cramer,  
 M. S. Gordon,  W. J. Hehre,  A. Klamt,  M. W. Schmidt,  C. D. Sherrill,  
 D. G. Truhlar,  A. Aspuru-Guzik,  R. Baer,  A. T. Bell,  N. A. Besley,  
 Jeng-Da Chai,  A. Dreuw,  B. D. Dunietz,  T. R. Furlani,  Chao-Ping Hsu,  
 Yousung Jung,  Jing Kong,  D. S. Lambrecht,  WanZhen Liang,  C. Ochsenfeld,  
 V. A. Rassolov,  L. V. Slipchenko,  J. E. Subotnik,  T. Van Voorhis,  
 J. M. Herbert,  A. I. Krylov,  P. M. W. Gill,  M. Head-Gordon

 Contributors to earlier versions of Q-Chem not listed above: 
 R. D. Adamson,  B. Austin,  J. Baker,  G. J. O. Beran,  K. Brandhorst,  
 S. T. Brown,  E. F. C. Byrd,  A. K. Chakraborty,  C.-L. Cheng,  
 Siu Hung Chien,  D. M. Chipman,  D. L. Crittenden,  H. Dachsel,  
 R. A. DiStasio Jr.,  R. J. Doerksen,  A. D. Dutoi,  L. Fusti-Molnar,  
 W. A. Goddard III,  A. Golubeva-Zadorozhnaya,  S. R. Gwaltney,  G. Hawkins,  
 A. Heyden,  S. Hirata,  G. Kedziora,  F. J. Keil,  C. Kelley,  Jihan Kim,  
 R. A. King,  R. Z. Khaliullin,  P. P. Korambath,  W. Kurlancheek,  
 A. M. Lee,  M. S. Lee,  S. V. Levchenko,  Ching Yeh Lin,  D. Liotard,  
 R. C. Lochan,  I. Lotan,  P. E. Maslen,  N. Nair,  D. P. O'Neill,  
 D. Neuhauser,  E. Neuscamman,  C. M. Oana,  R. Olson,  B. Peters,  
 R. Peverati,  P. A. Pieniazek,  Y. M. Rhee,  J. Ritchie,  M. A. Rohrdanz,  
 E. Rosta,  N. J. Russ,  H. F. Schaefer III,  N. E. Schultz,  N. Shenvi,  
 A. C. Simmonett,  A. Sodt,  D. Stuck,  K. S. Thanthiriwatte,  V. Vanovschi,  
 Tao Wang,  A. Warshel,  C. F. Williams,  Q. Wu,  X. Xu,  W. Zhang

 Please cite Q-Chem as follows:
 Y. Shao et al., Mol. Phys. 113, 184-215 (2015)
 DOI: 10.1080/00268976.2014.952696

 Q-Chem 5.0.1 for Intel X86 EM64T Linux

 Parts of Q-Chem use Armadillo 5.200.1 (Boston Tea Smuggler).
 http://arma.sourceforge.net/

 Q-Chem begins on Sun Oct 15 23:09:02 2017  

Host: r0157.ten.osc.edu
0

     Scratch files written to /tmp/pbstmp.1310578/01//
Processing $rem in /users/PAS0291/osu6415/.qchemrc.
molden_format             true

Checking the input file for inconsistencies... 	...done.

--------------------------------------------------------------
User input:
--------------------------------------------------------------
$molecule
0 1
C 0.11708084 0.80938261 0.62380660
C 0.45186229 -0.72183709 0.70864867
C -1.15402069 1.18629294 -0.12006225
C -0.58092556 -1.77926707 0.35502155
O -2.11499651 1.54874019 0.76475714
O -1.30514189 1.24046154 -1.31332413
O -1.80160882 -1.29182293 0.08577602
O -0.33606899 -2.96260456 0.37434214
C -2.82125192 -2.25598644 -0.23678144
C -3.38706555 1.89231011 0.19338325
C 1.40765830 1.35115891 -0.07394098
C 2.58663311 1.19970399 0.93300528
C 2.92300293 -0.30848472 0.81606046
C 1.80087985 -0.79801796 -0.13127117
O 1.67349709 0.31383802 -1.02960014
H 0.01648774 1.21530990 1.63034803
H 0.68997858 -0.96590898 1.74690465
H -2.98799311 -2.92787038 0.60618167
H -3.78354675 1.05269164 -0.38019229
H 3.42419858 1.82259607 0.61496799
H 2.30919663 1.50940196 1.94290163
H 3.89157501 -0.46095059 0.33600524
H 2.93144372 -0.83821162 1.77069011
H -3.71409587 -1.67150990 -0.44649757
H -2.52924031 -2.83746379 -1.11172739
H -3.29424629 2.75892861 -0.46335205
H -4.03523674 2.11949641 1.03727585
C 2.10638481 -2.05741943 -0.90858143
H 3.04872015 -1.91961321 -1.44386309
H 2.19242932 -2.91599568 -0.24248850
H 1.32244632 -2.27176806 -1.63556603
C 1.32517956 2.70695976 -0.74214792
H 2.29644307 2.96155276 -1.17200736
H 0.57944420 2.71116343 -1.53518552
H 1.06710920 3.47362408 -0.00533914
$end

$rem
sym_ignore      true
jobtype         ts
method          b3lyp
basis           6-311++G(d,p)
dft_d           d3_op
mem_total       62000
MEM_STATIC      4000
ao2mo_disk      350000
max_scf_cycles  200
geom_opt_max_cycles 1000
geom_opt_tol_displacement 1
GEOM_OPT_TOL_GRADIENT       1
GEOM_OPT_TOL_ENERGY         1
$end

--------------------------------------------------------------
 Adding empirical dispersion correction 
 ----------------------------------------------------------------
 Doing -D3(op) with
 s6 =   1.00000
 s8 =   0.78311
 a1 =   0.30000
 a2 =   4.25000
 n  =  10.00000
 -D3 energy without 3body term =     -0.0411068353 hartrees
 ----------------------------------------------------------------
             Standard Nuclear Orientation (Angstroms)
    I     Atom           X                Y                Z
 ----------------------------------------------------------------
    1      C       0.1170808400     0.8093826100     0.6238066000
    2      C       0.4518622900    -0.7218370900     0.7086486700
    3      C      -1.1540206900     1.1862929400    -0.1200622500
    4      C      -0.5809255600    -1.7792670700     0.3550215500
    5      O      -2.1149965100     1.5487401900     0.7647571400
    6      O      -1.3051418900     1.2404615400    -1.3133241300
    7      O      -1.8016088200    -1.2918229300     0.0857760200
    8      O      -0.3360689900    -2.9626045600     0.3743421400
    9      C      -2.8212519200    -2.2559864400    -0.2367814400
   10      C      -3.3870655500     1.8923101100     0.1933832500
   11      C       1.4076583000     1.3511589100    -0.0739409800
   12      C       2.5866331100     1.1997039900     0.9330052800
   13      C       2.9230029300    -0.3084847200     0.8160604600
   14      C       1.8008798500    -0.7980179600    -0.1312711700
   15      O       1.6734970900     0.3138380200    -1.0296001400
   16      H       0.0164877400     1.2153099000     1.6303480300
   17      H       0.6899785800    -0.9659089800     1.7469046500
   18      H      -2.9879931100    -2.9278703800     0.6061816700
   19      H      -3.7835467500     1.0526916400    -0.3801922900
   20      H       3.4241985800     1.8225960700     0.6149679900
   21      H       2.3091966300     1.5094019600     1.9429016300
   22      H       3.8915750100    -0.4609505900     0.3360052400
   23      H       2.9314437200    -0.8382116200     1.7706901100
   24      H      -3.7140958700    -1.6715099000    -0.4464975700
   25      H      -2.5292403100    -2.8374637900    -1.1117273900
   26      H      -3.2942462900     2.7589286100    -0.4633520500
   27      H      -4.0352367400     2.1194964100     1.0372758500
   28      C       2.1063848100    -2.0574194300    -0.9085814300
   29      H       3.0487201500    -1.9196132100    -1.4438630900
   30      H       2.1924293200    -2.9159956800    -0.2424885000
   31      H       1.3224463200    -2.2717680600    -1.6355660300
   32      C       1.3251795600     2.7069597600    -0.7421479200
   33      H       2.2964430700     2.9615527600    -1.1720073600
   34      H       0.5794442000     2.7111634300    -1.5351855200
   35      H       1.0671092000     3.4736240800    -0.0053391400
 ----------------------------------------------------------------
 Nuclear Repulsion Energy =  1395.3103774265 hartrees
 There are       65 alpha and       65 beta electrons
 Requested basis set is 6-311++G(d,p)
 There are 192 shells and 500 basis functions

 Total QAlloc Memory Limit  62000 MB
 Mega-Array Size      3911 MB
 MEM_STATIC part      4000 MB
 A cutoff of  1.0D-11 yielded  15026 shell pairs
 There are    103796 function pairs (    110643 Cartesian)
 
 -------------------------------------------------------
 OpenMP Integral Computing Module                       
 Release: version 1.0, May 2013, Q-Chem Inc. Pittsburgh 
 -------------------------------------------------------
 Integral Job Info:
 Integral job number is                      11
 Integral operator is                         1
 short-range coefficients                     0
 long-range coefficients              100000000
 Omega coefficients                           0
 if combine SR and LR in K                    0
 Integral screening is                        0
 Integral computing path is                   2
 max size of driver memory is            800000
 size of driver memory is                593474
 size of scratch memory is              2361544
 max col of scratch BK array               1296
 max len of scratch array in speh3          155
 max len of scratch index in speh4           18
 max int batch size is                      520
 min int batch size is                       52
 fixed nKL is                                52
 max L of basis functions is                  2
 order of int derivative is                   0
 number of shells is                        192
 number of basis is                         517
 number of cartesian basis is               517
 number of contracted shell pairs         15026
 number of primitive shell pairs          32973
 maxK2 (contraction) of shell pair           36
 max number of K2 of shell pair               1
 max number of CS2 of shell pair           2852
 max number of PS2 of shell pair           4824
 mem total for path MDJ                  181576
 -------------------------------------------------------
 Smallest overlap matrix eigenvalue = 4.56E-07

 Q-Chem warning in module /fs/scratch/osu6415/qchem-kaunlao-vdw/stvman/mkSTV.C, line 281:

 Overlap eigenvalue is smaller than square root of threshold

 Linear dependence detected in AO basis
 Number of orthogonalized atomic orbitals = 499
 Maximum deviation from orthogonality = 1.120E-10

 Scale SEOQF with 1.000000e-01/1.000000e-01/1.000000e-01

 Standard Electronic Orientation quadrupole field applied
 Nucleus-field energy     =     0.0000000377 hartrees
 Guess from superposition of atomic densities
 Warning:  Energy on first SCF cycle will be non-variational
 A restricted hybrid HF-DFT SCF calculation will be
 performed using Pulay DIIS extrapolation
 Exchange:     0.2000 Hartree-Fock + 0.0800 Slater + 0.7200 B88
 Correlation:  0.1900 VWN1RPA + 0.8100 LYP
 Using SG-1 standard quadrature grid
 Dispersion:   Grimme D3
 SCF converges when DIIS error is below 1.0E-08
 using 20 threads for integral computing
 -------------------------------------------------------
 OpenMP Integral computing Module                
 Release: version 1.0, May 2013, Q-Chem Inc. Pittsburgh 
 -------------------------------------------------------
 -------------------------------------------------------
 OpenMP BLAS3 based DFT computing Module                
 Release: version 1.0, May 2013, Q-Chem Inc. Pittsburgh 
 -------------------------------------------------------
 ---------------------------------------
  Cycle       Energy         DIIS Error
 ---------------------------------------
    1    -847.9474661937      2.82E-02
    2    -844.1562898006      3.74E-03
    3    -843.6196002474      6.14E-03
    4    -844.4644042158      1.54E-03
    5    -844.5208926393      3.43E-04
    6    -844.5228802295      1.65E-04
    7    -844.5234852701      3.01E-05
    8    -844.5235041767      1.07E-05
    9    -844.5235069811      2.49E-06
   10    -844.5235070987      1.23E-06
   11    -844.5235071298      4.47E-07
   12    -844.5235071343      1.40E-07
   13    -844.5235071344      4.37E-08
   14    -844.5235071355      1.22E-08
   15    -844.5235071405      3.59E-09 Convergence criterion met
 ---------------------------------------
 SCF time:  CPU 1192.26 s  wall 65.08 s
 SCF   energy in the final basis set = -844.52350714
 Total energy in the final basis set = -844.52350714
 
 --------------------------------------------------------------
 
                    Orbital Energies (a.u.)
 --------------------------------------------------------------
 
 Alpha MOs
 -- Occupied --
-19.179 -19.169 -19.124 -19.117 -19.109 -10.311 -10.302 -10.240
-10.238 -10.233 -10.227 -10.208 -10.201 -10.176 -10.175 -10.161
-10.158  -1.122  -1.109  -1.059  -1.031  -1.022  -0.829  -0.801
 -0.782  -0.748  -0.729  -0.720  -0.674  -0.642  -0.601  -0.581
 -0.569  -0.553  -0.526  -0.508  -0.505  -0.491  -0.488  -0.477
 -0.476  -0.470  -0.458  -0.439  -0.432  -0.425  -0.418  -0.410
 -0.405  -0.397  -0.392  -0.373  -0.369  -0.365  -0.357  -0.354
 -0.351  -0.345  -0.329  -0.322  -0.321  -0.306  -0.288  -0.279
 -0.267
 -- Virtual --
 -0.020  -0.009  -0.006  -0.002   0.003   0.010   0.013   0.020
  0.025   0.030   0.035   0.039   0.042   0.043   0.045   0.052
  0.061   0.066   0.069   0.076   0.078   0.080   0.085   0.089
  0.092   0.095   0.102   0.105   0.110   0.111   0.114   0.117
  0.120   0.123   0.127   0.129   0.131   0.132   0.135   0.141
  0.143   0.145   0.148   0.150   0.153   0.155   0.158   0.160
  0.163   0.165   0.167   0.169   0.172   0.176   0.179   0.180
  0.184   0.187   0.189   0.193   0.200   0.202   0.203   0.208
  0.209   0.212   0.214   0.219   0.220   0.226   0.228   0.237
  0.244   0.248   0.252   0.257   0.264   0.271   0.272   0.276
  0.277   0.280   0.286   0.292   0.298   0.302   0.307   0.315
  0.318   0.322   0.329   0.331   0.334   0.338   0.343   0.346
  0.349   0.352   0.359   0.360   0.365   0.366   0.370   0.377
  0.380   0.385   0.392   0.393   0.400   0.402   0.412   0.418
  0.427   0.431   0.436   0.438   0.447   0.461   0.464   0.471
  0.474   0.493   0.500   0.506   0.514   0.522   0.528   0.544
  0.550   0.555   0.569   0.579   0.585   0.588   0.596   0.607
  0.612   0.618   0.622   0.636   0.640   0.646   0.648   0.655
  0.655   0.658   0.669   0.675   0.678   0.683   0.689   0.697
  0.705   0.709   0.721   0.724   0.728   0.730   0.736   0.746
  0.750   0.754   0.764   0.770   0.781   0.782   0.787   0.805
  0.807   0.820   0.826   0.829   0.841   0.872   0.877   0.897
  0.931   0.949   0.959   0.976   0.999   1.025   1.029   1.040
  1.052   1.069   1.086   1.091   1.106   1.118   1.135   1.142
  1.188   1.203   1.204   1.210   1.215   1.227   1.231   1.253
  1.258   1.269   1.277   1.287   1.306   1.316   1.321   1.334
  1.346   1.358   1.372   1.382   1.394   1.396   1.413   1.432
  1.441   1.442   1.457   1.475   1.479   1.484   1.500   1.508
  1.518   1.529   1.532   1.548   1.556   1.561   1.568   1.576
  1.579   1.593   1.599   1.606   1.613   1.624   1.634   1.650
  1.650   1.665   1.681   1.684   1.697   1.703   1.706   1.715
  1.716   1.722   1.730   1.733   1.746   1.761   1.765   1.774
  1.789   1.790   1.805   1.819   1.836   1.841   1.848   1.860
  1.875   1.884   1.895   1.909   1.919   1.943   1.964   1.976
  1.997   2.006   2.012   2.028   2.034   2.048   2.056   2.082
  2.097   2.106   2.115   2.123   2.138   2.153   2.171   2.173
  2.185   2.215   2.216   2.220   2.234   2.253   2.279   2.291
  2.298   2.364   2.395   2.408   2.410   2.451   2.454   2.463
  2.477   2.490   2.498   2.508   2.518   2.521   2.528   2.537
  2.542   2.545   2.562   2.570   2.580   2.581   2.588   2.603
  2.617   2.634   2.643   2.665   2.669   2.678   2.688   2.709
  2.741   2.753   2.774   2.788   2.798   2.816   2.848   2.860
  2.868   2.877   2.879   2.908   2.911   2.925   2.945   2.968
  2.998   3.010   3.024   3.029   3.044   3.057   3.060   3.069
  3.091   3.098   3.115   3.128   3.144   3.148   3.165   3.178
  3.208   3.222   3.237   3.246   3.277   3.312   3.322   3.351
  3.379   3.388   3.404   3.416   3.543   3.603   3.616   3.669
  3.672   3.681   3.764   3.777   3.783   3.821   3.828   3.835
  3.852   3.859   3.871   3.942   3.962   4.017   4.064   4.103
  4.129   4.141   4.155   4.169   4.188   4.262   4.287   4.328
  4.441   4.509   5.034   5.084   5.116   5.177   5.239   5.263
  5.301   5.419   5.461   5.520   5.629   5.650   5.690   5.890
  5.903  23.760  23.835  23.859  23.871  23.898  23.930  23.945
 23.954  23.955  23.992  23.996  24.036  49.913  49.933  50.001
 50.036  50.052
 --------------------------------------------------------------
 
          Ground-State Mulliken Net Atomic Charges

     Atom                 Charge (a.u.)
  ----------------------------------------
      1 C                     0.504928
      2 C                     0.333388
      3 C                    -1.105521
      4 C                    -0.571801
      5 O                     0.037508
      6 O                    -0.170865
      7 O                    -0.085328
      8 O                    -0.213891
      9 C                    -0.199944
     10 C                    -0.178573
     11 C                    -0.196061
     12 C                    -0.372213
     13 C                    -0.451902
     14 C                    -0.464036
     15 O                     0.052181
     16 H                     0.300388
     17 H                     0.241930
     18 H                     0.186117
     19 H                     0.175780
     20 H                     0.173324
     21 H                     0.139926
     22 H                     0.173248
     23 H                     0.146305
     24 H                     0.130760
     25 H                     0.190512
     26 H                     0.173106
     27 H                     0.152540
     28 C                    -0.102956
     29 H                     0.144026
     30 H                     0.201628
     31 H                     0.185728
     32 C                    -0.034888
     33 H                     0.162744
     34 H                     0.196128
     35 H                     0.145784
  ----------------------------------------
  Sum of atomic charges =    -0.000000

 -----------------------------------------------------------------
                    Cartesian Multipole Moments
 -----------------------------------------------------------------
    Charge (ESU x 10^10)
                -0.0000
    Dipole Moment (Debye)
         X      -1.2060      Y       1.1370      Z       2.5307
       Tot       3.0252
    Quadrupole Moments (Debye-Ang)
        XX     -87.0871     XY       2.3377     YY    -104.4376
        XZ       2.0210     YZ       3.8797     ZZ    -106.3879
    Octopole Moments (Debye-Ang^2)
       XXX     -66.7058    XXY      -6.7204    XYY     -19.8941
       YYY      33.5472    XXZ      -0.5973    XYZ      -3.3903
       YYZ     -10.3601    XZZ      -4.3641    YZZ     -11.1414
       ZZZ       5.6712
    Hexadecapole Moments (Debye-Ang^3)
      XXXX   -2345.8356   XXXY     -16.2634   XXYY    -658.5043
      XYYY       1.0599   YYYY   -2000.7426   XXXZ     -18.8933
      XXYZ      12.7093   XYYZ      -4.3092   YYYZ      27.8913
      XXZZ    -519.5114   XYZZ       5.8494   YYZZ    -389.4804
      XZZZ      -8.7159   YZZZ      16.1648   ZZZZ    -465.8367
 -----------------------------------------------------------------
 Calculating analytic gradient of the SCF energy
 Gradient of SCF Energy
            1           2           3           4           5           6
    1   0.0010272  -0.0008060  -0.0007649  -0.0001813  -0.0000252   0.0004038
    2   0.0008244  -0.0001301  -0.0020273   0.0000073   0.0000027   0.0013286
    3  -0.0017849   0.0012970   0.0004047   0.0007579  -0.0000083  -0.0000071
            7           8           9          10          11          12
    1   0.0000022   0.0002504   0.0000254   0.0000238   0.0000119  -0.0000054
    2   0.0000035   0.0000003  -0.0000380  -0.0000157  -0.0000609   0.0000409
    3   0.0000442  -0.0007611  -0.0000166  -0.0000522  -0.0000637   0.0000403
           13          14          15          16          17          18
    1   0.0000280   0.0000321   0.0000121   0.0000038   0.0000238  -0.0000149
    2  -0.0000231  -0.0000323   0.0000467  -0.0000236   0.0000651   0.0000188
    3  -0.0000059  -0.0000339   0.0000686   0.0000136   0.0000088   0.0000090
           19          20          21          22          23          24
    1  -0.0000043  -0.0000074   0.0000064  -0.0000020  -0.0000146   0.0000027
    2  -0.0000117  -0.0000082   0.0000076   0.0000075   0.0000002   0.0000002
    3   0.0000080  -0.0000061   0.0000080   0.0000257   0.0000122  -0.0000189
           25          26          27          28          29          30
    1   0.0000079  -0.0000054  -0.0000108   0.0000083   0.0000025  -0.0000090
    2  -0.0000062  -0.0000020  -0.0000000   0.0000373   0.0000002   0.0000002
    3   0.0000094   0.0000025  -0.0000072   0.0000196   0.0000100   0.0000077
           31          32          33          34          35
    1   0.0000010  -0.0000135   0.0000017   0.0000060  -0.0000158
    2  -0.0000090  -0.0000196   0.0000157  -0.0000018   0.0000026
    3  -0.0000033   0.0000338   0.0000099  -0.0000162  -0.0000054
 Max gradient component =       2.027E-03
 RMS gradient           =       3.824E-04
 Gradient time:  CPU 394.63 s  wall 28.20 s
 Geometry Optimization Parameters
   NAtoms,    NIC,     NZ,  NCons,   NDum,   NFix, NCnnct, MaxDiis
       35     275       0       0       0       0       0       0


** GEOMETRY OPTIMIZATION IN DELOCALIZED INTERNAL COORDINATES **
   Searching for a Transition State

   Optimization Cycle:   1

                       Coordinates (Angstroms)
     ATOM                X               Y               Z
      1  C         0.1170808400    0.8093826100    0.6238066000
      2  C         0.4518622900   -0.7218370900    0.7086486700
      3  C        -1.1540206900    1.1862929400   -0.1200622500
      4  C        -0.5809255600   -1.7792670700    0.3550215500
      5  O        -2.1149965100    1.5487401900    0.7647571400
      6  O        -1.3051418900    1.2404615400   -1.3133241300
      7  O        -1.8016088200   -1.2918229300    0.0857760200
      8  O        -0.3360689900   -2.9626045600    0.3743421400
      9  C        -2.8212519200   -2.2559864400   -0.2367814400
     10  C        -3.3870655500    1.8923101100    0.1933832500
     11  C         1.4076583000    1.3511589100   -0.0739409800
     12  C         2.5866331100    1.1997039900    0.9330052800
     13  C         2.9230029300   -0.3084847200    0.8160604600
     14  C         1.8008798500   -0.7980179600   -0.1312711700
     15  O         1.6734970900    0.3138380200   -1.0296001400
     16  H         0.0164877400    1.2153099000    1.6303480300
     17  H         0.6899785800   -0.9659089800    1.7469046500
     18  H        -2.9879931100   -2.9278703800    0.6061816700
     19  H        -3.7835467500    1.0526916400   -0.3801922900
     20  H         3.4241985800    1.8225960700    0.6149679900
     21  H         2.3091966300    1.5094019600    1.9429016300
     22  H         3.8915750100   -0.4609505900    0.3360052400
     23  H         2.9314437200   -0.8382116200    1.7706901100
     24  H        -3.7140958700   -1.6715099000   -0.4464975700
     25  H        -2.5292403100   -2.8374637900   -1.1117273900
     26  H        -3.2942462900    2.7589286100   -0.4633520500
     27  H        -4.0352367400    2.1194964100    1.0372758500
     28  C         2.1063848100   -2.0574194300   -0.9085814300
     29  H         3.0487201500   -1.9196132100   -1.4438630900
     30  H         2.1924293200   -2.9159956800   -0.2424885000
     31  H         1.3224463200   -2.2717680600   -1.6355660300
     32  C         1.3251795600    2.7069597600   -0.7421479200
     33  H         2.2964430700    2.9615527600   -1.1720073600
     34  H         0.5794442000    2.7111634300   -1.5351855200
     35  H         1.0671092000    3.4736240800   -0.0053391400
   Point Group: c1    Number of degrees of freedom:    99


   Energy is   -844.523507141


 Attempting to Generate Delocalized Internal Coordinates

 99 Hessian modes will be used to form the next step
  Hessian Eigenvalues:
     0.003003    0.006503    0.006557    0.007013    0.007357    0.007701
     0.010146    0.010367    0.010857    0.010875    0.021514    0.022947
     0.023357    0.024857    0.034305    0.035873    0.037640    0.038456
     0.043684    0.044758    0.049001    0.051006    0.054079    0.056439
     0.057960    0.058082    0.058099    0.060013    0.060230    0.062939
     0.065361    0.066245    0.080059    0.085835    0.094588    0.101286
     0.101368    0.103660    0.105847    0.106121    0.111011    0.121590
     0.126816    0.153981    0.160000    0.160000    0.160000    0.160000
     0.160000    0.160000    0.160000    0.160000    0.160000    0.160000
     0.160000    0.160000    0.177557    0.226078    0.236319    0.249634
     0.249779    0.250000    0.250000    0.250000    0.250000    0.251822
     0.252905    0.257412    0.274691    0.303444    0.303837    0.309746
     0.312331    0.337980    0.343324    0.344893    0.345276    0.345571
     0.345663    0.346069    0.346158    0.346518    0.346624    0.346775
     0.347218    0.347644    0.347694    0.347949    0.348054    0.348168
     0.349751    0.350367    0.350974    0.395985    0.401114    0.538396
     0.568254    1.006372    1.028325
**WARNING** Hessian does not have the Desired Local Structure

 Transition State Search - Taking P-RFO Step
 Searching for Lamda that Maximizes Along the Lowest mode
 Value Taken    Lamda =   0.00300312
 Searching for Lamda that Minimizes Along All other modes
 Value Taken    Lamda =  -0.00033204
 Calculated Step too Large.  Step scaled by  0.001351
 Step Taken.  Stepsize is  0.300000

                             Maximum     Tolerance    Cnvgd?
         Gradient           0.000867      0.000001      NO
         Displacement       0.121162      0.000001      NO
         Energy change     *********      0.000000      NO


 New Cartesian Coordinates Obtained by Inverse Iteration

 Displacement from previous Coordinates is:  0.870107
 Adding empirical dispersion correction 
 ----------------------------------------------------------------
 Doing -D3(op) with
 s6 =   1.00000
 s8 =   0.78311
 a1 =   0.30000
 a2 =   4.25000
 n  =  10.00000
 -D3 energy without 3body term =     -0.0410801448 hartrees
 ----------------------------------------------------------------
             Standard Nuclear Orientation (Angstroms)
    I     Atom           X                Y                Z
 ----------------------------------------------------------------
    1      C       0.1228822086     0.7991952223     0.6279640167
    2      C       0.4452432901    -0.7352689028     0.7051790983
    3      C      -1.1642569788     1.1882362480    -0.0812761441
    4      C      -0.5862237194    -1.7811742526     0.3152825687
    5      O      -2.0985363045     1.5564429494     0.8293795795
    6      O      -1.3463835179     1.2463733812    -1.2700131826
    7      O      -1.7969350341    -1.2819860879     0.0234745883
    8      O      -0.3499937564    -2.9663687399     0.3264632851
    9      C      -2.8153552051    -2.2350871300    -0.3339402932
   10      C      -3.3823800476     1.9116979264     0.2925301837
   11      C       1.4000856958     1.3363901222    -0.0997720513
   12      C       2.5899813063     1.2269239685     0.8978672670
   13      C       2.9098475482    -0.2887484106     0.8529159357
   14      C       1.8105205628    -0.8104928831    -0.1057861277
   15      O       1.6777436388     0.2791814533    -1.0299334218
   16      H       0.0509066573     1.2039990925     1.6374068912
   17      H       0.6575856243    -0.9928501648     1.7457599803
   18      H      -3.0062917665    -2.9154515248     0.4970019311
   19      H      -3.8007406171     1.0766763380    -0.2721456689
   20      H       3.4288759992     1.8236423676     0.5361476880
   21      H       2.3298500726     1.5915364077     1.8939415505
   22      H       3.8904995437    -0.4719133740     0.4095165342
   23      H       2.8845567691    -0.7772017657     1.8290169925
   24      H      -3.6990489657    -1.6418944846    -0.5574840115
   25      H      -2.5070142496    -2.8084908228    -1.2086123515
   26      H      -3.2998165182     2.7790578160    -0.3645956840
   27      H      -4.0061650389     2.1421937287     1.1537259556
   28      C       2.1460346397    -2.0812959056    -0.8515251753
   29      H       3.0956157587    -1.9417380186    -1.3733797682
   30      H       2.2318192407    -2.9248108321    -0.1664264996
   31      H       1.3777181415    -2.3210742046    -1.5871932857
   32      C       1.2939624721     2.6728607934    -0.8026826507
   33      H       2.2580337613     2.9285581977    -1.2478061318
   34      H       0.5414131740     2.6464253582    -1.5888240024
   35      H       1.0321779150     3.4553366533    -0.0840297158
 ----------------------------------------------------------------
 Nuclear Repulsion Energy =  1395.3294364940 hartrees
 There are       65 alpha and       65 beta electrons
 Applying Cartesian multipole field
    Component          Value
    ---------          -----
     (2,0,0)        1.00000E-11
     (0,2,0)        2.00000E-11
     (0,0,2)       -3.00000E-11
 Nucleus-field energy     =     0.0000000376 hartrees
 Requested basis set is 6-311++G(d,p)
 There are 192 shells and 500 basis functions
 A cutoff of  1.0D-11 yielded  15021 shell pairs
 There are    103725 function pairs (    110557 Cartesian)
 Smallest overlap matrix eigenvalue = 4.53E-07

 Q-Chem warning in module /fs/scratch/osu6415/qchem-kaunlao-vdw/stvman/mkSTV.C, line 281:

 Overlap eigenvalue is smaller than square root of threshold

 Linear dependence detected in AO basis
 Number of orthogonalized atomic orbitals = 499
 Maximum deviation from orthogonality = 1.457E-10
 Guess MOs from SCF MO coefficient file
 Reading MOs from coefficient file
 Reading MOs from coefficient file
 A restricted hybrid HF-DFT SCF calculation will be
 performed using Pulay DIIS extrapolation
 Exchange:     0.2000 Hartree-Fock + 0.0800 Slater + 0.7200 B88
 Correlation:  0.1900 VWN1RPA + 0.8100 LYP
 Using SG-1 standard quadrature grid
 Dispersion:   Grimme D3
 SCF converges when DIIS error is below 1.0E-08
 Geometry optimization detected.  Setting ReadMinima to 0
 Setting SaveMinima to 0
 using 20 threads for integral computing
 -------------------------------------------------------
 OpenMP Integral computing Module                
 Release: version 1.0, May 2013, Q-Chem Inc. Pittsburgh 
 -------------------------------------------------------
 -------------------------------------------------------
 OpenMP BLAS3 based DFT computing Module                
 Release: version 1.0, May 2013, Q-Chem Inc. Pittsburgh 
 -------------------------------------------------------
 ---------------------------------------
  Cycle       Energy         DIIS Error
 ---------------------------------------
    1    -844.5066270703      1.08E-03
    2    -844.5217844710      2.25E-04
    3    -844.5205449730      3.25E-04
    4    -844.5232803577      6.21E-05
    5    -844.5233522775      2.48E-05
    6    -844.5233659160      5.84E-06
    7    -844.5233666611      2.05E-06
    8    -844.5233667433      7.69E-07
    9    -844.5233667570      2.04E-07
   10    -844.5233667576      1.08E-07
   11    -844.5233667589      1.85E-08
   12    -844.5233667549      9.15E-09 Convergence criterion met
 ---------------------------------------
 SCF time:  CPU 985.17 s  wall 53.12 s
 SCF   energy in the final basis set = -844.52336675
 Total energy in the final basis set = -844.52336675
 
 --------------------------------------------------------------
 
                    Orbital Energies (a.u.)
 --------------------------------------------------------------
 
 Alpha MOs
 -- Occupied --
-19.179 -19.169 -19.124 -19.117 -19.109 -10.311 -10.302 -10.240
-10.238 -10.233 -10.227 -10.208 -10.201 -10.176 -10.175 -10.161
-10.158  -1.122  -1.109  -1.059  -1.031  -1.022  -0.829  -0.801
 -0.782  -0.748  -0.729  -0.720  -0.674  -0.642  -0.601  -0.581
 -0.569  -0.554  -0.526  -0.508  -0.505  -0.491  -0.488  -0.477
 -0.476  -0.470  -0.458  -0.439  -0.433  -0.425  -0.418  -0.409
 -0.405  -0.397  -0.392  -0.372  -0.369  -0.365  -0.357  -0.353
 -0.351  -0.345  -0.329  -0.322  -0.321  -0.306  -0.288  -0.279
 -0.268
 -- Virtual --
 -0.020  -0.009  -0.006  -0.002   0.003   0.010   0.013   0.020
  0.025   0.030   0.035   0.039   0.042   0.044   0.045   0.052
  0.061   0.066   0.069   0.075   0.079   0.081   0.085   0.089
  0.092   0.095   0.102   0.106   0.110   0.111   0.113   0.117
  0.120   0.122   0.127   0.129   0.132   0.132   0.135   0.141
  0.143   0.145   0.148   0.149   0.153   0.155   0.158   0.160
  0.163   0.165   0.167   0.169   0.172   0.176   0.179   0.181
  0.183   0.187   0.190   0.192   0.200   0.203   0.204   0.209
  0.211   0.213   0.215   0.218   0.221   0.225   0.228   0.236
  0.244   0.249   0.253   0.256   0.265   0.270   0.272   0.275
  0.278   0.280   0.285   0.291   0.298   0.303   0.308   0.315
  0.320   0.322   0.329   0.331   0.333   0.338   0.344   0.346
  0.349   0.352   0.360   0.361   0.365   0.368   0.371   0.376
  0.381   0.385   0.390   0.393   0.398   0.402   0.411   0.418
  0.425   0.430   0.435   0.439   0.446   0.461   0.462   0.470
  0.475   0.492   0.500   0.507   0.513   0.523   0.528   0.544
  0.551   0.555   0.571   0.579   0.585   0.587   0.596   0.607
  0.614   0.615   0.621   0.635   0.640   0.646   0.648   0.654
  0.656   0.660   0.670   0.674   0.679   0.684   0.690   0.698
  0.706   0.709   0.722   0.723   0.729   0.733   0.735   0.744
  0.750   0.755   0.764   0.772   0.780   0.785   0.788   0.807
  0.808   0.819   0.824   0.830   0.841   0.873   0.876   0.898
  0.932   0.944   0.959   0.977   1.000   1.024   1.030   1.041
  1.052   1.070   1.085   1.090   1.105   1.119   1.137   1.140
  1.192   1.202   1.205   1.210   1.214   1.227   1.231   1.252
  1.259   1.273   1.276   1.288   1.310   1.316   1.322   1.339
  1.345   1.359   1.370   1.383   1.392   1.399   1.413   1.433
  1.441   1.442   1.458   1.476   1.477   1.483   1.502   1.508
  1.520   1.528   1.536   1.548   1.557   1.562   1.569   1.576
  1.578   1.595   1.596   1.608   1.616   1.623   1.637   1.647
  1.651   1.666   1.681   1.685   1.696   1.701   1.705   1.715
  1.716   1.720   1.730   1.735   1.748   1.760   1.766   1.772
  1.789   1.794   1.804   1.820   1.836   1.846   1.849   1.861
  1.877   1.886   1.896   1.910   1.921   1.942   1.963   1.977
  1.995   2.006   2.014   2.024   2.034   2.049   2.060   2.076
  2.095   2.106   2.115   2.125   2.142   2.153   2.164   2.174
  2.184   2.213   2.215   2.222   2.237   2.252   2.277   2.290
  2.298   2.368   2.397   2.407   2.409   2.451   2.458   2.465
  2.478   2.490   2.497   2.507   2.518   2.521   2.529   2.535
  2.542   2.544   2.561   2.570   2.579   2.581   2.587   2.603
  2.616   2.632   2.645   2.665   2.671   2.679   2.685   2.709
  2.743   2.752   2.774   2.790   2.798   2.815   2.846   2.860
  2.867   2.875   2.880   2.910   2.913   2.929   2.945   2.972
  2.999   3.011   3.018   3.031   3.045   3.057   3.060   3.068
  3.092   3.095   3.113   3.131   3.143   3.148   3.171   3.182
  3.201   3.219   3.239   3.243   3.278   3.305   3.319   3.348
  3.374   3.388   3.404   3.419   3.540   3.603   3.616   3.668
  3.673   3.682   3.768   3.777   3.783   3.821   3.829   3.834
  3.852   3.859   3.872   3.943   3.963   4.017   4.066   4.102
  4.129   4.138   4.154   4.171   4.188   4.264   4.287   4.327
  4.443   4.510   5.032   5.086   5.115   5.177   5.234   5.264
  5.302   5.419   5.461   5.517   5.629   5.650   5.694   5.889
  5.908  23.758  23.836  23.860  23.871  23.900  23.931  23.945
 23.954  23.955  23.993  23.998  24.040  49.914  49.932  49.999
 50.036  50.054
 --------------------------------------------------------------
 
          Ground-State Mulliken Net Atomic Charges

     Atom                 Charge (a.u.)
  ----------------------------------------
      1 C                     0.515443
      2 C                     0.305975
      3 C                    -1.057942
      4 C                    -0.597971
      5 O                     0.035492
      6 O                    -0.177051
      7 O                    -0.082649
      8 O                    -0.214583
      9 C                    -0.200152
     10 C                    -0.171058
     11 C                    -0.213189
     12 C                    -0.382192
     13 C                    -0.448565
     14 C                    -0.446694
     15 O                     0.050778
     16 H                     0.301615
     17 H                     0.238023
     18 H                     0.186189
     19 H                     0.171499
     20 H                     0.173710
     21 H                     0.137790
     22 H                     0.174449
     23 H                     0.143961
     24 H                     0.134237
     25 H                     0.190435
     26 H                     0.172604
     27 H                     0.153244
     28 C                    -0.115861
     29 H                     0.143349
     30 H                     0.200087
     31 H                     0.187718
     32 C                    -0.015260
     33 H                     0.161892
     34 H                     0.198431
     35 H                     0.146246
  ----------------------------------------
  Sum of atomic charges =    -0.000000

 -----------------------------------------------------------------
                    Cartesian Multipole Moments
 -----------------------------------------------------------------
    Charge (ESU x 10^10)
                -0.0000
    Dipole Moment (Debye)
         X      -1.1724      Y       1.1734      Z       2.5248
       Tot       3.0209
    Quadrupole Moments (Debye-Ang)
        XX     -87.2220     XY       2.1871     YY    -104.5615
        XZ       1.9607     YZ       3.8372     ZZ    -106.1669
    Octopole Moments (Debye-Ang^2)
       XXX     -65.9767    XXY      -6.3510    XYY     -19.3816
       YYY      34.3661    XXZ       0.0211    XYZ      -4.7145
       YYZ      -9.9111    XZZ      -4.4999    YZZ     -10.9317
       ZZZ       4.8764
    Hexadecapole Moments (Debye-Ang^3)
      XXXX   -2348.6743   XXXY      -9.6975   XXYY    -659.1485
      XYYY       5.9290   YYYY   -2001.1450   XXXZ     -19.4758
      XXYZ      12.8136   XYYZ      -4.2420   YYYZ      17.1348
      XXZZ    -519.3512   XYZZ       9.3392   YYZZ    -388.3150
      XZZZ      -6.7521   YZZZ       4.9254   ZZZZ    -466.0164
 -----------------------------------------------------------------
 Calculating analytic gradient of the SCF energy
 Gradient of SCF Energy
            1           2           3           4           5           6
    1   0.0015344  -0.0014686  -0.0009407   0.0000912   0.0001824   0.0002315
    2   0.0008715  -0.0000167  -0.0020944   0.0000049   0.0004844   0.0006593
    3  -0.0007053   0.0000963   0.0007585   0.0010154  -0.0000587  -0.0000209
            7           8           9          10          11          12
    1  -0.0000033   0.0002469   0.0000525   0.0001435  -0.0011526   0.0010003
    2   0.0008143   0.0000041  -0.0000549  -0.0000678  -0.0007736   0.0004220
    3  -0.0005648  -0.0007564  -0.0000839  -0.0000319  -0.0000771  -0.0003127
           13          14          15          16          17          18
    1  -0.0007954   0.0015362   0.0002781  -0.0000670   0.0000387  -0.0000188
    2  -0.0001823  -0.0000339  -0.0001098  -0.0000373   0.0001335   0.0000169
    3   0.0004998  -0.0002323   0.0000914   0.0001433  -0.0000348  -0.0000122
           19          20          21          22          23          24
    1  -0.0000074   0.0000600   0.0000164  -0.0000791  -0.0001073  -0.0000218
    2  -0.0000136  -0.0000377   0.0000767  -0.0000316   0.0000969  -0.0000068
    3  -0.0000244   0.0002210  -0.0000100  -0.0001656   0.0002237   0.0000595
           25          26          27          28          29          30
    1  -0.0000161  -0.0000393  -0.0000037   0.0000406  -0.0000731  -0.0000065
    2  -0.0000595   0.0000020   0.0000015  -0.0000626   0.0000209   0.0000868
    3  -0.0000039  -0.0000099   0.0000010   0.0001359  -0.0000643  -0.0000106
           31          32          33          34          35
    1  -0.0001834  -0.0003319  -0.0000596  -0.0001146   0.0000374
    2   0.0000984  -0.0001246   0.0000462  -0.0000718  -0.0000616
    3  -0.0001038   0.0003329  -0.0001283  -0.0001939   0.0000271
 Max gradient component =       2.094E-03
 RMS gradient           =       4.614E-04
 Gradient time:  CPU 395.06 s  wall 27.24 s
 Geometry Optimization Parameters
   NAtoms,    NIC,     NZ,  NCons,   NDum,   NFix, NCnnct, MaxDiis
       35     275       0       0       0       0       0       0

 Cartesian Hessian Update
 Hessian Updated using Powell/Murtagh-Sargent Update
  Mixing factors:     0.000016 Powell
                      0.999984 Murtagh-Sargent


** GEOMETRY OPTIMIZATION IN DELOCALIZED INTERNAL COORDINATES **
   Searching for a Transition State

   Optimization Cycle:   2

                       Coordinates (Angstroms)
     ATOM                X               Y               Z
      1  C         0.1228822086    0.7991952223    0.6279640167
      2  C         0.4452432901   -0.7352689028    0.7051790983
      3  C        -1.1642569788    1.1882362480   -0.0812761441
      4  C        -0.5862237194   -1.7811742526    0.3152825687
      5  O        -2.0985363045    1.5564429494    0.8293795795
      6  O        -1.3463835179    1.2463733812   -1.2700131826
      7  O        -1.7969350341   -1.2819860879    0.0234745883
      8  O        -0.3499937564   -2.9663687399    0.3264632851
      9  C        -2.8153552051   -2.2350871300   -0.3339402932
     10  C        -3.3823800476    1.9116979264    0.2925301837
     11  C         1.4000856958    1.3363901222   -0.0997720513
     12  C         2.5899813063    1.2269239685    0.8978672670
     13  C         2.9098475482   -0.2887484106    0.8529159357
     14  C         1.8105205628   -0.8104928831   -0.1057861277
     15  O         1.6777436388    0.2791814533   -1.0299334218
     16  H         0.0509066573    1.2039990925    1.6374068912
     17  H         0.6575856243   -0.9928501648    1.7457599803
     18  H        -3.0062917665   -2.9154515248    0.4970019311
     19  H        -3.8007406171    1.0766763380   -0.2721456689
     20  H         3.4288759992    1.8236423676    0.5361476880
     21  H         2.3298500726    1.5915364077    1.8939415505
     22  H         3.8904995437   -0.4719133740    0.4095165342
     23  H         2.8845567691   -0.7772017657    1.8290169925
     24  H        -3.6990489657   -1.6418944846   -0.5574840115
     25  H        -2.5070142496   -2.8084908228   -1.2086123515
     26  H        -3.2998165182    2.7790578160   -0.3645956840
     27  H        -4.0061650389    2.1421937287    1.1537259556
     28  C         2.1460346397   -2.0812959056   -0.8515251753
     29  H         3.0956157587   -1.9417380186   -1.3733797682
     30  H         2.2318192407   -2.9248108321   -0.1664264996
     31  H         1.3777181415   -2.3210742046   -1.5871932857
     32  C         1.2939624721    2.6728607934   -0.8026826507
     33  H         2.2580337613    2.9285581977   -1.2478061318
     34  H         0.5414131740    2.6464253582   -1.5888240024
     35  H         1.0321779150    3.4553366533   -0.0840297158
   Point Group: c1    Number of degrees of freedom:    99


   Energy is   -844.523366755

 Hessian Updated using Powell/Murtagh-Sargent Update
  Mixing factors:     0.999796 Powell
                      0.000204 Murtagh-Sargent

 93 Hessian modes will be used to form the next step
  Hessian Eigenvalues:
    -0.000240    0.006543    0.006962    0.007353    0.007696    0.008662
     0.010157    0.010375    0.010857    0.011205    0.021518    0.022966
     0.023360    0.024897    0.034306    0.035895    0.037640    0.038576
     0.043684    0.044826    0.049028    0.051012    0.054085    0.056448
     0.057960    0.058099    0.058227    0.060015    0.060233    0.062960
     0.065362    0.066250    0.080060    0.085918    0.094621    0.101286
     0.101368    0.103669    0.105847    0.106122    0.111025    0.121673
     0.126863    0.154088    0.160000    0.160000    0.160000    0.160000
     0.160000    0.160000    0.160012    0.177595    0.226078    0.236363
     0.249634    0.249779    0.250000    0.250000    0.250064    0.251852
     0.252910    0.257413    0.274692    0.303444    0.303854    0.309747
     0.312332    0.337986    0.343324    0.344893    0.345276    0.345571
     0.345663    0.346070    0.346158    0.346518    0.346624    0.346775
     0.347218    0.347645    0.347694    0.347957    0.348054    0.348169
     0.349753    0.350367    0.350974    0.395985    0.401114    0.538397
     0.568260    1.006372    1.028325

 Transition State Search - Taking P-RFO Step
 Searching for Lamda that Maximizes Along the Lowest mode
 Value Taken    Lamda =   0.00041711
 Searching for Lamda that Minimizes Along All other modes
 Value Taken    Lamda =  -0.00026018
 Calculated Step too Large.  Step scaled by  0.371223
 Step Taken.  Stepsize is  0.300000

                             Maximum     Tolerance    Cnvgd?
         Gradient           0.001571      0.000001      NO
         Displacement       0.131926      0.000001      NO
         Energy change      0.000140      0.000000      NO


 New Cartesian Coordinates Obtained by Inverse Iteration

 Displacement from previous Coordinates is:  0.556847
 Adding empirical dispersion correction 
 ----------------------------------------------------------------
 Doing -D3(op) with
 s6 =   1.00000
 s8 =   0.78311
 a1 =   0.30000
 a2 =   4.25000
 n  =  10.00000
 -D3 energy without 3body term =     -0.0409491656 hartrees
 ----------------------------------------------------------------
             Standard Nuclear Orientation (Angstroms)
    I     Atom           X                Y                Z
 ----------------------------------------------------------------
    1      C       0.1282434885     0.8029280771     0.6154940257
    2      C       0.4339168272    -0.7377329182     0.6838889680
    3      C      -1.1600643798     1.2229984732    -0.0743392978
    4      C      -0.5942078452    -1.7781361672     0.2665803133
    5      O      -2.1021545785     1.5236386675     0.8531839463
    6      O      -1.3426035437     1.3394524863    -1.2587172665
    7      O      -1.8148416047    -1.2835466010     0.0128169929
    8      O      -0.3568734519    -2.9631527679     0.2692531180
    9      C      -2.8331999286    -2.2365731144    -0.3445053233
   10      C      -3.3894129963     1.8938856721     0.3346233247
   11      C       1.4069095382     1.3360547921    -0.1181235003
   12      C       2.5966402282     1.2400811082     0.8775567750
   13      C       2.8903293496    -0.2810854259     0.8814869898
   14      C       1.8130683525    -0.8121866023    -0.0989095386
   15      O       1.6904425019     0.2689831690    -1.0351028480
   16      H       0.0747472826     1.1973515610     1.6299505176
   17      H       0.6224590503    -1.0102712013     1.7253480129
   18      H      -3.0032432501    -2.9356049369     0.4754234408
   19      H      -3.7956913530     1.0888322024    -0.2800940085
   20      H       3.4427746139     1.8054899693     0.4836326793
   21      H       2.3543147734     1.6477408214     1.8613514437
   22      H       3.8841889629    -0.4949143769     0.4836119076
   23      H       2.8186059984    -0.7422135219     1.8682136897
   24      H      -3.7250368002    -1.6454321602    -0.5393290750
   25      H      -2.5373115065    -2.7888612497    -1.2368303753
   26      H      -3.3161788838     2.7999535083    -0.2691924832
   27      H      -4.0180934513     2.0646119217     1.2061186051
   28      C       2.1733927006    -2.0877591715    -0.8251832857
   29      H       3.1350140827    -1.9472060180    -1.3243439478
   30      H       2.2477456802    -2.9246569250    -0.1304917925
   31      H       1.4255457334    -2.3401333641    -1.5770936987
   32      C       1.3034413405     2.6649099700    -0.8363681988
   33      H       2.2704448820     2.9158330690    -1.2777858937
   34      H       0.5555286597     2.6302871850    -1.6260563209
   35      H       1.0373718271     3.4553143886    -0.1279200155
 ----------------------------------------------------------------
 Nuclear Repulsion Energy =  1393.5055980034 hartrees
 There are       65 alpha and       65 beta electrons
 Applying Cartesian multipole field
    Component          Value
    ---------          -----
     (2,0,0)        1.00000E-11
     (0,2,0)        2.00000E-11
     (0,0,2)       -3.00000E-11
 Nucleus-field energy     =     0.0000000378 hartrees
 Requested basis set is 6-311++G(d,p)
 There are 192 shells and 500 basis functions
 A cutoff of  1.0D-11 yielded  15020 shell pairs
 There are    103678 function pairs (    110490 Cartesian)
 Smallest overlap matrix eigenvalue = 4.54E-07

 Q-Chem warning in module /fs/scratch/osu6415/qchem-kaunlao-vdw/stvman/mkSTV.C, line 281:

 Overlap eigenvalue is smaller than square root of threshold

 Linear dependence detected in AO basis
 Number of orthogonalized atomic orbitals = 499
 Maximum deviation from orthogonality = 1.438E-10
 Guess MOs from SCF MO coefficient file
 Reading MOs from coefficient file
 Reading MOs from coefficient file
 A restricted hybrid HF-DFT SCF calculation will be
 performed using Pulay DIIS extrapolation
 Exchange:     0.2000 Hartree-Fock + 0.0800 Slater + 0.7200 B88
 Correlation:  0.1900 VWN1RPA + 0.8100 LYP
 Using SG-1 standard quadrature grid
 Dispersion:   Grimme D3
 SCF converges when DIIS error is below 1.0E-08
 Geometry optimization detected.  Setting ReadMinima to 0
 Setting SaveMinima to 0
 using 20 threads for integral computing
 -------------------------------------------------------
 OpenMP Integral computing Module                
 Release: version 1.0, May 2013, Q-Chem Inc. Pittsburgh 
 -------------------------------------------------------
 -------------------------------------------------------
 OpenMP BLAS3 based DFT computing Module                
 Release: version 1.0, May 2013, Q-Chem Inc. Pittsburgh 
 -------------------------------------------------------
 ---------------------------------------
  Cycle       Energy         DIIS Error
 ---------------------------------------
    1    -844.5110835455      8.74E-04
    2    -844.5225200513      1.19E-04
    3    -844.5222191262      1.69E-04
    4    -844.5229685234      3.28E-05
    5    -844.5229867751      1.52E-05
    6    -844.5229913684      5.36E-06
    7    -844.5229919946      1.87E-06
    8    -844.5229920710      5.45E-07
    9    -844.5229920781      1.29E-07
   10    -844.5229920789      7.19E-08
   11    -844.5229920788      2.37E-08
   12    -844.5229920737      9.21E-09 Convergence criterion met
 ---------------------------------------
 SCF time:  CPU 974.60 s  wall 51.54 s
 SCF   energy in the final basis set = -844.52299207
 Total energy in the final basis set = -844.52299207
 
 --------------------------------------------------------------
 
                    Orbital Energies (a.u.)
 --------------------------------------------------------------
 
 Alpha MOs
 -- Occupied --
-19.179 -19.169 -19.124 -19.117 -19.110 -10.311 -10.303 -10.240
-10.238 -10.233 -10.227 -10.209 -10.201 -10.175 -10.175 -10.160
-10.158  -1.122  -1.109  -1.059  -1.031  -1.023  -0.828  -0.801
 -0.782  -0.748  -0.729  -0.719  -0.674  -0.642  -0.601  -0.581
 -0.569  -0.554  -0.526  -0.508  -0.505  -0.491  -0.489  -0.477
 -0.476  -0.471  -0.458  -0.439  -0.433  -0.425  -0.418  -0.410
 -0.404  -0.397  -0.391  -0.372  -0.369  -0.365  -0.357  -0.353
 -0.351  -0.345  -0.329  -0.323  -0.320  -0.307  -0.288  -0.279
 -0.268
 -- Virtual --
 -0.021  -0.009  -0.006  -0.003   0.003   0.010   0.013   0.020
  0.025   0.031   0.035   0.038   0.042   0.043   0.045   0.052
  0.061   0.065   0.069   0.075   0.078   0.081   0.086   0.089
  0.092   0.095   0.102   0.106   0.109   0.111   0.113   0.118
  0.120   0.122   0.127   0.129   0.132   0.132   0.135   0.141
  0.143   0.145   0.148   0.149   0.153   0.156   0.159   0.160
  0.163   0.164   0.167   0.169   0.172   0.176   0.179   0.181
  0.183   0.187   0.190   0.192   0.200   0.203   0.204   0.209
  0.210   0.214   0.217   0.217   0.222   0.224   0.228   0.236
  0.243   0.249   0.253   0.255   0.266   0.270   0.271   0.273
  0.277   0.281   0.284   0.293   0.299   0.304   0.308   0.315
  0.319   0.321   0.329   0.332   0.334   0.337   0.344   0.347
  0.350   0.352   0.358   0.362   0.365   0.368   0.371   0.374
  0.382   0.384   0.389   0.393   0.396   0.399   0.410   0.417
  0.425   0.429   0.435   0.438   0.447   0.460   0.463   0.469
  0.475   0.492   0.500   0.505   0.513   0.524   0.527   0.543
  0.551   0.555   0.570   0.577   0.585   0.587   0.596   0.606
  0.613   0.617   0.619   0.634   0.638   0.646   0.647   0.652
  0.655   0.661   0.670   0.674   0.678   0.684   0.691   0.698
  0.706   0.709   0.721   0.722   0.728   0.733   0.736   0.741
  0.751   0.755   0.764   0.773   0.776   0.785   0.788   0.807
  0.809   0.819   0.822   0.831   0.841   0.871   0.880   0.900
  0.930   0.939   0.958   0.978   1.000   1.026   1.030   1.045
  1.055   1.072   1.083   1.091   1.100   1.119   1.132   1.140
  1.185   1.197   1.203   1.211   1.213   1.222   1.225   1.253
  1.259   1.272   1.280   1.292   1.308   1.320   1.322   1.336
  1.344   1.359   1.367   1.380   1.393   1.399   1.414   1.431
  1.439   1.441   1.457   1.474   1.478   1.481   1.504   1.508
  1.520   1.529   1.538   1.549   1.557   1.560   1.570   1.576
  1.579   1.593   1.598   1.607   1.616   1.622   1.636   1.645
  1.654   1.662   1.680   1.688   1.694   1.701   1.703   1.712
  1.716   1.720   1.729   1.735   1.748   1.758   1.767   1.772
  1.789   1.798   1.803   1.821   1.837   1.848   1.854   1.865
  1.876   1.885   1.895   1.901   1.918   1.940   1.959   1.979
  1.990   2.004   2.016   2.020   2.033   2.049   2.061   2.073
  2.092   2.107   2.114   2.126   2.146   2.152   2.160   2.174
  2.184   2.212   2.214   2.223   2.236   2.253   2.274   2.288
  2.298   2.372   2.395   2.406   2.412   2.450   2.460   2.466
  2.480   2.490   2.494   2.506   2.518   2.521   2.529   2.534
  2.541   2.545   2.558   2.571   2.580   2.581   2.588   2.603
  2.615   2.632   2.647   2.667   2.670   2.679   2.682   2.708
  2.744   2.750   2.773   2.792   2.798   2.813   2.843   2.859
  2.866   2.871   2.881   2.907   2.913   2.930   2.945   2.977
  3.004   3.011   3.013   3.026   3.046   3.050   3.058   3.072
  3.090   3.095   3.109   3.131   3.140   3.148   3.172   3.184
  3.196   3.218   3.240   3.244   3.277   3.300   3.318   3.347
  3.371   3.389   3.403   3.419   3.538   3.602   3.616   3.666
  3.672   3.682   3.761   3.777   3.783   3.820   3.829   3.835
  3.852   3.860   3.871   3.940   3.964   4.015   4.066   4.100
  4.129   4.137   4.154   4.172   4.182   4.264   4.287   4.327
  4.444   4.510   5.031   5.083   5.113   5.171   5.230   5.266
  5.302   5.419   5.459   5.515   5.629   5.647   5.695   5.891
  5.904  23.758  23.834  23.858  23.869  23.897  23.930  23.944
 23.953  23.955  23.994  24.001  24.042  49.914  49.932  49.998
 50.036  50.049
 --------------------------------------------------------------
 
          Ground-State Mulliken Net Atomic Charges

     Atom                 Charge (a.u.)
  ----------------------------------------
      1 C                     0.531367
      2 C                     0.319012
      3 C                    -1.013815
      4 C                    -0.636701
      5 O                     0.032900
      6 O                    -0.176700
      7 O                    -0.086831
      8 O                    -0.213085
      9 C                    -0.203205
     10 C                    -0.175622
     11 C                    -0.235471
     12 C                    -0.393754
     13 C                    -0.444219
     14 C                    -0.438385
     15 O                     0.052596
     16 H                     0.302939
     17 H                     0.236509
     18 H                     0.185886
     19 H                     0.176639
     20 H                     0.173595
     21 H                     0.137420
     22 H                     0.175902
     23 H                     0.142073
     24 H                     0.131036
     25 H                     0.190941
     26 H                     0.171899
     27 H                     0.153318
     28 C                    -0.118726
     29 H                     0.142929
     30 H                     0.199264
     31 H                     0.188153
     32 C                    -0.013467
     33 H                     0.158325
     34 H                     0.200259
     35 H                     0.147018
  ----------------------------------------
  Sum of atomic charges =    -0.000000

 -----------------------------------------------------------------
                    Cartesian Multipole Moments
 -----------------------------------------------------------------
    Charge (ESU x 10^10)
                -0.0000
    Dipole Moment (Debye)
         X      -1.2177      Y       1.0993      Z       2.5760
       Tot       3.0540
    Quadrupole Moments (Debye-Ang)
        XX     -87.2506     XY       2.2868     YY    -104.7340
        XZ       1.9665     YZ       3.8755     ZZ    -106.1017
    Octopole Moments (Debye-Ang^2)
       XXX     -66.6736    XXY      -7.1749    XYY     -19.0898
       YYY      32.5710    XXZ       0.8632    XYZ      -5.3849
       YYZ      -7.6068    XZZ      -4.7982    YZZ     -11.7142
       ZZZ       5.8205
    Hexadecapole Moments (Debye-Ang^3)
      XXXX   -2359.4683   XXXY     -10.8591   XXYY    -663.4224
      XYYY       4.5171   YYYY   -2005.0445   XXXZ     -16.9164
      XXYZ      13.8406   XYYZ      -4.5109   YYYZ      14.2320
      XXZZ    -521.8338   XYZZ       9.8168   YYZZ    -389.1499
      XZZZ      -2.7001   YZZZ       3.8338   ZZZZ    -465.0356
 -----------------------------------------------------------------
 Calculating analytic gradient of the SCF energy
 Gradient of SCF Energy
            1           2           3           4           5           6
    1   0.0006430  -0.0015321   0.0005890   0.0013850  -0.0004701   0.0005532
    2  -0.0003837  -0.0005167   0.0012208   0.0005571  -0.0005899   0.0012017
    3  -0.0001474   0.0017671  -0.0010521  -0.0037133   0.0003541  -0.0000094
            7           8           9          10          11          12
    1  -0.0004752  -0.0005199  -0.0000430   0.0000213  -0.0009556   0.0008509
    2  -0.0014621   0.0001170   0.0000301   0.0001275  -0.0003346   0.0004313
    3   0.0018048   0.0013031  -0.0000153  -0.0000533  -0.0003112  -0.0001131
           13          14          15          16          17          18
    1  -0.0013196   0.0015393   0.0001153   0.0003308   0.0001742  -0.0000677
    2  -0.0000307   0.0000664   0.0003566  -0.0002522  -0.0002267  -0.0000112
    3   0.0003174  -0.0004501   0.0002306   0.0000047  -0.0000331   0.0000074
           19          20          21          22          23          24
    1   0.0000085  -0.0000249   0.0003125   0.0000594  -0.0002167   0.0000110
    2   0.0000004  -0.0001875   0.0002987  -0.0002139   0.0001144  -0.0000001
    3  -0.0000177  -0.0000203  -0.0000712   0.0000246   0.0001042  -0.0000461
           25          26          27          28          29          30
    1   0.0000735  -0.0000217  -0.0000287  -0.0000072  -0.0000562  -0.0000077
    2   0.0000723  -0.0000286  -0.0000403  -0.0001196  -0.0000068   0.0000054
    3   0.0000050   0.0000032   0.0000012   0.0001776  -0.0000519   0.0000134
           31          32          33          34          35
    1  -0.0000996  -0.0004587  -0.0001486  -0.0002637   0.0000500
    2   0.0001445  -0.0001921   0.0000499  -0.0001332  -0.0000643
    3  -0.0000116   0.0004532  -0.0002171  -0.0002662   0.0000290
 Max gradient component =       3.713E-03
 RMS gradient           =       6.430E-04
 Gradient time:  CPU 390.31 s  wall 26.97 s
 Geometry Optimization Parameters
   NAtoms,    NIC,     NZ,  NCons,   NDum,   NFix, NCnnct, MaxDiis
       35     275       0       0       0       0       0       0

 Cartesian Hessian Update
 Hessian Updated using Powell/Murtagh-Sargent Update
  Mixing factors:     0.381887 Powell
                      0.618113 Murtagh-Sargent


** GEOMETRY OPTIMIZATION IN DELOCALIZED INTERNAL COORDINATES **
   Searching for a Transition State

   Optimization Cycle:   3

                       Coordinates (Angstroms)
     ATOM                X               Y               Z
      1  C         0.1282434885    0.8029280771    0.6154940257
      2  C         0.4339168272   -0.7377329182    0.6838889680
      3  C        -1.1600643798    1.2229984732   -0.0743392978
      4  C        -0.5942078452   -1.7781361672    0.2665803133
      5  O        -2.1021545785    1.5236386675    0.8531839463
      6  O        -1.3426035437    1.3394524863   -1.2587172665
      7  O        -1.8148416047   -1.2835466010    0.0128169929
      8  O        -0.3568734519   -2.9631527679    0.2692531180
      9  C        -2.8331999286   -2.2365731144   -0.3445053233
     10  C        -3.3894129963    1.8938856721    0.3346233247
     11  C         1.4069095382    1.3360547921   -0.1181235003
     12  C         2.5966402282    1.2400811082    0.8775567750
     13  C         2.8903293496   -0.2810854259    0.8814869898
     14  C         1.8130683525   -0.8121866023   -0.0989095386
     15  O         1.6904425019    0.2689831690   -1.0351028480
     16  H         0.0747472826    1.1973515610    1.6299505176
     17  H         0.6224590503   -1.0102712013    1.7253480129
     18  H        -3.0032432501   -2.9356049369    0.4754234408
     19  H        -3.7956913530    1.0888322024   -0.2800940085
     20  H         3.4427746139    1.8054899693    0.4836326793
     21  H         2.3543147734    1.6477408214    1.8613514437
     22  H         3.8841889629   -0.4949143769    0.4836119076
     23  H         2.8186059984   -0.7422135219    1.8682136897
     24  H        -3.7250368002   -1.6454321602   -0.5393290750
     25  H        -2.5373115065   -2.7888612497   -1.2368303753
     26  H        -3.3161788838    2.7999535083   -0.2691924832
     27  H        -4.0180934513    2.0646119217    1.2061186051
     28  C         2.1733927006   -2.0877591715   -0.8251832857
     29  H         3.1350140827   -1.9472060180   -1.3243439478
     30  H         2.2477456802   -2.9246569250   -0.1304917925
     31  H         1.4255457334   -2.3401333641   -1.5770936987
     32  C         1.3034413405    2.6649099700   -0.8363681988
     33  H         2.2704448820    2.9158330690   -1.2777858937
     34  H         0.5555286597    2.6302871850   -1.6260563209
     35  H         1.0373718271    3.4553143886   -0.1279200155
   Point Group: c1    Number of degrees of freedom:    99


   Energy is   -844.522992074

 Hessian Updated using Powell/Murtagh-Sargent Update
  Mixing factors:     0.936595 Powell
                      0.063405 Murtagh-Sargent

 89 Hessian modes will be used to form the next step
  Hessian Eigenvalues:
    -0.005450    0.006555    0.006978    0.007371    0.007699    0.008742
     0.010114    0.010376    0.010858    0.017432    0.021536    0.023180
     0.023441    0.026097    0.034618    0.036202    0.037644    0.038586
     0.043770    0.044828    0.049748    0.051011    0.054087    0.056450
     0.057960    0.058099    0.058355    0.060018    0.060233    0.063189
     0.065373    0.066270    0.080212    0.085916    0.094915    0.101286
     0.101368    0.104185    0.105848    0.106131    0.111214    0.122679
     0.127150    0.157296    0.160000    0.160010    0.160052    0.177718
     0.226353    0.236752    0.249638    0.249780    0.250000    0.250003
     0.251165    0.251912    0.253085    0.257626    0.274706    0.303468
     0.303978    0.309750    0.312332    0.338044    0.343324    0.344894
     0.345276    0.345571    0.345663    0.346070    0.346159    0.346518
     0.346624    0.346775    0.347218    0.347646    0.347694    0.348017
     0.348056    0.348177    0.349760    0.350367    0.350974    0.395986
     0.401116    0.538432    0.568314    1.006379    1.028326

 Transition State Search - Taking P-RFO Step
 Searching for Lamda that Maximizes Along the Lowest mode
 Value Taken    Lamda =   0.00000741
 Searching for Lamda that Minimizes Along All other modes
 Value Taken    Lamda =  -0.00064360
 Step Taken.  Stepsize is  0.153467

                             Maximum     Tolerance    Cnvgd?
         Gradient           0.003647      0.000001      NO
         Displacement       0.055436      0.000001      NO
         Energy change      0.000375      0.000000      NO


 New Cartesian Coordinates Obtained by Inverse Iteration

 Displacement from previous Coordinates is:  0.435142
 Adding empirical dispersion correction 
 ----------------------------------------------------------------
 Doing -D3(op) with
 s6 =   1.00000
 s8 =   0.78311
 a1 =   0.30000
 a2 =   4.25000
 n  =  10.00000
 -D3 energy without 3body term =     -0.0411333157 hartrees
 ----------------------------------------------------------------
             Standard Nuclear Orientation (Angstroms)
    I     Atom           X                Y                Z
 ----------------------------------------------------------------
    1      C       0.1297438515     0.8098892083     0.6223740067
    2      C       0.4384933579    -0.7285523432     0.7035423115
    3      C      -1.1682142315     1.2060147116    -0.0628904472
    4      C      -0.5983372704    -1.7651996308     0.2997261700
    5      O      -2.0981132590     1.5340422340     0.8672942876
    6      O      -1.3773691371     1.2546630842    -1.2475783180
    7      O      -1.8018606585    -1.2558843546    -0.0028966820
    8      O      -0.3659134137    -2.9512278001     0.2912417424
    9      C      -2.8201893405    -2.1985549871    -0.3868492058
   10      C      -3.3991134553     1.8652709111     0.3567768161
   11      C       1.4072914260     1.3360091963    -0.1203980017
   12      C       2.5992450624     1.2396214820     0.8721928329
   13      C       2.8993592115    -0.2798573026     0.8730348096
   14      C       1.8092992680    -0.8130978025    -0.0921402520
   15      O       1.6817937547     0.2630406822    -1.0335254024
   16      H       0.0801217169     1.2187417771     1.6313822256
   17      H       0.6313217268    -0.9913827802     1.7466657398
   18      H      -3.0279485921    -2.8870630555     0.4332630119
   19      H      -3.8061192168     1.0288666389    -0.2140220613
   20      H       3.4419249829     1.8076336929     0.4743277277
   21      H       2.3602000410     1.6455915436     1.8575132633
   22      H       3.8896005118    -0.4911441140     0.4651324428
   23      H       2.8389089655    -0.7405408219     1.8606348934
   24      H      -3.6965400714    -1.5974203462    -0.6179788119
   25      H      -2.5014990646    -2.7638168726    -1.2630806357
   26      H      -3.3481734893     2.7444155312    -0.2878025510
   27      H      -4.0140579496     2.0672727017     1.2313606888
   28      C       2.1601692823    -2.0936071177    -0.8146668747
   29      H       3.1187680927    -1.9583600614    -1.3211252159
   30      H       2.2375858941    -2.9269363643    -0.1160198055
   31      H       1.4066521054    -2.3487613711    -1.5598413116
   32      C       1.3120228969     2.6633235925    -0.8432116686
   33      H       2.2821460209     2.9072457501    -1.2817658735
   34      H       0.5663956436     2.6311632863    -1.6346223284
   35      H       1.0486176372     3.4574816222    -0.1378996427
 ----------------------------------------------------------------
 Nuclear Repulsion Energy =  1395.6114520210 hartrees
 There are       65 alpha and       65 beta electrons
 Applying Cartesian multipole field
    Component          Value
    ---------          -----
     (2,0,0)        1.00000E-11
     (0,2,0)        2.00000E-11
     (0,0,2)       -3.00000E-11
 Nucleus-field energy     =     0.0000000374 hartrees
 Requested basis set is 6-311++G(d,p)
 There are 192 shells and 500 basis functions
 A cutoff of  1.0D-11 yielded  15031 shell pairs
 There are    103818 function pairs (    110662 Cartesian)
 Smallest overlap matrix eigenvalue = 4.53E-07

 Q-Chem warning in module /fs/scratch/osu6415/qchem-kaunlao-vdw/stvman/mkSTV.C, line 281:

 Overlap eigenvalue is smaller than square root of threshold

 Linear dependence detected in AO basis
 Number of orthogonalized atomic orbitals = 499
 Maximum deviation from orthogonality = 1.347E-10
 Guess MOs from SCF MO coefficient file
 Reading MOs from coefficient file
 Reading MOs from coefficient file
 A restricted hybrid HF-DFT SCF calculation will be
 performed using Pulay DIIS extrapolation
 Exchange:     0.2000 Hartree-Fock + 0.0800 Slater + 0.7200 B88
 Correlation:  0.1900 VWN1RPA + 0.8100 LYP
 Using SG-1 standard quadrature grid
 Dispersion:   Grimme D3
 SCF converges when DIIS error is below 1.0E-08
 Geometry optimization detected.  Setting ReadMinima to 0
 Setting SaveMinima to 0
 using 20 threads for integral computing
 -------------------------------------------------------
 OpenMP Integral computing Module                
 Release: version 1.0, May 2013, Q-Chem Inc. Pittsburgh 
 -------------------------------------------------------
 -------------------------------------------------------
 OpenMP BLAS3 based DFT computing Module                
 Release: version 1.0, May 2013, Q-Chem Inc. Pittsburgh 
 -------------------------------------------------------
 ---------------------------------------
  Cycle       Energy         DIIS Error
 ---------------------------------------
    1    -844.5145490658      6.96E-04
    2    -844.5228396783      7.15E-05
    3    -844.5226326392      1.29E-04
    4    -844.5230093157      2.29E-05
    5    -844.5230202066      8.00E-06
    6    -844.5230218556      2.09E-06
    7    -844.5230219290      1.44E-06
    8    -844.5230219715      4.35E-07
    9    -844.5230219764      8.66E-08
   10    -844.5230219768      3.60E-08
   11    -844.5230219744      1.40E-08
   12    -844.5230219714      2.78E-09 Convergence criterion met
 ---------------------------------------
 SCF time:  CPU 963.74 s  wall 52.13 s
 SCF   energy in the final basis set = -844.52302197
 Total energy in the final basis set = -844.52302197
 
 --------------------------------------------------------------
 
                    Orbital Energies (a.u.)
 --------------------------------------------------------------
 
 Alpha MOs
 -- Occupied --
-19.178 -19.169 -19.125 -19.116 -19.109 -10.311 -10.302 -10.240
-10.238 -10.233 -10.227 -10.209 -10.201 -10.176 -10.175 -10.161
-10.158  -1.122  -1.109  -1.059  -1.030  -1.022  -0.829  -0.801
 -0.782  -0.748  -0.729  -0.720  -0.674  -0.642  -0.601  -0.581
 -0.569  -0.553  -0.526  -0.508  -0.505  -0.491  -0.489  -0.477
 -0.476  -0.470  -0.458  -0.439  -0.432  -0.425  -0.418  -0.410
 -0.405  -0.397  -0.393  -0.372  -0.369  -0.365  -0.357  -0.352
 -0.351  -0.345  -0.329  -0.323  -0.321  -0.306  -0.288  -0.279
 -0.268
 -- Virtual --
 -0.020  -0.009  -0.006  -0.003   0.003   0.010   0.013   0.020
  0.025   0.030   0.036   0.039   0.042   0.044   0.045   0.052
  0.061   0.066   0.069   0.074   0.079   0.081   0.086   0.089
  0.092   0.095   0.102   0.106   0.109   0.110   0.113   0.118
  0.120   0.122   0.128   0.129   0.132   0.132   0.136   0.141
  0.143   0.145   0.148   0.149   0.153   0.156   0.158   0.160
  0.163   0.165   0.167   0.168   0.172   0.177   0.179   0.181
  0.183   0.187   0.190   0.192   0.200   0.204   0.205   0.209
  0.211   0.214   0.216   0.218   0.221   0.224   0.228   0.236
  0.244   0.249   0.252   0.256   0.265   0.268   0.272   0.273
  0.278   0.280   0.284   0.292   0.299   0.303   0.309   0.314
  0.321   0.322   0.329   0.331   0.334   0.338   0.344   0.347
  0.349   0.352   0.359   0.361   0.365   0.368   0.371   0.375
  0.382   0.384   0.388   0.393   0.396   0.401   0.411   0.417
  0.424   0.429   0.435   0.440   0.447   0.461   0.463   0.469
  0.475   0.493   0.502   0.507   0.512   0.522   0.529   0.543
  0.552   0.554   0.573   0.578   0.585   0.586   0.596   0.606
  0.612   0.616   0.620   0.634   0.640   0.646   0.648   0.652
  0.655   0.662   0.670   0.674   0.680   0.685   0.691   0.699
  0.707   0.708   0.721   0.723   0.730   0.734   0.736   0.743
  0.750   0.758   0.764   0.773   0.777   0.787   0.789   0.807
  0.810   0.820   0.824   0.831   0.839   0.870   0.878   0.899
  0.933   0.941   0.958   0.975   1.002   1.022   1.030   1.044
  1.052   1.071   1.086   1.089   1.103   1.121   1.138   1.143
  1.193   1.199   1.202   1.212   1.216   1.226   1.234   1.250
  1.255   1.274   1.277   1.292   1.309   1.317   1.321   1.341
  1.345   1.360   1.368   1.382   1.389   1.401   1.416   1.434
  1.441   1.445   1.459   1.475   1.477   1.485   1.502   1.508
  1.519   1.528   1.537   1.547   1.557   1.561   1.570   1.576
  1.579   1.594   1.598   1.609   1.616   1.624   1.637   1.644
  1.652   1.667   1.680   1.687   1.694   1.699   1.704   1.714
  1.717   1.721   1.731   1.736   1.748   1.758   1.769   1.772
  1.789   1.797   1.804   1.821   1.836   1.848   1.851   1.862
  1.878   1.885   1.897   1.908   1.923   1.940   1.959   1.977
  1.992   2.004   2.016   2.022   2.034   2.051   2.063   2.074
  2.093   2.105   2.116   2.126   2.145   2.153   2.161   2.174
  2.184   2.211   2.216   2.222   2.241   2.255   2.277   2.289
  2.298   2.371   2.395   2.406   2.411   2.455   2.460   2.466
  2.480   2.490   2.495   2.507   2.518   2.520   2.529   2.535
  2.541   2.545   2.562   2.572   2.580   2.580   2.588   2.602
  2.616   2.631   2.646   2.668   2.672   2.677   2.684   2.706
  2.744   2.750   2.774   2.791   2.797   2.816   2.843   2.859
  2.868   2.874   2.882   2.911   2.915   2.932   2.943   2.975
  3.002   3.011   3.014   3.030   3.047   3.052   3.061   3.071
  3.092   3.096   3.111   3.131   3.142   3.147   3.173   3.185
  3.196   3.219   3.239   3.243   3.280   3.301   3.319   3.348
  3.372   3.389   3.407   3.416   3.538   3.603   3.616   3.667
  3.673   3.681   3.768   3.778   3.783   3.820   3.827   3.835
  3.853   3.858   3.874   3.941   3.964   4.018   4.066   4.099
  4.129   4.138   4.156   4.172   4.187   4.264   4.288   4.326
  4.443   4.510   5.025   5.090   5.115   5.174   5.232   5.264
  5.301   5.420   5.464   5.515   5.630   5.650   5.695   5.889
  5.910  23.757  23.835  23.860  23.871  23.900  23.931  23.944
 23.952  23.954  23.993  24.001  24.042  49.914  49.935  49.998
 50.036  50.055
 --------------------------------------------------------------
 
          Ground-State Mulliken Net Atomic Charges

     Atom                 Charge (a.u.)
  ----------------------------------------
      1 C                     0.518975
      2 C                     0.279018
      3 C                    -1.024931
      4 C                    -0.603644
      5 O                     0.038062
      6 O                    -0.178851
      7 O                    -0.085345
      8 O                    -0.215787
      9 C                    -0.201809
     10 C                    -0.164339
     11 C                    -0.219706
     12 C                    -0.394721
     13 C                    -0.437528
     14 C                    -0.427750
     15 O                     0.049978
     16 H                     0.301497
     17 H                     0.234833
     18 H                     0.186217
     19 H                     0.170183
     20 H                     0.171950
     21 H                     0.138625
     22 H                     0.175936
     23 H                     0.141479
     24 H                     0.133805
     25 H                     0.190521
     26 H                     0.172048
     27 H                     0.154334
     28 C                    -0.131378
     29 H                     0.142686
     30 H                     0.199394
     31 H                     0.188693
     32 C                    -0.009440
     33 H                     0.159784
     34 H                     0.200162
     35 H                     0.147050
  ----------------------------------------
  Sum of atomic charges =    -0.000000

 -----------------------------------------------------------------
                    Cartesian Multipole Moments
 -----------------------------------------------------------------
    Charge (ESU x 10^10)
                -0.0000
    Dipole Moment (Debye)
         X      -1.1368      Y       1.1940      Z       2.5469
       Tot       3.0339
    Quadrupole Moments (Debye-Ang)
        XX     -87.2413     XY       2.2285     YY    -104.6629
        XZ       1.8787     YZ       3.7682     ZZ    -106.0593
    Octopole Moments (Debye-Ang^2)
       XXX     -65.6176    XXY      -6.6551    XYY     -17.9644
       YYY      33.4387    XXZ       0.5908    XYZ      -5.4909
       YYZ      -9.2527    XZZ      -4.5936    YZZ     -11.1719
       ZZZ       4.6227
    Hexadecapole Moments (Debye-Ang^3)
      XXXX   -2362.5636   XXXY     -11.7433   XXYY    -661.5427
      XYYY       2.9790   YYYY   -1979.9053   XXXZ     -18.6913
      XXYZ      13.1705   XYYZ      -3.6851   YYYZ      11.8232
      XXZZ    -522.0666   XYZZ       9.5651   YYZZ    -384.7329
      XZZZ      -3.7028   YZZZ       0.4411   ZZZZ    -467.7715
 -----------------------------------------------------------------
 Calculating analytic gradient of the SCF energy
 Gradient of SCF Energy
            1           2           3           4           5           6
    1   0.0000832   0.0000515   0.0008404  -0.0006448  -0.0005356  -0.0013609
    2  -0.0018317   0.0000994   0.0032707  -0.0001666  -0.0014651  -0.0024878
    3  -0.0005892  -0.0006199   0.0009480   0.0042103  -0.0001307   0.0001179
            7           8           9          10          11          12
    1   0.0001190   0.0006444  -0.0000860  -0.0000986  -0.0000344  -0.0001734
    2   0.0017924  -0.0000077  -0.0000155  -0.0000337   0.0001611   0.0000610
    3  -0.0015431  -0.0018966  -0.0001035  -0.0000150  -0.0004107   0.0002024
           13          14          15          16          17          18
    1  -0.0000966   0.0006093  -0.0000316   0.0002248  -0.0005738   0.0000784
    2   0.0000327   0.0003049   0.0000538   0.0000704  -0.0003483   0.0000262
    3  -0.0002977   0.0000828   0.0001518  -0.0000810  -0.0000831  -0.0000039
           19          20          21          22          23          24
[...]
     0.00000352     -0.00001202      0.00006280
     0.00000471      0.00001254      0.00008354
    -0.00000040      0.00002760      0.00003263
    -0.00048058     -0.00035615      0.00033720
    -0.04903159     -0.02051555      0.05110362
     0.02362922      0.01686718     -0.04710165
     0.00067418      0.00068258     -0.00059317
    -0.00001921     -0.00013374      0.00014790
    -0.00829213      0.03105637      0.07798133
     0.03120913     -0.02384236      0.11435345
     0.00002892      0.00016675     -0.00021111
    -0.00005466     -0.00019288     -0.00014204
     0.46293906      0.35472208     -0.16028115
     0.12023426     -0.11492153     -0.44972427
    -0.30116345      0.03722456      0.15748351
     0.01546999     -0.23818175      0.40336386
    -0.00024462      0.00014820     -0.00004855
     0.00026657     -0.00059311     -0.00076695
    -0.00006498     -0.00011752      0.00005506
    -0.00001753      0.00000617     -0.00006742
    -0.00361668     -0.00235584      0.00105783
     0.02571471      0.00442589     -0.01433417
    -0.00277357      0.01996859     -0.01581377
     0.01863889      0.00355316      0.01793901
     0.01303638     -0.00439700     -0.01069280
    -0.12235469     -0.03110938      0.05223331
    -0.00566941     -0.00061426     -0.01303026
    -0.02571953      0.08695853      0.08759242
vibration 90
     0.00050727     -0.00057778     -0.00221548
    -0.00097693      0.00084730     -0.00327505
     0.00021453      0.00009298      0.00011966
    -0.00004976     -0.00000028     -0.00005522
    -0.00003730     -0.00001520     -0.00001240
     0.00004971      0.00003109     -0.00006115
     0.00003481     -0.00001639      0.00000142
    -0.00000335     -0.00002955      0.00002166
     0.00005193      0.00000027      0.00001360
    -0.00009591     -0.00065712      0.00018639
    -0.00125596      0.00017551      0.00145548
    -0.00170667     -0.00180954     -0.00029673
     0.01202123      0.00704913     -0.02108201
     0.00031833      0.00009485     -0.00023825
     0.00012617     -0.00027678     -0.00016266
    -0.00219485      0.00978939      0.02278596
     0.01070563     -0.00874138      0.03968177
    -0.00003853     -0.00015123      0.00019260
     0.00110321      0.00265189      0.00173189
     0.02533584      0.01778214     -0.00730996
    -0.00328859      0.00354533      0.00804068
    -0.15111790      0.01889159      0.07980650
     0.00679002     -0.10196654      0.17129501
    -0.00057326      0.00041861     -0.00016074
     0.00009423     -0.00022493     -0.00026923
     0.00083349      0.00515793     -0.00434724
    -0.00049988      0.00005830      0.00053174
    -0.00249928     -0.00141298      0.00060946
     0.01818101      0.00291546     -0.01033385
    -0.00171252      0.01140244     -0.00888353
     0.01273438      0.00253632      0.01215256
    -0.05907754      0.01948037      0.06265673
     0.65360454      0.17702879     -0.28884430
    -0.06996426      0.00670020     -0.04264792
     0.12299486     -0.42014676     -0.42105100
vibration 91
     0.00744532     -0.02691850     -0.06866272
    -0.00301160      0.00290530     -0.01059690
     0.00147567     -0.00075894     -0.00153163
     0.00001220      0.00046679     -0.00018718
    -0.00015268      0.00008669      0.00029153
    -0.00006831      0.00001099      0.00055474
    -0.00006063     -0.00005522      0.00000799
     0.00001812     -0.00017702     -0.00001242
     0.00003050      0.00015678      0.00022236
    -0.00039913      0.00055060     -0.00007682
    -0.00084401     -0.00062563     -0.00002330
    -0.01334338     -0.00684775      0.01062942
    -0.01946169     -0.00907843      0.03030083
    -0.00081525      0.00014992      0.00030396
     0.00004621      0.00021789      0.00022706
    -0.08959337      0.31952332      0.81404648
     0.03859728     -0.02876684      0.12859887
    -0.00019035     -0.00032075      0.00030146
     0.00161884      0.00223702      0.00152168
     0.13674859      0.10546830     -0.04662954
     0.02247256     -0.02219974     -0.07946044
     0.24306728     -0.03097584     -0.12827483
    -0.00985065      0.13858018     -0.23187407
    -0.00107055      0.00055431     -0.00029676
     0.00092328     -0.00202640     -0.00267452
    -0.00076841     -0.00634546      0.00525243
     0.00262135     -0.00113298     -0.00389413
     0.00599789      0.00290288     -0.00037163
    -0.03696172     -0.00613363      0.02165183
     0.00344250     -0.02094700      0.01611883
    -0.03690770     -0.00776545     -0.03369583
    -0.00330287      0.00049093      0.00603511
     0.05900961      0.01723898     -0.02654610
    -0.02472894      0.00074165     -0.02276472
     0.00717125     -0.02319238     -0.02400886
vibration 92
     0.00328184     -0.01271798     -0.03197300
    -0.00331275      0.00268876     -0.01144266
     0.00052086     -0.00037647     -0.00093041
    -0.00008932     -0.00013156     -0.00014479
    -0.00004178      0.00003981      0.00017379
    -0.00001686     -0.00002402      0.00044581
     0.00004178      0.00002080     -0.00000375
    -0.00004087      0.00008973      0.00010144
    -0.00017364      0.00001373      0.00058180
    -0.00019564      0.00055159     -0.00005840
     0.00089823     -0.00073816     -0.00126856
     0.03488970      0.01176735     -0.04133660
     0.02904294      0.01522664     -0.04788702
     0.00020614      0.00100666     -0.00094197
    -0.00024741      0.00006530      0.00076293
    -0.04249399      0.14973008      0.38191440
     0.03817454     -0.03118766      0.14078220
     0.00066706      0.00261567     -0.00364690
     0.00031811     -0.00012956     -0.00000799
    -0.31312998     -0.24188612      0.10809406
    -0.10473195      0.09994402      0.38682098
    -0.36573546      0.04790703      0.19408788
     0.01551149     -0.22749081      0.38006557
     0.00010315     -0.00009362      0.00012952
     0.00141221     -0.00281631     -0.00369612
    -0.00063182     -0.00494954      0.00415890
     0.00193225     -0.00076659     -0.00265810
    -0.01994069     -0.00922847      0.00232659
     0.13546079      0.02062442     -0.08110798
    -0.01092248      0.06432688     -0.04994928
     0.11327473      0.02442655      0.10340309
     0.01051086     -0.00385599     -0.01256915
    -0.12191409     -0.03434394      0.05518965
     0.01895648     -0.00180053      0.01536603
    -0.02388333      0.08276798      0.08171384
vibration 93
    -0.00027822      0.00128913      0.00328332
     0.00088803     -0.00064027      0.00137712
    -0.00005352      0.00001518      0.00007901
     0.00042304     -0.00060593      0.00001554
    -0.00000515     -0.00002048     -0.00000963
     0.00000716      0.00001841     -0.00004718
    -0.00014128      0.00007311     -0.00006885
    -0.00020304      0.00028985      0.00018630
    -0.00035102      0.00044776      0.00053860
     0.00201679      0.00657981     -0.00057484
    -0.00022106      0.00016675      0.00027022
    -0.00710141     -0.00238908      0.00824701
    -0.01044991     -0.00464354      0.01647807
    -0.00221297     -0.00037189      0.00065221
     0.00027273      0.00010091     -0.00021055
     0.00465278     -0.01544241     -0.03988418
    -0.00532186      0.00488381     -0.02012417
     0.00015010      0.00088737     -0.00117379
    -0.01826282     -0.04129157     -0.02594583
     0.06474580      0.05000121     -0.02231617
     0.02120055     -0.02060148     -0.07700689
     0.13697383     -0.01603271     -0.07057786
    -0.00529882      0.07385367     -0.12477525
     0.00235432     -0.00155806      0.00080219
     0.00224194     -0.00439263     -0.00581811
    -0.00607070     -0.03799807      0.03309565
     0.00062680      0.00125170     -0.00038137
    -0.08509854     -0.02690264     -0.00179185
     0.54713526      0.07956333     -0.33661986
    -0.03236748      0.12977446     -0.10105401
     0.50758199      0.11209771      0.45441776
    -0.00127709      0.00061838      0.00231566
     0.01877790      0.00550288     -0.00849701
    -0.00698907      0.00033269     -0.00640954
     0.00389479     -0.01338962     -0.01315365
vibration 94
    -0.00004654     -0.00029298     -0.00015434
     0.00012437     -0.00003547      0.00011031
     0.00006586      0.00011753     -0.00006464
    -0.00016251     -0.00002214     -0.00004441
     0.00004948      0.00034393     -0.00003706
     0.00002035      0.00014646      0.00000959
     0.00007643      0.00001376      0.00001186
     0.00003640     -0.00000429      0.00002430
     0.00127281     -0.00147003     -0.00040299
    -0.02708613     -0.09000986      0.00871865
    -0.00003845     -0.00000867     -0.00002842
    -0.00043669     -0.00016702      0.00046086
    -0.00076317     -0.00035513      0.00122891
    -0.00018569     -0.00004181      0.00007585
     0.00001751      0.00004658     -0.00001331
    -0.00031654      0.00080707      0.00203018
    -0.00034134      0.00033386     -0.00141343
     0.00084223      0.00170466     -0.00294006
     0.24538132      0.55530381      0.34950374
     0.00412454      0.00320369     -0.00144287
     0.00112075     -0.00112223     -0.00398319
     0.01008700     -0.00112745     -0.00515837
    -0.00041635      0.00561815     -0.00947727
    -0.01173690      0.00779983     -0.00324048
    -0.00378474      0.00785731      0.01117408
     0.08391096      0.52662192     -0.45787455
    -0.00842167     -0.01710630      0.00540217
    -0.00633522     -0.00194683     -0.00020491
     0.04053082      0.00590333     -0.02494614
    -0.00238657      0.00903690     -0.00703724
     0.03800183      0.00840630      0.03406149
    -0.00001621     -0.00028193     -0.00063346
    -0.00165261     -0.00035813      0.00053066
     0.00320778     -0.00022980      0.00288205
    -0.00116965      0.00403506      0.00411038
vibration 95
     0.00002583     -0.00013854     -0.00032707
     0.00004068      0.00004038     -0.00033940
     0.00003972     -0.00002026     -0.00019637
     0.00000288     -0.00001679      0.00019361
    -0.00003842     -0.00000442      0.00004739
     0.00001671      0.00001881      0.00010099
    -0.00012668     -0.00000271      0.00037783
    -0.00004881      0.00000637      0.00013451
     0.02256329      0.00099452     -0.09234645
     0.00001649      0.00076576      0.00035246
     0.00001050     -0.00001236     -0.00001924
     0.00010932      0.00001814     -0.00016244
     0.00007296      0.00007538     -0.00018052
     0.00000669      0.00001577      0.00002059
    -0.00000337      0.00000731      0.00001594
    -0.00035967      0.00162238      0.00400268
     0.00017269     -0.00043608      0.00145892
    -0.10026783     -0.39966129      0.55907113
    -0.00236344     -0.00547889     -0.00351627
    -0.00085029     -0.00064233      0.00028476
    -0.00043963      0.00043756      0.00166317
    -0.00092020      0.00012641      0.00051613
     0.00007297     -0.00096760      0.00161072
     0.04436221     -0.02585281     -0.00620169
    -0.21086738      0.41348650      0.53878640
    -0.00049319     -0.00266486      0.00242551
     0.00263944     -0.00084586     -0.00330296
    -0.00049809     -0.00060399      0.00050155
     0.00529969      0.00074582     -0.00302463
    -0.00072860      0.00618817     -0.00464084
     0.00138236      0.00024179      0.00155471
     0.00013352     -0.00000613      0.00001160
    -0.00080557     -0.00022820      0.00038764
    -0.00077954     -0.00000349     -0.00081490
    -0.00005627      0.00029110      0.00027767
vibration 96
    -0.00008238      0.00018974      0.00051696
     0.00035496     -0.00028790      0.00093227
    -0.00000738      0.00002344      0.00011578
     0.00017482     -0.00026451      0.00008225
     0.00000978     -0.00000269     -0.00002219
    -0.00000232     -0.00000681     -0.00006225
    -0.00011854      0.00005790     -0.00006479
    -0.00033185      0.00009475      0.00000383
    -0.00022292      0.00014233      0.00063511
     0.00001064     -0.00011488     -0.00007210
    -0.00010721      0.00025886      0.00016168
    -0.00073947     -0.00033421      0.00090338
    -0.00171020     -0.00136515      0.00323924
     0.00028559     -0.00066702      0.00174573
    -0.00008488      0.00043101     -0.00033538
     0.00095179     -0.00262007     -0.00690139
    -0.00264023      0.00250917     -0.01358906
     0.00058754      0.00223183     -0.00318602
     0.00033696      0.00076263      0.00048715
     0.00695204      0.00585074     -0.00242454
     0.00232508     -0.00235423     -0.00932868
     0.02042738     -0.00327137     -0.01050596
    -0.00145013      0.01770348     -0.03180059
     0.00048563     -0.00032994      0.00026365
     0.00169272     -0.00352016     -0.00452232
     0.00005755      0.00033479     -0.00029065
    -0.00055722      0.00021353      0.00070336
     0.01690127     -0.05260193      0.07364054
     0.20033924      0.02106841     -0.10319945
    -0.06800399      0.69371613     -0.51197072
    -0.33009028     -0.08615118     -0.27110598
    -0.00062242     -0.00011494     -0.00026540
     0.00360106      0.00102329     -0.00168755
     0.00408108     -0.00001862      0.00428158
    -0.00021605      0.00023297      0.00039311
vibration 97
     0.00019919     -0.00024419     -0.00119888
    -0.00002008      0.00008048     -0.00015476
     0.00004114     -0.00016910     -0.00023359
    -0.00004376      0.00003746     -0.00002148
     0.00000511      0.00003717      0.00001687
    -0.00039021     -0.00029444      0.00017046
     0.00001345     -0.00001964      0.00000784
     0.00001100     -0.00001898      0.00000304
     0.00006275      0.00000071     -0.00010135
    -0.00011288      0.00063168      0.00050061
    -0.00133088     -0.00056309     -0.00091504
    -0.00147958     -0.00103703      0.00193003
    -0.00011780     -0.00008111      0.00006182
    -0.00003745      0.00012425     -0.00005261
     0.00012046      0.00012349      0.00015643
    -0.00177543      0.00483603      0.01384957
     0.00052864     -0.00055452      0.00203570
    -0.00015059     -0.00056916      0.00076659
    -0.00192638     -0.00444698     -0.00262678
     0.01992407      0.01354973     -0.00565452
     0.00347838     -0.00308938     -0.01305414
     0.00194486     -0.00006232     -0.00098784
     0.00008649      0.00042781      0.00018972
    -0.00029634      0.00022402     -0.00012196
    -0.00021058      0.00039385      0.00050788
    -0.00023693     -0.00145371      0.00148264
     0.00370883     -0.00147603     -0.00476974
    -0.00043213      0.00025366     -0.00051953
     0.00058050      0.00013464     -0.00055678
     0.00032744     -0.00436867      0.00314387
     0.00438836      0.00114886      0.00378473
    -0.06898185     -0.01613333     -0.05745332
     0.25243802      0.06403413     -0.12993358
     0.64497514     -0.02378334      0.65831070
    -0.06366859      0.16139243      0.16048081
vibration 98
     0.00000058     -0.00002180     -0.00004272
    -0.00001372      0.00001384     -0.00004589
    -0.00070190      0.00019037     -0.00105948
    -0.00005770      0.00000393     -0.00002411
    -0.00022515      0.00003593      0.00032065
     0.00022838     -0.00005303      0.00052983
    -0.00000304     -0.00000609      0.00002187
     0.00001446     -0.00001380      0.00000678
     0.00248005     -0.00248105      0.00009783
     0.03832340     -0.01942261     -0.08399908
    -0.00001972     -0.00000384     -0.00001419
     0.00000204     -0.00002469     -0.00003999
    -0.00000932      0.00002473     -0.00003188
    -0.00001064      0.00001207     -0.00000796
     0.00001512     -0.00000300      0.00001016
     0.00018943      0.00041905      0.00141887
     0.00023790     -0.00016973      0.00060427
     0.00164045      0.00345836     -0.00600601
     0.11446896      0.24345491      0.12920028
     0.00020794      0.00012490     -0.00007140
    -0.00014970      0.00011851      0.00053154
     0.00013965     -0.00000703     -0.00007832
     0.00001851     -0.00028940      0.00048242
    -0.02611716      0.01735509     -0.00774639
    -0.00440659      0.00864638      0.01257367
    -0.03292465     -0.24316747      0.18020504
    -0.53008677      0.22917556      0.68878167
    -0.00008720      0.00002750     -0.00006449
     0.00036153      0.00006640     -0.00023968
     0.00003728     -0.00056673      0.00041365
     0.00065775      0.00018047      0.00058575
    -0.00047348     -0.00012660     -0.00037332
     0.00217994      0.00053602     -0.00100786
     0.00402949     -0.00024128      0.00431731
    -0.00046886      0.00120505      0.00120413
vibration 99
    -0.00000206     -0.00001696      0.00002522
    -0.00001400     -0.00004023     -0.00006608
    -0.00016109      0.00005982     -0.00006729
     0.00045586      0.00118791      0.00008466
     0.00004967     -0.00000860      0.00000006
     0.00004792     -0.00001619      0.00004709
     0.00020145     -0.00029544      0.00005517
    -0.00006311     -0.00053562     -0.00000909
    -0.06432791      0.06770396     -0.01474770
     0.00063297     -0.00237480     -0.00311631
    -0.00000344      0.00000557      0.00000694
     0.00002235      0.00002044     -0.00000596
     0.00002001      0.00001608     -0.00004530
     0.00001715      0.00002290     -0.00001854
     0.00000108     -0.00002640      0.00000590
     0.00001683     -0.00014488     -0.00027523
     0.00017799     -0.00033415      0.00085683
    -0.05576525     -0.14735837      0.23424946
     0.01033165      0.02251127      0.01337146
    -0.00027085     -0.00024159      0.00011300
     0.00002595     -0.00001284     -0.00008944
    -0.00031595      0.00001778      0.00014569
     0.00004363     -0.00026008      0.00046436
     0.72405992     -0.47906865      0.20810697
     0.09026800     -0.17976704     -0.26845289
     0.00014140     -0.00140273      0.00029562
    -0.01799917      0.00740032      0.02338985
     0.00025602      0.00017511     -0.00009373
    -0.00216294     -0.00035581      0.00124030
     0.00033275     -0.00158716      0.00118938
    -0.00125655     -0.00022618     -0.00132699
    -0.00006286      0.00000478     -0.00002309
     0.00027409      0.00005157     -0.00010904
     0.00043473     -0.00003679      0.00050615
     0.00001754     -0.00013306     -0.00012679
[INT]
    1.972246
    0.469058
    2.260993
    0.228374
    1.960003
    0.877982
    0.544395
    0.351006
    0.077723
    0.767185
    1.231414
    1.877629
    4.311551
    1.781612
    1.315420
    6.728198
    5.327748
    1.735239
    1.119593
   11.983966
    6.635196
    2.043022
    9.360061
   12.746535
    7.192719
    4.315488
    5.540071
    4.524738
    1.003959
    1.903025
    1.072477
   10.159532
    9.184601
   33.342693
    6.704214
   22.136782
    5.876806
   10.693182
   30.354505
    1.921559
    0.853777
    7.322633
    0.633113
   58.532863
   60.587264
   11.096473
   24.386944
   19.055306
  155.779057
    6.227819
    1.407569
   68.735483
   85.051095
   33.373133
   10.598625
   19.845627
   32.510414
    1.264488
  244.945256
   21.272491
  197.016619
    8.727578
   24.302715
    7.474203
   51.193181
   23.114311
    9.637840
   12.962058
   19.381051
    6.002877
    0.980514
    8.752082
    9.188978
    4.161528
   12.079603
    4.937824
    6.265627
    8.693186
   10.112208
  271.915731
  179.950713
   15.045208
   33.995736
    7.704269
   35.263498
   41.549279
   28.627659
   10.026024
    2.082625
   11.157481
    5.925132
   40.312662
   30.592226
   24.783103
   14.489720
    8.665021
    5.837180
   16.800267
   12.359014

======= END OF MOLDEN-FORMATTED INPUT FILE =======


        *************************************************************
        *                                                           *
        *  Thank you very much for using Q-Chem.  Have a nice day.  *
        *                                                           *
        *************************************************************


