r0213.ten.osc.edu 10.25.156
Q-Chem Developer Version! Running on 10.25.156.*
                  Welcome to Q-Chem
     A Quantum Leap Into The Future Of Chemistry


 Q-Chem 5.0, Q-Chem, Inc., Pleasanton, CA (2017)

 Yihan Shao,  Zhengting Gan,  E. Epifanovsky,  A. T. B. Gilbert,  M. Wormit,  
 J. Kussmann,  A. W. Lange,  A. Behn,  Jia Deng,  Xintian Feng,  D. Ghosh,  
 M. Goldey,  P. R. Horn,  L. D. Jacobson,  I. Kaliman,  T. Kus,  A. Landau,  
 Jie Liu,  E. I. Proynov,  R. M. Richard,  R. P. Steele,  E. J. Sundstrom,  
 H. L. Woodcock III,  P. M. Zimmerman,  D. Zuev,  B. Albrecht,  E. Alguire,  
 S. A. Baeppler,  Z. Benda,  Y. A. Bernard,  E. J. Berquist,  K. B. Bravaya,  
 D. Casanova,  Chun-Min Chang,  Yunqing Chen,  A. Chien,  K. D. Closser,  
 M. P. Coons,  S. Dasgupta,  M. Diedenhofen,  Hainam Do,  R. G. Edgar,  
 Po-Tung Fang,  S. Fatehi,  Qingguo Feng,  Qinghui Ge,  A. Ghysels,  
 J. Gomes,  J. Gonthier,  A. Gunina,  M. W. D. Hanson-Heine,  
 P. H. P. Harbach,  A. W. Hauser,  J. E. Herr,  E. G. Hohenstein,  
 Z. C. Holden,  Kerwin Hui,  T.-C. Jagau,  Hyunjun Ji,  B. Kaduk,  
 K. Khistyaev,  Jaehoon Kim,  P. Klunzinger,  K. Koh,  D. Kosenkov,  
 T. Kowalczyk,  C. M. Krauter,  A. Kunitsa,  Ka Un Lao,  A. Laurent,  
 K. V. Lawler,  Joonho Lee,  D. Lefrancois,  S. Lehtola,  D. S. Levine,  
 Yi-Pei Li,  You-Sheng Lin,  Fenglai Liu,  E. Livshits,  A. Luenser,  
 P. Manohar,  E. Mansoor,  S. F. Manzer,  Shan-Ping Mao,  Yuezhi Mao,  
 N. Mardirossian,  A. V. Marenich,  L. A. Martinez-Martinez,  S. A. Maurer,  
 N. J. Mayhall,  S. C. McKenzie,  J.-M. Mewes,  A. F. Morrison,  K. Nanda,  
 T. S. Nguyen-Beck,  R. Olivares-Amaya,  J. A. Parkhill,  T. M. Perrine,  
 F. Plasser,  S. Prager,  A. Prociuk,  D. R. Rehn,  F. Rob,  M. Schneider,  
 N. Sergueev,  S. M. Sharada,  S. Sharma,  D. W. Small,  T. Stauch,  
 T. Stein,  Yu-Chuan Su,  A. J. W. Thom,  T. Tsuchimochi,  L. Vogt,  
 O. Vydrov,  M. A. Watson,  J. Wenzel,  M. de Wergifosse,  T. A. Wesolowski,  
 A. White,  J. Witte,  A. Yamada,  Jun Yang,  K. Yao,  S. Yeganeh,  
 S. R. Yost,  Zhi-Qiang You,  A. Zech,  Igor Ying Zhang,  Xing Zhang,  
 Yan Zhao,  Ying Zhu,  B. R. Brooks,  G. K. L. Chan,  C. J. Cramer,  
 M. S. Gordon,  W. J. Hehre,  A. Klamt,  M. W. Schmidt,  C. D. Sherrill,  
 D. G. Truhlar,  A. Aspuru-Guzik,  R. Baer,  A. T. Bell,  N. A. Besley,  
 Jeng-Da Chai,  A. Dreuw,  B. D. Dunietz,  T. R. Furlani,  Chao-Ping Hsu,  
 Yousung Jung,  Jing Kong,  D. S. Lambrecht,  WanZhen Liang,  C. Ochsenfeld,  
 V. A. Rassolov,  L. V. Slipchenko,  J. E. Subotnik,  T. Van Voorhis,  
 J. M. Herbert,  A. I. Krylov,  P. M. W. Gill,  M. Head-Gordon

 Contributors to earlier versions of Q-Chem not listed above: 
 R. D. Adamson,  B. Austin,  J. Baker,  G. J. O. Beran,  K. Brandhorst,  
 S. T. Brown,  E. F. C. Byrd,  A. K. Chakraborty,  C.-L. Cheng,  
 Siu Hung Chien,  D. M. Chipman,  D. L. Crittenden,  H. Dachsel,  
 R. A. DiStasio Jr.,  R. J. Doerksen,  A. D. Dutoi,  L. Fusti-Molnar,  
 W. A. Goddard III,  A. Golubeva-Zadorozhnaya,  S. R. Gwaltney,  G. Hawkins,  
 A. Heyden,  S. Hirata,  G. Kedziora,  F. J. Keil,  C. Kelley,  Jihan Kim,  
 R. A. King,  R. Z. Khaliullin,  P. P. Korambath,  W. Kurlancheek,  
 A. M. Lee,  M. S. Lee,  S. V. Levchenko,  Ching Yeh Lin,  D. Liotard,  
 R. C. Lochan,  I. Lotan,  P. E. Maslen,  N. Nair,  D. P. O'Neill,  
 D. Neuhauser,  E. Neuscamman,  C. M. Oana,  R. Olson,  B. Peters,  
 R. Peverati,  P. A. Pieniazek,  Y. M. Rhee,  J. Ritchie,  M. A. Rohrdanz,  
 E. Rosta,  N. J. Russ,  H. F. Schaefer III,  N. E. Schultz,  N. Shenvi,  
 A. C. Simmonett,  A. Sodt,  D. Stuck,  K. S. Thanthiriwatte,  V. Vanovschi,  
 Tao Wang,  A. Warshel,  C. F. Williams,  Q. Wu,  X. Xu,  W. Zhang

 Please cite Q-Chem as follows:
 Y. Shao et al., Mol. Phys. 113, 184-215 (2015)
 DOI: 10.1080/00268976.2014.952696

 Q-Chem 5.0.1 for Intel X86 EM64T Linux

 Parts of Q-Chem use Armadillo 5.200.1 (Boston Tea Smuggler).
 http://arma.sourceforge.net/

 Q-Chem begins on Sat Oct 14 17:27:22 2017  

Host: r0213.ten.osc.edu
0

     Scratch files written to /tmp/pbstmp.1310471/02//
Processing $rem in /users/PAS0291/osu6415/.qchemrc.
molden_format             true

Checking the input file for inconsistencies... 	...done.

--------------------------------------------------------------
User input:
--------------------------------------------------------------
$molecule
0 1
C 0.20687017 0.94764158 0.60335512
C 0.36803923 -0.58942025 0.87405820
C -1.17677192 1.35828848 0.12796977
C -0.73472734 -1.49987478 0.37415282
O -2.09232920 0.91539642 1.02592973
O -1.47058707 2.01654936 -0.83519300
O -1.18044053 -1.14631426 -0.84504633
O -1.13088902 -2.46935965 0.97601087
C -2.21120581 -1.96724284 -1.41998004
C -3.47038840 1.17019730 0.70349117
C 1.44115178 1.24842022 -0.31478505
C 2.68196892 1.27718216 0.62113014
C 2.85153848 -0.22204941 0.97569995
C 1.72463444 -0.87478231 0.13158301
O 1.63235198 -0.00331452 -1.00306579
H 0.32431116 1.47595850 1.55418084
H 0.45626022 -0.80480180 1.93712411
H -3.07305112 -2.02240823 -0.75289587
H -3.72262934 0.71654730 -0.25659435
H 3.54255792 1.64865368 0.06229038
H 2.54176496 1.92220981 1.49124491
H 3.82303363 -0.60247268 0.65440681
H 2.74459557 -0.43745592 2.04083364
H -2.47642375 -1.48084202 -2.35590798
H -1.83685761 -2.97562738 -1.60376132
H -3.66298064 2.24293265 0.65414700
H -4.04527638 0.71325844 1.50596447
C 1.97510868 -2.30308710 -0.29892054
H 2.93981109 -2.37151077 -0.80591095
H 1.98646084 -2.96646389 0.56899339
H 1.20198798 -2.64975929 -0.98702830
C 1.37112513 2.39297796 -1.30194320
H 2.33199221 2.48187957 -1.81429008
H 0.58141697 2.23427051 -2.03143289
H 1.16584984 3.33275115 -0.78312920
$end

$rem
sym_ignore      true
jobtype         opt
method          b3lyp
basis           6-311++G(d,p)
dft_d           d3_op
mem_total       62000
MEM_STATIC      4000
ao2mo_disk      350000
max_scf_cycles  200
geom_opt_max_cycles 1000
geom_opt_tol_displacement 1
GEOM_OPT_TOL_GRADIENT       1
GEOM_OPT_TOL_ENERGY         1
$end

--------------------------------------------------------------
 Adding empirical dispersion correction 
 ----------------------------------------------------------------
 Doing -D3(op) with
 s6 =   1.00000
 s8 =   0.78311
 a1 =   0.30000
 a2 =   4.25000
 n  =  10.00000
 -D3 energy without 3body term =     -0.0425452857 hartrees
 ----------------------------------------------------------------
             Standard Nuclear Orientation (Angstroms)
    I     Atom           X                Y                Z
 ----------------------------------------------------------------
    1      C       0.2068701700     0.9476415800     0.6033551200
    2      C       0.3680392300    -0.5894202500     0.8740582000
    3      C      -1.1767719200     1.3582884800     0.1279697700
    4      C      -0.7347273400    -1.4998747800     0.3741528200
    5      O      -2.0923292000     0.9153964200     1.0259297300
    6      O      -1.4705870700     2.0165493600    -0.8351930000
    7      O      -1.1804405300    -1.1463142600    -0.8450463300
    8      O      -1.1308890200    -2.4693596500     0.9760108700
    9      C      -2.2112058100    -1.9672428400    -1.4199800400
   10      C      -3.4703884000     1.1701973000     0.7034911700
   11      C       1.4411517800     1.2484202200    -0.3147850500
   12      C       2.6819689200     1.2771821600     0.6211301400
   13      C       2.8515384800    -0.2220494100     0.9756999500
   14      C       1.7246344400    -0.8747823100     0.1315830100
   15      O       1.6323519800    -0.0033145200    -1.0030657900
   16      H       0.3243111600     1.4759585000     1.5541808400
   17      H       0.4562602200    -0.8048018000     1.9371241100
   18      H      -3.0730511200    -2.0224082300    -0.7528958700
   19      H      -3.7226293400     0.7165473000    -0.2565943500
   20      H       3.5425579200     1.6486536800     0.0622903800
   21      H       2.5417649600     1.9222098100     1.4912449100
   22      H       3.8230336300    -0.6024726800     0.6544068100
   23      H       2.7445955700    -0.4374559200     2.0408336400
   24      H      -2.4764237500    -1.4808420200    -2.3559079800
   25      H      -1.8368576100    -2.9756273800    -1.6037613200
   26      H      -3.6629806400     2.2429326500     0.6541470000
   27      H      -4.0452763800     0.7132584400     1.5059644700
   28      C       1.9751086800    -2.3030871000    -0.2989205400
   29      H       2.9398110900    -2.3715107700    -0.8059109500
   30      H       1.9864608400    -2.9664638900     0.5689933900
   31      H       1.2019879800    -2.6497592900    -0.9870283000
   32      C       1.3711251300     2.3929779600    -1.3019432000
   33      H       2.3319922100     2.4818795700    -1.8142900800
   34      H       0.5814169700     2.2342705100    -2.0314328900
   35      H       1.1658498400     3.3327511500    -0.7831292000
 ----------------------------------------------------------------
 Nuclear Repulsion Energy =  1411.1469495866 hartrees
 There are       65 alpha and       65 beta electrons
 Requested basis set is 6-311++G(d,p)
 There are 192 shells and 500 basis functions

 Total QAlloc Memory Limit  62000 MB
 Mega-Array Size      3911 MB
 MEM_STATIC part      4000 MB
 A cutoff of  1.0D-11 yielded  15184 shell pairs
 There are    104897 function pairs (    111832 Cartesian)
 
 -------------------------------------------------------
 OpenMP Integral Computing Module                       
 Release: version 1.0, May 2013, Q-Chem Inc. Pittsburgh 
 -------------------------------------------------------
 Integral Job Info:
 Integral job number is                      11
 Integral operator is                         1
 short-range coefficients                     0
 long-range coefficients              100000000
 Omega coefficients                           0
 if combine SR and LR in K                    0
 Integral screening is                        0
 Integral computing path is                   2
 max size of driver memory is            800000
 size of driver memory is                593474
 size of scratch memory is              2361544
 max col of scratch BK array               1296
 max len of scratch array in speh3          155
 max len of scratch index in speh4           18
 max int batch size is                      520
 min int batch size is                       52
 fixed nKL is                                52
 max L of basis functions is                  2
 order of int derivative is                   0
 number of shells is                        192
 number of basis is                         517
 number of cartesian basis is               517
 number of contracted shell pairs         15184
 number of primitive shell pairs          33312
 maxK2 (contraction) of shell pair           36
 max number of K2 of shell pair               1
 max number of CS2 of shell pair           2872
 max number of PS2 of shell pair           4872
 mem total for path MDJ                  184280
 -------------------------------------------------------
 Smallest overlap matrix eigenvalue = 5.03E-07

 Q-Chem warning in module /fs/scratch/osu6415/qchem-kaunlao-vdw/stvman/mkSTV.C, line 281:

 Overlap eigenvalue is smaller than square root of threshold

 Linear dependence detected in AO basis
 Number of orthogonalized atomic orbitals = 499
 Maximum deviation from orthogonality = 1.303E-10

 Scale SEOQF with 1.000000e-01/1.000000e-01/1.000000e-01

 Standard Electronic Orientation quadrupole field applied
 Nucleus-field energy     =     0.0000000289 hartrees
 Guess from superposition of atomic densities
 Warning:  Energy on first SCF cycle will be non-variational
 A restricted hybrid HF-DFT SCF calculation will be
 performed using Pulay DIIS extrapolation
 Exchange:     0.2000 Hartree-Fock + 0.0800 Slater + 0.7200 B88
 Correlation:  0.1900 VWN1RPA + 0.8100 LYP
 Using SG-1 standard quadrature grid
 Dispersion:   Grimme D3
 SCF converges when DIIS error is below 1.0E-08
 using 20 threads for integral computing
 -------------------------------------------------------
 OpenMP Integral computing Module                
 Release: version 1.0, May 2013, Q-Chem Inc. Pittsburgh 
 -------------------------------------------------------
 -------------------------------------------------------
 OpenMP BLAS3 based DFT computing Module                
 Release: version 1.0, May 2013, Q-Chem Inc. Pittsburgh 
 -------------------------------------------------------
 ---------------------------------------
  Cycle       Energy         DIIS Error
 ---------------------------------------
    1    -847.9560092334      2.82E-02
    2    -844.1661651820      3.72E-03
    3    -843.6753879814      5.99E-03
    4    -844.4752162788      1.47E-03
    5    -844.5267464280      3.30E-04
    6    -844.5286580985      1.56E-04
    7    -844.5292013950      2.95E-05
    8    -844.5292181367      1.21E-05
    9    -844.5292214173      3.18E-06
   10    -844.5292215967      1.56E-06
   11    -844.5292216506      4.25E-07
   12    -844.5292216543      1.33E-07
   13    -844.5292216545      3.76E-08
   14    -844.5292216551      1.16E-08
   15    -844.5292216587      3.23E-09 Convergence criterion met
 ---------------------------------------
 SCF time:  CPU 1200.74 s  wall 63.47 s
 SCF   energy in the final basis set = -844.52922166
 Total energy in the final basis set = -844.52922166
 
 --------------------------------------------------------------
 
                    Orbital Energies (a.u.)
 --------------------------------------------------------------
 
 Alpha MOs
 -- Occupied --
-19.173 -19.173 -19.126 -19.118 -19.115 -10.309 -10.305 -10.243
-10.238 -10.231 -10.230 -10.206 -10.203 -10.178 -10.176 -10.169
-10.156  -1.119  -1.112  -1.060  -1.030  -1.027  -0.832  -0.804
 -0.785  -0.747  -0.728  -0.722  -0.675  -0.644  -0.603  -0.581
 -0.569  -0.558  -0.522  -0.513  -0.508  -0.492  -0.486  -0.477
 -0.475  -0.471  -0.459  -0.442  -0.434  -0.429  -0.416  -0.410
 -0.406  -0.399  -0.396  -0.373  -0.372  -0.367  -0.360  -0.355
 -0.352  -0.347  -0.332  -0.330  -0.318  -0.314  -0.287  -0.277
 -0.272
 -- Virtual --
 -0.019  -0.011  -0.006   0.001   0.007   0.009   0.013   0.018
  0.027   0.030   0.033   0.040   0.040   0.045   0.049   0.053
  0.060   0.063   0.066   0.067   0.080   0.082   0.088   0.089
  0.092   0.098   0.100   0.103   0.108   0.112   0.113   0.117
  0.118   0.120   0.124   0.130   0.133   0.134   0.137   0.140
  0.142   0.144   0.145   0.149   0.151   0.153   0.156   0.161
  0.162   0.164   0.165   0.168   0.174   0.175   0.177   0.182
  0.186   0.191   0.191   0.197   0.200   0.202   0.205   0.207
  0.209   0.212   0.213   0.218   0.224   0.229   0.229   0.231
  0.234   0.247   0.247   0.257   0.263   0.268   0.271   0.278
  0.281   0.285   0.288   0.292   0.297   0.302   0.304   0.309
  0.319   0.322   0.330   0.331   0.339   0.345   0.345   0.346
  0.350   0.358   0.360   0.361   0.365   0.369   0.373   0.376
  0.378   0.385   0.387   0.389   0.396   0.406   0.413   0.416
  0.427   0.429   0.434   0.446   0.455   0.463   0.471   0.479
  0.495   0.496   0.505   0.510   0.517   0.530   0.536   0.541
  0.552   0.564   0.568   0.578   0.584   0.593   0.603   0.605
  0.611   0.612   0.625   0.635   0.640   0.643   0.651   0.656
  0.660   0.667   0.671   0.676   0.681   0.690   0.696   0.699
  0.704   0.711   0.718   0.721   0.729   0.733   0.737   0.741
  0.745   0.760   0.764   0.770   0.786   0.797   0.803   0.808
  0.819   0.830   0.837   0.843   0.851   0.858   0.869   0.916
  0.927   0.952   0.965   0.998   1.011   1.026   1.033   1.057
  1.061   1.078   1.079   1.104   1.107   1.133   1.147   1.172
  1.176   1.197   1.198   1.205   1.224   1.233   1.247   1.250
  1.258   1.277   1.283   1.293   1.294   1.308   1.326   1.333
  1.343   1.366   1.375   1.377   1.389   1.408   1.429   1.440
  1.444   1.459   1.465   1.477   1.480   1.499   1.511   1.514
  1.529   1.544   1.545   1.552   1.567   1.569   1.573   1.576
  1.583   1.597   1.605   1.611   1.612   1.620   1.634   1.647
  1.649   1.663   1.672   1.687   1.695   1.698   1.703   1.713
  1.717   1.726   1.732   1.738   1.752   1.756   1.763   1.789
  1.794   1.803   1.807   1.812   1.838   1.843   1.850   1.868
  1.880   1.882   1.897   1.915   1.918   1.945   1.970   1.987
  1.992   2.013   2.020   2.025   2.032   2.041   2.065   2.081
  2.087   2.104   2.114   2.128   2.143   2.152   2.158   2.181
  2.190   2.199   2.212   2.232   2.234   2.267   2.282   2.304
  2.311   2.380   2.383   2.404   2.413   2.445   2.460   2.469
  2.486   2.488   2.500   2.502   2.517   2.524   2.528   2.538
  2.541   2.560   2.575   2.584   2.592   2.594   2.600   2.610
  2.612   2.637   2.649   2.671   2.684   2.691   2.710   2.718
  2.730   2.754   2.777   2.792   2.811   2.821   2.852   2.857
  2.869   2.872   2.881   2.894   2.909   2.921   2.947   2.971
  2.991   2.999   3.022   3.030   3.036   3.040   3.061   3.064
  3.079   3.089   3.118   3.126   3.135   3.154   3.170   3.201
  3.217   3.234   3.246   3.263   3.271   3.313   3.333   3.359
  3.371   3.377   3.398   3.411   3.540   3.601   3.608   3.668
  3.688   3.712   3.739   3.782   3.786   3.821   3.823   3.835
  3.838   3.858   3.866   3.960   3.974   4.059   4.080   4.089
  4.119   4.136   4.155   4.170   4.181   4.250   4.280   4.321
  4.441   4.514   5.049   5.118   5.176   5.190   5.238   5.263
  5.284   5.422   5.442   5.517   5.633   5.644   5.689   5.886
  5.903  23.767  23.839  23.853  23.898  23.905  23.934  23.943
 23.954  23.961  23.989  23.999  24.043  49.914  49.947  49.995
 50.046  50.051
 --------------------------------------------------------------
 
          Ground-State Mulliken Net Atomic Charges

     Atom                 Charge (a.u.)
  ----------------------------------------
      1 C                     0.434996
      2 C                     0.733507
      3 C                    -0.764103
      4 C                    -1.141451
      5 O                     0.011131
      6 O                    -0.167641
      7 O                    -0.011182
      8 O                    -0.130966
      9 C                    -0.201744
     10 C                    -0.174219
     11 C                    -0.556308
     12 C                    -0.489357
     13 C                    -0.333287
     14 C                    -0.433753
     15 O                     0.037357
     16 H                     0.267622
     17 H                     0.285175
     18 H                     0.187549
     19 H                     0.174035
     20 H                     0.174881
     21 H                     0.138310
     22 H                     0.175129
     23 H                     0.139915
     24 H                     0.175030
     25 H                     0.174467
     26 H                     0.172834
     27 H                     0.164460
     28 C                    -0.037800
     29 H                     0.171282
     30 H                     0.172500
     31 H                     0.186173
     32 C                    -0.038165
     33 H                     0.140173
     34 H                     0.199619
     35 H                     0.163832
  ----------------------------------------
  Sum of atomic charges =     0.000000

 -----------------------------------------------------------------
                    Cartesian Multipole Moments
 -----------------------------------------------------------------
    Charge (ESU x 10^10)
                 0.0000
    Dipole Moment (Debye)
         X       0.0697      Y       0.5318      Z       1.0422
       Tot       1.1721
    Quadrupole Moments (Debye-Ang)
        XX     -89.8684     XY      -0.0797     YY    -106.3269
        XZ       4.5484     YZ       9.7089     ZZ    -104.5074
    Octopole Moments (Debye-Ang^2)
       XXX     -58.8829    XXY      -1.5190    XYY       7.0833
       YYY       5.8648    XXZ       0.6853    XYZ     -19.0350
       YYZ     -12.2934    XZZ      -9.7864    YZZ      -2.4187
       ZZZ      -4.0476
    Hexadecapole Moments (Debye-Ang^3)
      XXXX   -2234.2627   XXXY     -45.5325   XXYY    -664.5487
      XYYY     -35.3305   YYYY   -1700.3131   XXXZ     -38.9108
      XXYZ      35.6924   XYYZ       5.3037   YYYZ      83.8528
      XXZZ    -504.8253   XYZZ       2.9796   YYZZ    -383.8696
      XZZZ       9.2703   YZZZ      24.1277   ZZZZ    -612.1479
 -----------------------------------------------------------------
 Calculating analytic gradient of the SCF energy
 Gradient of SCF Energy
            1           2           3           4           5           6
    1   0.0000619  -0.0000977  -0.0000046  -0.0000497   0.0000156   0.0000011
    2  -0.0000005   0.0000531  -0.0002404   0.0001209  -0.0000010   0.0001702
    3  -0.0001495   0.0001696  -0.0000320   0.0000062   0.0000094   0.0000612
            7           8           9          10          11          12
    1   0.0000276   0.0000537  -0.0000203  -0.0000140   0.0000401  -0.0000286
    2   0.0000038  -0.0001019  -0.0000187   0.0000094  -0.0000533  -0.0000200
    3  -0.0000104  -0.0000410   0.0000012  -0.0000257  -0.0000781   0.0000579
           13          14          15          16          17          18
    1   0.0000027   0.0000334  -0.0000239  -0.0000024   0.0000012   0.0000022
    2   0.0000204  -0.0000478   0.0000511  -0.0000032  -0.0000194   0.0000138
    3  -0.0000025  -0.0000398   0.0000317   0.0000133  -0.0000031  -0.0000212
           19          20          21          22          23          24
    1   0.0000014  -0.0000005   0.0000146   0.0000042  -0.0000084  -0.0000028
    2  -0.0000076  -0.0000208   0.0000160   0.0000062  -0.0000296   0.0000182
    3   0.0000106  -0.0000018   0.0000020   0.0000009  -0.0000008  -0.0000176
           25          26          27          28          29          30
    1   0.0000060  -0.0000001  -0.0000065  -0.0000028   0.0000071  -0.0000091
    2   0.0000191  -0.0000095  -0.0000140   0.0000338  -0.0000015  -0.0000076
    3  -0.0000329   0.0000245   0.0000047  -0.0000050  -0.0000054  -0.0000193
           31          32          33          34          35
    1   0.0000045   0.0000191  -0.0000009  -0.0000150  -0.0000093
    2   0.0000014  -0.0000194   0.0000300   0.0000338   0.0000151
    3  -0.0000264   0.0000452   0.0000249   0.0000203   0.0000288
 Max gradient component =       2.404E-04
 RMS gradient           =       4.728E-05
 Gradient time:  CPU 401.50 s  wall 28.02 s
 Geometry Optimization Parameters
   NAtoms,    NIC,     NZ,  NCons,   NDum,   NFix, NCnnct, MaxDiis
       35     275       0       0       0       0       0       0


** GEOMETRY OPTIMIZATION IN DELOCALIZED INTERNAL COORDINATES **
   Searching for a Minimum

   Optimization Cycle:   1

                       Coordinates (Angstroms)
     ATOM                X               Y               Z
      1  C         0.2068701700    0.9476415800    0.6033551200
      2  C         0.3680392300   -0.5894202500    0.8740582000
      3  C        -1.1767719200    1.3582884800    0.1279697700
      4  C        -0.7347273400   -1.4998747800    0.3741528200
      5  O        -2.0923292000    0.9153964200    1.0259297300
      6  O        -1.4705870700    2.0165493600   -0.8351930000
      7  O        -1.1804405300   -1.1463142600   -0.8450463300
      8  O        -1.1308890200   -2.4693596500    0.9760108700
      9  C        -2.2112058100   -1.9672428400   -1.4199800400
     10  C        -3.4703884000    1.1701973000    0.7034911700
     11  C         1.4411517800    1.2484202200   -0.3147850500
     12  C         2.6819689200    1.2771821600    0.6211301400
     13  C         2.8515384800   -0.2220494100    0.9756999500
     14  C         1.7246344400   -0.8747823100    0.1315830100
     15  O         1.6323519800   -0.0033145200   -1.0030657900
     16  H         0.3243111600    1.4759585000    1.5541808400
     17  H         0.4562602200   -0.8048018000    1.9371241100
     18  H        -3.0730511200   -2.0224082300   -0.7528958700
     19  H        -3.7226293400    0.7165473000   -0.2565943500
     20  H         3.5425579200    1.6486536800    0.0622903800
     21  H         2.5417649600    1.9222098100    1.4912449100
     22  H         3.8230336300   -0.6024726800    0.6544068100
     23  H         2.7445955700   -0.4374559200    2.0408336400
     24  H        -2.4764237500   -1.4808420200   -2.3559079800
     25  H        -1.8368576100   -2.9756273800   -1.6037613200
     26  H        -3.6629806400    2.2429326500    0.6541470000
     27  H        -4.0452763800    0.7132584400    1.5059644700
     28  C         1.9751086800   -2.3030871000   -0.2989205400
     29  H         2.9398110900   -2.3715107700   -0.8059109500
     30  H         1.9864608400   -2.9664638900    0.5689933900
     31  H         1.2019879800   -2.6497592900   -0.9870283000
     32  C         1.3711251300    2.3929779600   -1.3019432000
     33  H         2.3319922100    2.4818795700   -1.8142900800
     34  H         0.5814169700    2.2342705100   -2.0314328900
     35  H         1.1658498400    3.3327511500   -0.7831292000
   Point Group: c1    Number of degrees of freedom:    99


   Energy is   -844.529221659


 Attempting to Generate Delocalized Internal Coordinates

 99 Hessian modes will be used to form the next step
  Hessian Eigenvalues:
     0.002875    0.006590    0.006942    0.007208    0.007449    0.007505
     0.010026    0.010614    0.010660    0.011201    0.021368    0.022867
     0.022971    0.025179    0.035370    0.035882    0.037778    0.038874
     0.043850    0.044797    0.049919    0.050946    0.054878    0.055487
     0.056638    0.058130    0.058254    0.059404    0.060006    0.063128
     0.065565    0.066019    0.079971    0.085251    0.094386    0.101293
     0.101302    0.102569    0.105977    0.106116    0.110987    0.121747
     0.125766    0.152281    0.160000    0.160000    0.160000    0.160000
     0.160000    0.160000    0.160000    0.160000    0.160000    0.160000
     0.160000    0.160000    0.177489    0.230777    0.236715    0.249732
     0.249790    0.250000    0.250000    0.250000    0.250000    0.251735
     0.253332    0.260241    0.274013    0.304082    0.308630    0.310434
     0.310851    0.334315    0.343469    0.344771    0.345195    0.345297
     0.345640    0.345874    0.345887    0.346198    0.346390    0.346496
     0.346644    0.346688    0.346725    0.346970    0.346973    0.350160
     0.350711    0.350907    0.351933    0.398565    0.399041    0.536129
     0.560109    1.009407    1.033078

 Minimum Search - Taking Simple RFO Step
 Searching for Lamda that Minimizes Along All modes
 Value Taken    Lamda =  -0.00000475
 Step Taken.  Stepsize is  0.024075

                             Maximum     Tolerance    Cnvgd?
         Gradient           0.000106      0.000001      NO
         Displacement       0.014132      0.000001      NO
         Energy change     *********      0.000000      NO


 New Cartesian Coordinates Obtained by Inverse Iteration

 Displacement from previous Coordinates is:  0.032778
 Adding empirical dispersion correction 
 ----------------------------------------------------------------
 Doing -D3(op) with
 s6 =   1.00000
 s8 =   0.78311
 a1 =   0.30000
 a2 =   4.25000
 n  =  10.00000
 -D3 energy without 3body term =     -0.0425509949 hartrees
 ----------------------------------------------------------------
             Standard Nuclear Orientation (Angstroms)
    I     Atom           X                Y                Z
 ----------------------------------------------------------------
    1      C       0.2069555662     0.9477610348     0.6042357872
    2      C       0.3684019735    -0.5895469537     0.8739487618
    3      C      -1.1766836472     1.3582124170     0.1285764540
    4      C      -0.7346745683    -1.4996428885     0.3739924740
    5      O      -2.0920999759     0.9186662197     1.0283293176
    6      O      -1.4711787992     2.0079724767    -0.8401022981
    7      O      -1.1788360005    -1.1471184850    -0.8460760379
    8      O      -1.1351001416    -2.4657804288     0.9783565668
    9      C      -2.2111022968    -1.9666043145    -1.4203043356
   10      C      -3.4703208334     1.1699498367     0.7039280391
   11      C       1.4411261150     1.2487499645    -0.3140122206
   12      C       2.6819764005     1.2772052936     0.6218834663
   13      C       2.8520869239    -0.2222926787     0.9752538609
   14      C       1.7248667158    -0.8746654681     0.1313047075
   15      O       1.6323514514    -0.0027341833    -1.0028919491
   16      H       0.3244837032     1.4760236955     1.5550700264
   17      H       0.4565572903    -0.8052211111     1.9369548606
   18      H      -3.0736255504    -2.0184514395    -0.7538213832
   19      H      -3.7214726699     0.7110981005    -0.2539765265
   20      H       3.5424522564     1.6498173389     0.0636325285
   21      H       2.5412234496     1.9211137899     1.4927332700
   22      H       3.8234604926    -0.6023766508     0.6531918957
   23      H       2.7457768740    -0.4383385687     2.0403150946
   24      H      -2.4743419891    -1.4813577401    -2.3573786453
   25      H      -1.8390770979    -2.9762711436    -1.6017887210
   26      H      -3.6643141285     2.2421639200     0.6489181228
   27      H      -4.0449979088     0.7163736870     1.5084453103
   28      C       1.9752063310    -2.3027723228    -0.3000359575
   29      H       2.9394074064    -2.3707337501    -0.8080370088
   30      H       1.9875581885    -2.9665252962     0.5675713670
   31      H       1.2014651496    -2.6492410053    -0.9875370009
   32      C       1.3711572739     2.3933189245    -1.3011974875
   33      H       2.3320583355     2.4819648250    -1.8135339275
   34      H       0.5815550661     2.2344476291    -2.0307522371
   35      H       1.1659717139     3.3331632654    -0.7825147347
 ----------------------------------------------------------------
 Nuclear Repulsion Energy =  1411.1884761246 hartrees
 There are       65 alpha and       65 beta electrons
 Applying Cartesian multipole field
    Component          Value
    ---------          -----
     (2,0,0)        1.00000E-11
     (0,2,0)        2.00000E-11
     (0,0,2)       -3.00000E-11
 Nucleus-field energy     =     0.0000000289 hartrees
 Requested basis set is 6-311++G(d,p)
 There are 192 shells and 500 basis functions
 A cutoff of  1.0D-11 yielded  15185 shell pairs
 There are    104912 function pairs (    111850 Cartesian)
 Smallest overlap matrix eigenvalue = 5.04E-07

 Q-Chem warning in module /fs/scratch/osu6415/qchem-kaunlao-vdw/stvman/mkSTV.C, line 281:

 Overlap eigenvalue is smaller than square root of threshold

 Linear dependence detected in AO basis
 Number of orthogonalized atomic orbitals = 499
 Maximum deviation from orthogonality = 1.472E-10
 Guess MOs from SCF MO coefficient file
 Reading MOs from coefficient file
 Reading MOs from coefficient file
 A restricted hybrid HF-DFT SCF calculation will be
 performed using Pulay DIIS extrapolation
 Exchange:     0.2000 Hartree-Fock + 0.0800 Slater + 0.7200 B88
 Correlation:  0.1900 VWN1RPA + 0.8100 LYP
 Using SG-1 standard quadrature grid
 Dispersion:   Grimme D3
 SCF converges when DIIS error is below 1.0E-08
 Geometry optimization detected.  Setting ReadMinima to 0
 Setting SaveMinima to 0
 using 20 threads for integral computing
 -------------------------------------------------------
 OpenMP Integral computing Module                
 Release: version 1.0, May 2013, Q-Chem Inc. Pittsburgh 
 -------------------------------------------------------
 -------------------------------------------------------
 OpenMP BLAS3 based DFT computing Module                
 Release: version 1.0, May 2013, Q-Chem Inc. Pittsburgh 
 -------------------------------------------------------
 ---------------------------------------
  Cycle       Energy         DIIS Error
 ---------------------------------------
    1    -844.5287731496      8.15E-05
    2    -844.5292210609      4.85E-06
    3    -844.5292220806      3.98E-06
    4    -844.5292223436      2.38E-06
    5    -844.5292224568      8.61E-07
    6    -844.5292224723      3.38E-07
    7    -844.5292224737      9.48E-08
    8    -844.5292224746      2.14E-08
    9    -844.5292224777      9.38E-09 Convergence criterion met
 ---------------------------------------
 SCF time:  CPU 713.12 s  wall 37.44 s
 SCF   energy in the final basis set = -844.52922248
 Total energy in the final basis set = -844.52922248
 
 --------------------------------------------------------------
 
                    Orbital Energies (a.u.)
 --------------------------------------------------------------
 
 Alpha MOs
 -- Occupied --
-19.173 -19.173 -19.126 -19.118 -19.115 -10.309 -10.305 -10.243
-10.238 -10.231 -10.230 -10.206 -10.203 -10.178 -10.176 -10.169
-10.156  -1.119  -1.112  -1.060  -1.030  -1.027  -0.832  -0.804
 -0.785  -0.747  -0.728  -0.722  -0.675  -0.644  -0.603  -0.581
 -0.569  -0.558  -0.522  -0.513  -0.508  -0.492  -0.486  -0.478
 -0.475  -0.471  -0.459  -0.442  -0.434  -0.429  -0.416  -0.410
 -0.406  -0.399  -0.396  -0.373  -0.372  -0.367  -0.360  -0.355
 -0.352  -0.347  -0.332  -0.330  -0.318  -0.314  -0.287  -0.277
 -0.272
 -- Virtual --
 -0.019  -0.011  -0.006   0.000   0.007   0.009   0.013   0.018
  0.027   0.030   0.033   0.040   0.040   0.045   0.049   0.053
  0.060   0.063   0.066   0.067   0.080   0.082   0.088   0.089
  0.092   0.098   0.100   0.103   0.108   0.112   0.113   0.117
  0.118   0.120   0.124   0.130   0.133   0.134   0.137   0.140
  0.142   0.144   0.145   0.149   0.151   0.153   0.156   0.161
  0.162   0.164   0.165   0.168   0.174   0.175   0.177   0.182
  0.186   0.191   0.191   0.197   0.200   0.202   0.205   0.207
  0.209   0.212   0.213   0.218   0.224   0.229   0.229   0.231
  0.234   0.247   0.247   0.257   0.263   0.268   0.271   0.278
  0.281   0.285   0.288   0.292   0.297   0.302   0.304   0.309
  0.319   0.322   0.330   0.331   0.339   0.345   0.345   0.346
  0.350   0.359   0.360   0.361   0.365   0.369   0.373   0.376
  0.378   0.385   0.387   0.390   0.396   0.406   0.413   0.416
  0.427   0.429   0.434   0.446   0.454   0.463   0.471   0.479
  0.495   0.496   0.505   0.510   0.517   0.530   0.536   0.541
  0.552   0.565   0.568   0.578   0.584   0.593   0.603   0.605
  0.611   0.612   0.625   0.635   0.640   0.643   0.651   0.656
  0.660   0.667   0.671   0.676   0.681   0.690   0.696   0.699
  0.704   0.711   0.718   0.721   0.729   0.733   0.737   0.742
  0.745   0.760   0.764   0.770   0.786   0.797   0.803   0.808
  0.819   0.829   0.837   0.843   0.851   0.858   0.869   0.916
  0.927   0.952   0.965   0.998   1.011   1.026   1.033   1.056
  1.061   1.078   1.079   1.105   1.107   1.132   1.147   1.172
  1.177   1.196   1.199   1.205   1.224   1.233   1.247   1.249
  1.258   1.276   1.283   1.293   1.295   1.309   1.326   1.334
  1.343   1.366   1.374   1.377   1.389   1.408   1.429   1.441
  1.444   1.459   1.465   1.477   1.480   1.499   1.512   1.514
  1.528   1.544   1.545   1.552   1.568   1.569   1.573   1.576
  1.583   1.597   1.605   1.610   1.612   1.619   1.634   1.647
  1.649   1.663   1.672   1.687   1.694   1.698   1.702   1.713
  1.717   1.726   1.732   1.738   1.752   1.755   1.763   1.789
  1.794   1.803   1.807   1.813   1.838   1.843   1.850   1.867
  1.880   1.882   1.898   1.914   1.919   1.945   1.971   1.987
  1.992   2.013   2.020   2.025   2.032   2.041   2.065   2.081
  2.088   2.105   2.114   2.127   2.143   2.152   2.159   2.181
  2.190   2.199   2.212   2.232   2.234   2.267   2.282   2.304
  2.311   2.380   2.383   2.403   2.413   2.445   2.460   2.469
  2.486   2.488   2.501   2.502   2.517   2.524   2.528   2.539
  2.540   2.560   2.575   2.584   2.592   2.593   2.600   2.610
  2.612   2.638   2.649   2.671   2.684   2.691   2.710   2.718
  2.729   2.754   2.777   2.792   2.812   2.821   2.852   2.857
  2.869   2.872   2.881   2.894   2.909   2.921   2.947   2.971
  2.991   2.998   3.022   3.029   3.036   3.040   3.061   3.064
  3.079   3.089   3.118   3.126   3.134   3.154   3.170   3.201
  3.217   3.234   3.246   3.263   3.271   3.313   3.333   3.359
  3.372   3.377   3.397   3.411   3.540   3.601   3.608   3.668
  3.688   3.713   3.738   3.782   3.786   3.821   3.823   3.835
  3.838   3.858   3.866   3.960   3.974   4.059   4.080   4.089
  4.119   4.136   4.154   4.170   4.180   4.250   4.280   4.321
  4.441   4.513   5.050   5.119   5.176   5.190   5.237   5.263
  5.284   5.422   5.443   5.517   5.633   5.645   5.689   5.886
  5.903  23.767  23.839  23.853  23.898  23.905  23.934  23.943
 23.954  23.961  23.989  23.999  24.043  49.915  49.947  49.995
 50.045  50.052
 --------------------------------------------------------------
 
          Ground-State Mulliken Net Atomic Charges

     Atom                 Charge (a.u.)
  ----------------------------------------
      1 C                     0.433168
      2 C                     0.731507
      3 C                    -0.760569
      4 C                    -1.142496
      5 O                     0.011859
      6 O                    -0.167183
      7 O                    -0.011458
      8 O                    -0.130642
      9 C                    -0.202076
     10 C                    -0.173613
     11 C                    -0.559194
     12 C                    -0.489728
     13 C                    -0.333522
     14 C                    -0.432857
     15 O                     0.037605
     16 H                     0.267675
     17 H                     0.285314
     18 H                     0.187405
     19 H                     0.173822
     20 H                     0.174913
     21 H                     0.138164
     22 H                     0.175056
     23 H                     0.139922
     24 H                     0.175165
     25 H                     0.174494
     26 H                     0.172794
     27 H                     0.164568
     28 C                    -0.036987
     29 H                     0.171521
     30 H                     0.172195
     31 H                     0.185914
     32 C                    -0.036272
     33 H                     0.140246
     34 H                     0.199668
     35 H                     0.163623
  ----------------------------------------
  Sum of atomic charges =     0.000000

 -----------------------------------------------------------------
                    Cartesian Multipole Moments
 -----------------------------------------------------------------
    Charge (ESU x 10^10)
                 0.0000
    Dipole Moment (Debye)
         X       0.0757      Y       0.5362      Z       1.0423
       Tot       1.1746
    Quadrupole Moments (Debye-Ang)
        XX     -89.8859     XY      -0.1125     YY    -106.2414
        XZ       4.5514     YZ       9.7076     ZZ    -104.5473
    Octopole Moments (Debye-Ang^2)
       XXX     -58.8316    XXY      -1.4560    XYY       7.0208
       YYY       5.9439    XXZ       0.6654    XYZ     -19.0521
       YYZ     -12.3328    XZZ      -9.7071    YZZ      -2.4421
       ZZZ      -4.0798
    Hexadecapole Moments (Debye-Ang^3)
      XXXX   -2234.7054   XXXY     -45.8911   XXYY    -664.3478
      XYYY     -35.8654   YYYY   -1697.6561   XXXZ     -38.9098
      XXYZ      35.7093   XYYZ       5.4698   YYYZ      83.4134
      XXZZ    -505.0855   XYZZ       2.9310   YYZZ    -383.8262
      XZZZ       9.3307   YZZZ      23.9965   ZZZZ    -612.8207
 -----------------------------------------------------------------
 Calculating analytic gradient of the SCF energy
 Gradient of SCF Energy
            1           2           3           4           5           6
    1   0.0000392  -0.0001452   0.0000450   0.0003200  -0.0000689  -0.0000017
    2  -0.0002548   0.0001652   0.0005061  -0.0001992  -0.0001735  -0.0001532
    3  -0.0001707   0.0001362   0.0004819  -0.0001929  -0.0000914  -0.0001412
            7           8           9          10          11          12
    1  -0.0000785  -0.0000803  -0.0000140   0.0000044   0.0000098  -0.0000189
    2   0.0000882   0.0000549  -0.0000022   0.0000002  -0.0000252  -0.0000113
    3  -0.0000182   0.0000428  -0.0000107   0.0000023  -0.0000030   0.0000345
           13          14          15          16          17          18
    1   0.0000168   0.0000159  -0.0000186  -0.0000438   0.0000026   0.0000011
    2   0.0000125  -0.0001229   0.0000027   0.0000813  -0.0000088   0.0000146
    3  -0.0000080  -0.0000257   0.0000287  -0.0000224  -0.0000058  -0.0000182
           19          20          21          22          23          24
    1  -0.0000058  -0.0000023   0.0000020   0.0000016  -0.0000083   0.0000006
    2  -0.0000093  -0.0000004  -0.0000034  -0.0000004  -0.0000186   0.0000131
    3   0.0000018   0.0000029   0.0000093   0.0000048  -0.0000089  -0.0000188
           25          26          27          28          29          30
    1   0.0000058   0.0000064  -0.0000052   0.0000246   0.0000073  -0.0000191
    2   0.0000174  -0.0000073  -0.0000152   0.0000206   0.0000028  -0.0000001
    3  -0.0000241   0.0000133   0.0000029  -0.0000250  -0.0000111  -0.0000270
           31          32          33          34          35
    1   0.0000062   0.0000168   0.0000016  -0.0000065  -0.0000105
    2   0.0000035  -0.0000097   0.0000076   0.0000328  -0.0000079
    3  -0.0000167   0.0000403   0.0000139   0.0000091   0.0000151
 Max gradient component =       5.061E-04
 RMS gradient           =       9.683E-05
 Gradient time:  CPU 400.90 s  wall 27.68 s
 Geometry Optimization Parameters
   NAtoms,    NIC,     NZ,  NCons,   NDum,   NFix, NCnnct, MaxDiis
       35     275       0       0       0       0       0       0

 Cartesian Hessian Update
 Hessian Updated using BFGS Update


** GEOMETRY OPTIMIZATION IN DELOCALIZED INTERNAL COORDINATES **
   Searching for a Minimum

   Optimization Cycle:   2

                       Coordinates (Angstroms)
     ATOM                X               Y               Z
      1  C         0.2069555662    0.9477610348    0.6042357872
      2  C         0.3684019735   -0.5895469537    0.8739487618
      3  C        -1.1766836472    1.3582124170    0.1285764540
      4  C        -0.7346745683   -1.4996428885    0.3739924740
      5  O        -2.0920999759    0.9186662197    1.0283293176
      6  O        -1.4711787992    2.0079724767   -0.8401022981
      7  O        -1.1788360005   -1.1471184850   -0.8460760379
      8  O        -1.1351001416   -2.4657804288    0.9783565668
      9  C        -2.2111022968   -1.9666043145   -1.4203043356
     10  C        -3.4703208334    1.1699498367    0.7039280391
     11  C         1.4411261150    1.2487499645   -0.3140122206
     12  C         2.6819764005    1.2772052936    0.6218834663
     13  C         2.8520869239   -0.2222926787    0.9752538609
     14  C         1.7248667158   -0.8746654681    0.1313047075
     15  O         1.6323514514   -0.0027341833   -1.0028919491
     16  H         0.3244837032    1.4760236955    1.5550700264
     17  H         0.4565572903   -0.8052211111    1.9369548606
     18  H        -3.0736255504   -2.0184514395   -0.7538213832
     19  H        -3.7214726699    0.7110981005   -0.2539765265
     20  H         3.5424522564    1.6498173389    0.0636325285
     21  H         2.5412234496    1.9211137899    1.4927332700
     22  H         3.8234604926   -0.6023766508    0.6531918957
     23  H         2.7457768740   -0.4383385687    2.0403150946
     24  H        -2.4743419891   -1.4813577401   -2.3573786453
     25  H        -1.8390770979   -2.9762711436   -1.6017887210
     26  H        -3.6643141285    2.2421639200    0.6489181228
     27  H        -4.0449979088    0.7163736870    1.5084453103
     28  C         1.9752063310   -2.3027723228   -0.3000359575
     29  H         2.9394074064   -2.3707337501   -0.8080370088
     30  H         1.9875581885   -2.9665252962    0.5675713670
     31  H         1.2014651496   -2.6492410053   -0.9875370009
     32  C         1.3711572739    2.3933189245   -1.3011974875
     33  H         2.3320583355    2.4819648250   -1.8135339275
     34  H         0.5815550661    2.2344476291   -2.0307522371
     35  H         1.1659717139    3.3331632654   -0.7825147347
   Point Group: c1    Number of degrees of freedom:    99


   Energy is   -844.529222478

 Hessian Updated using BFGS Update

 87 Hessian modes will be used to form the next step
  Hessian Eigenvalues:
     0.002527    0.003802    0.006978    0.007071    0.007449    0.007495
     0.010613    0.010658    0.010919    0.021336    0.022739    0.022870
     0.024982    0.031668    0.035352    0.036397    0.038685    0.039441
     0.043627    0.044814    0.050593    0.051036    0.054874    0.056317
     0.056617    0.058121    0.058192    0.059410    0.060017    0.063529
     0.065559    0.066096    0.080277    0.085272    0.094460    0.101222
     0.101299    0.102744    0.105978    0.106117    0.110921    0.122066
     0.128155    0.152299    0.159820    0.160123    0.179392    0.231870
     0.236618    0.249771    0.249791    0.249842    0.250839    0.251753
     0.253383    0.260061    0.274006    0.304039    0.308630    0.310391
     0.310809    0.334547    0.343466    0.344823    0.345196    0.345315
     0.345640    0.345874    0.345899    0.346198    0.346390    0.346501
     0.346645    0.346684    0.346721    0.346937    0.346976    0.350160
     0.350704    0.350901    0.351926    0.398563    0.398970    0.536369
     0.560706    1.009127    1.032558

 Minimum Search - Taking Simple RFO Step
 Searching for Lamda that Minimizes Along All modes
 Value Taken    Lamda =  -0.00000565
 Step Taken.  Stepsize is  0.026888

                             Maximum     Tolerance    Cnvgd?
         Gradient           0.000189      0.000001      NO
         Displacement       0.009154      0.000001      NO
         Energy change     -0.000001      0.000000      NO


 New Cartesian Coordinates Obtained by Inverse Iteration

 Displacement from previous Coordinates is:  0.080186
 Adding empirical dispersion correction 
 ----------------------------------------------------------------
 Doing -D3(op) with
 s6 =   1.00000
 s8 =   0.78311
 a1 =   0.30000
 a2 =   4.25000
 n  =  10.00000
 -D3 energy without 3body term =     -0.0425118957 hartrees
 ----------------------------------------------------------------
             Standard Nuclear Orientation (Angstroms)
    I     Atom           X                Y                Z
 ----------------------------------------------------------------
    1      C       0.2051743759     0.9466234507     0.6039502733
    2      C       0.3682481670    -0.5907647342     0.8729696516
    3      C      -1.1782032878     1.3550266144     0.1256743074
    4      C      -0.7349696364    -1.5015315270     0.3743720518
    5      O      -2.0932028002     0.9262047514     1.0309817641
    6      O      -1.4721575720     2.0008420714    -0.8457593170
    7      O      -1.1760505663    -1.1532857433    -0.8480049518
    8      O      -1.1359434398    -2.4663179406     0.9804798345
    9      C      -2.2062092309    -1.9752598260    -1.4223806581
   10      C      -3.4711358582     1.1808210222     0.7080324691
   11      C       1.4400247776     1.2492211883    -0.3128615222
   12      C       2.6802385723     1.2769344868     0.6239861426
   13      C       2.8517683512    -0.2231590187     0.9743008988
   14      C       1.7245520319    -0.8746474992     0.1297673685
   15      O       1.6320290660    -0.0013380621    -1.0033245125
   16      H       0.3210108663     1.4746500670     1.5551015364
   17      H       0.4570794054    -0.8062699979     1.9359492747
   18      H      -3.0705325071    -2.0255294688    -0.7581023549
   19      H      -3.7264696124     0.7160413989    -0.2459020116
   20      H       3.5407508718     1.6519994128     0.0674469418
   21      H       2.5379099569     1.9184698296     1.4963270540
   22      H       3.8232075455    -0.6019949965     0.6509648245
   23      H       2.7462321770    -0.4411972551     2.0390331155
   24      H      -2.4671370775    -1.4932413309    -2.3617510384
   25      H      -1.8331083283    -2.9853203853    -1.5994730813
   26      H      -3.6608318490     2.2534010839     0.6455007914
   27      H      -4.0457475848     0.7355998525     1.5172329564
   28      C       1.9750434697    -2.3022076598    -0.3034108892
   29      H       2.9386637270    -2.3690911594    -0.8126434397
   30      H       1.9887778145    -2.9669289344     0.5634391095
   31      H       1.2006521024    -2.6481990250    -0.9904141575
   32      C       1.3704946381     2.3947161603    -1.2990585093
   33      H       2.3318200734     2.4839847173    -1.8104937425
   34      H       0.5816679289     2.2359949916    -2.0294619765
   35      H       1.1646265020     3.3340814550    -0.7797867634
 ----------------------------------------------------------------
 Nuclear Repulsion Energy =  1410.8726027576 hartrees
 There are       65 alpha and       65 beta electrons
 Applying Cartesian multipole field
    Component          Value
    ---------          -----
     (2,0,0)        1.00000E-11
     (0,2,0)        2.00000E-11
     (0,0,2)       -3.00000E-11
 Nucleus-field energy     =     0.0000000289 hartrees
 Requested basis set is 6-311++G(d,p)
 There are 192 shells and 500 basis functions
 A cutoff of  1.0D-11 yielded  15182 shell pairs
 There are    104864 function pairs (    111798 Cartesian)
 Smallest overlap matrix eigenvalue = 5.03E-07

 Q-Chem warning in module /fs/scratch/osu6415/qchem-kaunlao-vdw/stvman/mkSTV.C, line 281:

 Overlap eigenvalue is smaller than square root of threshold

 Linear dependence detected in AO basis
 Number of orthogonalized atomic orbitals = 499
 Maximum deviation from orthogonality = 8.849E-11
 Guess MOs from SCF MO coefficient file
 Reading MOs from coefficient file
 Reading MOs from coefficient file
 A restricted hybrid HF-DFT SCF calculation will be
 performed using Pulay DIIS extrapolation
 Exchange:     0.2000 Hartree-Fock + 0.0800 Slater + 0.7200 B88
 Correlation:  0.1900 VWN1RPA + 0.8100 LYP
 Using SG-1 standard quadrature grid
 Dispersion:   Grimme D3
 SCF converges when DIIS error is below 1.0E-08
 Geometry optimization detected.  Setting ReadMinima to 0
 Setting SaveMinima to 0
 using 20 threads for integral computing
 -------------------------------------------------------
 OpenMP Integral computing Module                
 Release: version 1.0, May 2013, Q-Chem Inc. Pittsburgh 
 -------------------------------------------------------
 -------------------------------------------------------
 OpenMP BLAS3 based DFT computing Module                
 Release: version 1.0, May 2013, Q-Chem Inc. Pittsburgh 
 -------------------------------------------------------
 ---------------------------------------
  Cycle       Energy         DIIS Error
 ---------------------------------------
    1    -844.5295978109      9.32E-05
    2    -844.5292205272      1.24E-05
    3    -844.5292167856      1.89E-05
    4    -844.5292252170      4.07E-06
    5    -844.5292255107      1.79E-06
    6    -844.5292255852      5.00E-07
    7    -844.5292255894      2.13E-07
    8    -844.5292255909      5.08E-08
    9    -844.5292255907      2.29E-08
   10    -844.5292255897      8.56E-09 Convergence criterion met
 ---------------------------------------
 SCF time:  CPU 803.64 s  wall 43.40 s
 SCF   energy in the final basis set = -844.52922559
 Total energy in the final basis set = -844.52922559
 
 --------------------------------------------------------------
 
                    Orbital Energies (a.u.)
 --------------------------------------------------------------
 
 Alpha MOs
 -- Occupied --
-19.173 -19.173 -19.126 -19.118 -19.115 -10.309 -10.305 -10.243
-10.238 -10.231 -10.230 -10.206 -10.203 -10.178 -10.176 -10.169
-10.156  -1.119  -1.112  -1.060  -1.030  -1.027  -0.832  -0.804
 -0.785  -0.747  -0.728  -0.722  -0.675  -0.644  -0.603  -0.581
 -0.569  -0.558  -0.522  -0.513  -0.508  -0.492  -0.486  -0.478
 -0.475  -0.471  -0.459  -0.442  -0.434  -0.429  -0.416  -0.410
 -0.406  -0.399  -0.396  -0.373  -0.372  -0.367  -0.360  -0.355
 -0.352  -0.347  -0.332  -0.330  -0.317  -0.314  -0.287  -0.277
 -0.272
 -- Virtual --
 -0.019  -0.011  -0.006   0.000   0.006   0.009   0.013   0.018
  0.027   0.030   0.033   0.040   0.040   0.045   0.049   0.053
  0.060   0.063   0.066   0.067   0.080   0.082   0.088   0.089
  0.092   0.098   0.100   0.103   0.108   0.112   0.113   0.117
  0.118   0.120   0.124   0.130   0.133   0.134   0.137   0.140
  0.142   0.144   0.145   0.149   0.151   0.153   0.156   0.161
  0.162   0.164   0.165   0.168   0.174   0.175   0.177   0.182
  0.186   0.191   0.191   0.197   0.200   0.202   0.205   0.207
  0.209   0.212   0.213   0.218   0.223   0.229   0.229   0.231
  0.234   0.247   0.247   0.257   0.263   0.268   0.271   0.278
  0.281   0.285   0.288   0.292   0.298   0.302   0.304   0.309
  0.319   0.322   0.330   0.331   0.339   0.345   0.345   0.346
  0.350   0.359   0.360   0.361   0.365   0.369   0.373   0.376
  0.378   0.385   0.387   0.390   0.396   0.406   0.413   0.416
  0.427   0.430   0.434   0.446   0.454   0.463   0.471   0.478
  0.494   0.496   0.504   0.510   0.517   0.530   0.536   0.541
  0.551   0.565   0.567   0.578   0.584   0.593   0.603   0.604
  0.611   0.612   0.625   0.635   0.640   0.643   0.651   0.656
  0.660   0.667   0.671   0.676   0.681   0.690   0.696   0.699
  0.704   0.711   0.718   0.721   0.729   0.733   0.737   0.741
  0.745   0.760   0.764   0.770   0.786   0.797   0.802   0.808
  0.818   0.830   0.837   0.843   0.851   0.858   0.869   0.917
  0.928   0.952   0.965   0.998   1.010   1.027   1.033   1.056
  1.062   1.077   1.079   1.105   1.107   1.133   1.146   1.171
  1.177   1.196   1.199   1.205   1.224   1.233   1.247   1.249
  1.259   1.276   1.284   1.293   1.296   1.309   1.325   1.334
  1.343   1.366   1.374   1.376   1.389   1.408   1.428   1.441
  1.444   1.459   1.465   1.477   1.479   1.499   1.512   1.514
  1.528   1.544   1.546   1.552   1.568   1.569   1.573   1.576
  1.583   1.597   1.605   1.610   1.612   1.619   1.634   1.647
  1.649   1.663   1.672   1.687   1.694   1.698   1.702   1.713
  1.717   1.726   1.732   1.738   1.752   1.755   1.763   1.789
  1.794   1.803   1.807   1.813   1.838   1.843   1.850   1.867
  1.880   1.882   1.898   1.916   1.919   1.945   1.971   1.987
  1.992   2.013   2.019   2.025   2.032   2.041   2.065   2.081
  2.088   2.105   2.113   2.127   2.143   2.152   2.159   2.181
  2.190   2.199   2.212   2.232   2.234   2.266   2.281   2.304
  2.311   2.380   2.383   2.404   2.413   2.445   2.460   2.469
  2.486   2.488   2.501   2.502   2.517   2.524   2.528   2.538
  2.540   2.560   2.575   2.584   2.592   2.593   2.600   2.610
  2.612   2.638   2.649   2.671   2.684   2.691   2.710   2.718
  2.729   2.754   2.777   2.792   2.812   2.821   2.852   2.857
  2.869   2.872   2.881   2.894   2.909   2.921   2.948   2.971
  2.991   2.998   3.021   3.029   3.036   3.040   3.061   3.064
  3.078   3.089   3.118   3.126   3.134   3.155   3.170   3.201
  3.217   3.234   3.246   3.262   3.271   3.312   3.333   3.359
  3.372   3.377   3.398   3.411   3.540   3.601   3.608   3.668
  3.688   3.713   3.738   3.782   3.785   3.821   3.823   3.835
  3.838   3.858   3.866   3.960   3.975   4.060   4.080   4.088
  4.119   4.136   4.155   4.170   4.181   4.249   4.280   4.321
  4.442   4.513   5.051   5.118   5.176   5.188   5.237   5.262
  5.284   5.422   5.443   5.517   5.633   5.645   5.689   5.886
  5.903  23.767  23.839  23.853  23.898  23.905  23.934  23.943
 23.954  23.961  23.989  23.999  24.044  49.915  49.946  49.995
 50.046  50.051
 --------------------------------------------------------------
 
          Ground-State Mulliken Net Atomic Charges

     Atom                 Charge (a.u.)
  ----------------------------------------
      1 C                     0.438267
      2 C                     0.731215
      3 C                    -0.773713
      4 C                    -1.139182
      5 O                     0.012526
      6 O                    -0.165786
      7 O                    -0.010276
      8 O                    -0.130321
      9 C                    -0.201109
     10 C                    -0.172799
     11 C                    -0.559381
     12 C                    -0.485438
     13 C                    -0.337114
     14 C                    -0.433167
     15 O                     0.037596
     16 H                     0.268156
     17 H                     0.285385
     18 H                     0.187224
     19 H                     0.173443
     20 H                     0.174953
     21 H                     0.138103
     22 H                     0.175080
     23 H                     0.139799
     24 H                     0.175163
     25 H                     0.174584
     26 H                     0.172563
     27 H                     0.164389
     28 C                    -0.035440
     29 H                     0.171727
     30 H                     0.172099
     31 H                     0.185357
     32 C                    -0.037300
     33 H                     0.140324
     34 H                     0.199807
     35 H                     0.163264
  ----------------------------------------
  Sum of atomic charges =     0.000000

 -----------------------------------------------------------------
                    Cartesian Multipole Moments
 -----------------------------------------------------------------
    Charge (ESU x 10^10)
                 0.0000
    Dipole Moment (Debye)
         X       0.0765      Y       0.5393      Z       1.0428
       Tot       1.1765
    Quadrupole Moments (Debye-Ang)
        XX     -89.9005     XY      -0.1500     YY    -106.1510
        XZ       4.5378     YZ       9.7349     ZZ    -104.5847
    Octopole Moments (Debye-Ang^2)
       XXX     -58.7362    XXY      -1.2783    XYY       6.8483
       YYY       6.1566    XXZ       0.7510    XYZ     -19.1212
       YYZ     -12.4240    XZZ      -9.6490    YZZ      -2.4568
       ZZZ      -4.0097
    Hexadecapole Moments (Debye-Ang^3)
      XXXX   -2233.4298   XXXY     -45.6839   XXYY    -664.2016
      XYYY     -35.4196   YYYY   -1699.5058   XXXZ     -38.7263
      XXYZ      35.6659   XYYZ       5.7797   YYYZ      82.5150
      XXZZ    -505.0546   XYZZ       3.1841   YYZZ    -384.5638
      XZZZ       9.6933   YZZZ      23.2430   ZZZZ    -613.7935
 -----------------------------------------------------------------
 Calculating analytic gradient of the SCF energy
 Gradient of SCF Energy
            1           2           3           4           5           6
    1  -0.0000837   0.0000158  -0.0001312  -0.0000477  -0.0000675   0.0000612
    2  -0.0000389   0.0000826  -0.0004056   0.0000047   0.0002618   0.0001338
    3   0.0000636  -0.0000444  -0.0000769  -0.0000311   0.0000926   0.0000980
            7           8           9          10          11          12
    1   0.0000510   0.0000334   0.0000434   0.0000381   0.0000279  -0.0000048
    2  -0.0001196   0.0000162   0.0000026   0.0000204   0.0000606  -0.0000095
    3  -0.0001313  -0.0000476  -0.0000145   0.0000492   0.0000698   0.0000091
           13          14          15          16          17          18
    1   0.0000553  -0.0000067  -0.0000175   0.0000458  -0.0000216   0.0000039
    2  -0.0000183  -0.0000683   0.0000029   0.0000825  -0.0000093   0.0000070
    3  -0.0000309   0.0000454   0.0000005   0.0000305  -0.0000157  -0.0000059
           19          20          21          22          23          24
    1   0.0000216   0.0000009  -0.0000036   0.0000047  -0.0000157   0.0000096
    2  -0.0000013   0.0000119  -0.0000234  -0.0000046  -0.0000051   0.0000150
    3  -0.0000089   0.0000087   0.0000149   0.0000167  -0.0000103  -0.0000190
           25          26          27          28          29          30
    1  -0.0000105  -0.0000097   0.0000014   0.0000313   0.0000029  -0.0000248
    2   0.0000113  -0.0000118  -0.0000079   0.0000096   0.0000078   0.0000005
    3  -0.0000237   0.0000002   0.0000073  -0.0000253  -0.0000153  -0.0000301
           31          32          33          34          35
    1  -0.0000011   0.0000032   0.0000017   0.0000001  -0.0000071
    2   0.0000015   0.0000004  -0.0000106   0.0000204  -0.0000193
    3  -0.0000167   0.0000250   0.0000056   0.0000027   0.0000078
 Max gradient component =       4.056E-04
 RMS gradient           =       6.255E-05
 Gradient time:  CPU 401.77 s  wall 27.81 s
 Geometry Optimization Parameters
   NAtoms,    NIC,     NZ,  NCons,   NDum,   NFix, NCnnct, MaxDiis
       35     275       0       0       0       0       0       0

 Cartesian Hessian Update
 Hessian Updated using BFGS Update


** GEOMETRY OPTIMIZATION IN DELOCALIZED INTERNAL COORDINATES **
   Searching for a Minimum

   Optimization Cycle:   3

                       Coordinates (Angstroms)
     ATOM                X               Y               Z
      1  C         0.2051743759    0.9466234507    0.6039502733
      2  C         0.3682481670   -0.5907647342    0.8729696516
      3  C        -1.1782032878    1.3550266144    0.1256743074
      4  C        -0.7349696364   -1.5015315270    0.3743720518
      5  O        -2.0932028002    0.9262047514    1.0309817641
      6  O        -1.4721575720    2.0008420714   -0.8457593170
      7  O        -1.1760505663   -1.1532857433   -0.8480049518
      8  O        -1.1359434398   -2.4663179406    0.9804798345
      9  C        -2.2062092309   -1.9752598260   -1.4223806581
     10  C        -3.4711358582    1.1808210222    0.7080324691
     11  C         1.4400247776    1.2492211883   -0.3128615222
     12  C         2.6802385723    1.2769344868    0.6239861426
     13  C         2.8517683512   -0.2231590187    0.9743008988
     14  C         1.7245520319   -0.8746474992    0.1297673685
     15  O         1.6320290660   -0.0013380621   -1.0033245125
     16  H         0.3210108663    1.4746500670    1.5551015364
     17  H         0.4570794054   -0.8062699979    1.9359492747
     18  H        -3.0705325071   -2.0255294688   -0.7581023549
     19  H        -3.7264696124    0.7160413989   -0.2459020116
     20  H         3.5407508718    1.6519994128    0.0674469418
     21  H         2.5379099569    1.9184698296    1.4963270540
     22  H         3.8232075455   -0.6019949965    0.6509648245
     23  H         2.7462321770   -0.4411972551    2.0390331155
     24  H        -2.4671370775   -1.4932413309   -2.3617510384
     25  H        -1.8331083283   -2.9853203853   -1.5994730813
     26  H        -3.6608318490    2.2534010839    0.6455007914
     27  H        -4.0457475848    0.7355998525    1.5172329564
     28  C         1.9750434697   -2.3022076598   -0.3034108892
     29  H         2.9386637270   -2.3690911594   -0.8126434397
     30  H         1.9887778145   -2.9669289344    0.5634391095
     31  H         1.2006521024   -2.6481990250   -0.9904141575
     32  C         1.3704946381    2.3947161603   -1.2990585093
     33  H         2.3318200734    2.4839847173   -1.8104937425
     34  H         0.5816679289    2.2359949916   -2.0294619765
     35  H         1.1646265020    3.3340814550   -0.7797867634
   Point Group: c1    Number of degrees of freedom:    99


   Energy is   -844.529225590

 Hessian Updated using BFGS Update

 89 Hessian modes will be used to form the next step
  Hessian Eigenvalues:
     0.001863    0.005749    0.007028    0.007437    0.007453    0.008511
     0.010616    0.010667    0.010952    0.021337    0.022770    0.022981
     0.024699    0.033146    0.035754    0.037855    0.038662    0.043164
     0.043919    0.048711    0.050545    0.054636    0.055490    0.056600
     0.058051    0.058185    0.059388    0.059945    0.060944    0.065027
     0.065577    0.066441    0.080441    0.085311    0.094794    0.101203
     0.101300    0.105731    0.106048    0.106123    0.111631    0.122841
     0.125950    0.157597    0.159720    0.160021    0.161947    0.177912
     0.231587    0.237698    0.249610    0.249784    0.249862    0.250009
     0.251339    0.252637    0.253342    0.259890    0.274015    0.304215
     0.309311    0.310364    0.310807    0.334418    0.343746    0.344808
     0.345195    0.345300    0.345645    0.345871    0.345891    0.346198
     0.346391    0.346498    0.346634    0.346690    0.346710    0.346882
     0.346992    0.350175    0.350701    0.350899    0.351918    0.398748
     0.399144    0.536222    0.559990    1.009340    1.032531

 Minimum Search - Taking Simple RFO Step
 Searching for Lamda that Minimizes Along All modes
 Value Taken    Lamda =  -0.00000971
 Step Taken.  Stepsize is  0.033186

                             Maximum     Tolerance    Cnvgd?
         Gradient           0.000541      0.000001      NO
         Displacement       0.011355      0.000001      NO
         Energy change     -0.000003      0.000000      NO


 New Cartesian Coordinates Obtained by Inverse Iteration

 Displacement from previous Coordinates is:  0.130122
 Adding empirical dispersion correction 
 ----------------------------------------------------------------
 Doing -D3(op) with
 s6 =   1.00000
 s8 =   0.78311
 a1 =   0.30000
 a2 =   4.25000
 n  =  10.00000
 -D3 energy without 3body term =     -0.0425594665 hartrees
 ----------------------------------------------------------------
             Standard Nuclear Orientation (Angstroms)
    I     Atom           X                Y                Z
 ----------------------------------------------------------------
    1      C       0.2063454877     0.9483233455     0.6034870861
    2      C       0.3709395737    -0.5887056751     0.8737176603
    3      C      -1.1762110029     1.3529477501     0.1197162967
    4      C      -0.7348409626    -1.4996429745     0.3811553403
    5      O      -2.0933782517     0.9201722892     1.0209071834
    6      O      -1.4683902007     1.9987632094    -0.8522356912
    7      O      -1.1831802835    -1.1507039927    -0.8383234491
    8      O      -1.1317173945    -2.4651158330     0.9888695934
    9      C      -2.2162443026    -1.9727224851    -1.4073995683
   10      C      -3.4708491344     1.1707821157     0.6927547172
   11      C       1.4428382106     1.2521737339    -0.3105588346
   12      C       2.6824411325     1.2760793744     0.6273937562
   13      C       2.8543287832    -0.2253740189     0.9716514077
   14      C       1.7251880815    -0.8730207909     0.1269696076
   15      O       1.6333248675     0.0030754701    -1.0040713138
   16      H       0.3184011100     1.4765009990     1.5549405921
   17      H       0.4634037466    -0.8028597768     1.9366685687
   18      H      -3.0765886142    -2.0242766845    -0.7380743882
   19      H      -3.7208737954     0.7067344944    -0.2629335374
   20      H       3.5432590827     1.6536009508     0.0730111479
   21      H       2.5394868970     1.9139739728     1.5023052419
   22      H       3.8249621670    -0.6033697145     0.6449255422
   23      H       2.7508060353    -0.4473720964     2.0357743261
   24      H      -2.4830566878    -1.4898855429    -2.3446856212
   25      H      -1.8435611527    -2.9823719747    -1.5877364779
   26      H      -3.6637736161     2.2428486778     0.6311534070
   27      H      -4.0472716059     0.7224375122     1.4989257722
   28      C       1.9726965032    -2.3001223606    -0.3094761068
   29      H       2.9351291841    -2.3673580008    -0.8208898650
   30      H       1.9874362398    -2.9665480310     0.5560671769
   31      H       1.1963605125    -2.6436424959    -0.9955230606
   32      C       1.3756075200     2.4003144461    -1.2938808006
   33      H       2.3375836997     2.4898950755    -1.8040285492
   34      H       0.5874108028     2.2442013515    -2.0255032845
   35      H       1.1702604376     3.3385956699    -0.7723924353
 ----------------------------------------------------------------
 Nuclear Repulsion Energy =  1411.2377850776 hartrees
 There are       65 alpha and       65 beta electrons
 Applying Cartesian multipole field
    Component          Value
    ---------          -----
     (2,0,0)        1.00000E-11
     (0,2,0)        2.00000E-11
     (0,0,2)       -3.00000E-11
 Nucleus-field energy     =     0.0000000289 hartrees
 Requested basis set is 6-311++G(d,p)
 There are 192 shells and 500 basis functions
 A cutoff of  1.0D-11 yielded  15187 shell pairs
 There are    104941 function pairs (    111883 Cartesian)
 Smallest overlap matrix eigenvalue = 5.04E-07

 Q-Chem warning in module /fs/scratch/osu6415/qchem-kaunlao-vdw/stvman/mkSTV.C, line 281:

 Overlap eigenvalue is smaller than square root of threshold

 Linear dependence detected in AO basis
 Number of orthogonalized atomic orbitals = 499
 Maximum deviation from orthogonality = 1.860E-10
 Guess MOs from SCF MO coefficient file
 Reading MOs from coefficient file
 Reading MOs from coefficient file
 A restricted hybrid HF-DFT SCF calculation will be
 performed using Pulay DIIS extrapolation
 Exchange:     0.2000 Hartree-Fock + 0.0800 Slater + 0.7200 B88
 Correlation:  0.1900 VWN1RPA + 0.8100 LYP
 Using SG-1 standard quadrature grid
 Dispersion:   Grimme D3
 SCF converges when DIIS error is below 1.0E-08
 Geometry optimization detected.  Setting ReadMinima to 0
 Setting SaveMinima to 0
 using 20 threads for integral computing
 -------------------------------------------------------
 OpenMP Integral computing Module                
 Release: version 1.0, May 2013, Q-Chem Inc. Pittsburgh 
 -------------------------------------------------------
 -------------------------------------------------------
 OpenMP BLAS3 based DFT computing Module                
 Release: version 1.0, May 2013, Q-Chem Inc. Pittsburgh 
 -------------------------------------------------------
 ---------------------------------------
  Cycle       Energy         DIIS Error
 ---------------------------------------
    1    -844.5326610442      1.48E-04
    2    -844.5291941006      2.89E-05
    3    -844.5291765182      3.97E-05
    4    -844.5292199278      8.96E-06
    5    -844.5292215391      2.86E-06
    6    -844.5292217095      8.21E-07
    7    -844.5292217239      3.11E-07
    8    -844.5292217261      1.15E-07
    9    -844.5292217265      3.45E-08
   10    -844.5292217253      1.61E-08
   11    -844.5292217242      3.86E-09 Convergence criterion met
 ---------------------------------------
 SCF time:  CPU 875.99 s  wall 46.75 s
 SCF   energy in the final basis set = -844.52922172
 Total energy in the final basis set = -844.52922172
 
 --------------------------------------------------------------
 
                    Orbital Energies (a.u.)
 --------------------------------------------------------------
 
 Alpha MOs
 -- Occupied --
-19.173 -19.173 -19.126 -19.118 -19.115 -10.309 -10.305 -10.243
-10.238 -10.231 -10.230 -10.206 -10.203 -10.178 -10.176 -10.169
-10.156  -1.119  -1.112  -1.060  -1.029  -1.027  -0.832  -0.804
 -0.785  -0.747  -0.728  -0.722  -0.675  -0.644  -0.603  -0.581
 -0.569  -0.558  -0.522  -0.513  -0.508  -0.492  -0.486  -0.478
 -0.475  -0.471  -0.459  -0.442  -0.434  -0.429  -0.416  -0.410
 -0.406  -0.399  -0.396  -0.373  -0.372  -0.367  -0.360  -0.355
 -0.352  -0.347  -0.332  -0.330  -0.318  -0.314  -0.287  -0.277
 -0.272
 -- Virtual --
 -0.019  -0.011  -0.006   0.000   0.007   0.009   0.013   0.018
  0.026   0.030   0.033   0.040   0.040   0.045   0.049   0.053
  0.060   0.063   0.066   0.067   0.080   0.082   0.088   0.089
  0.092   0.098   0.100   0.103   0.108   0.112   0.113   0.117
  0.118   0.120   0.124   0.130   0.133   0.134   0.137   0.140
  0.142   0.144   0.145   0.149   0.151   0.153   0.156   0.161
  0.162   0.164   0.165   0.168   0.174   0.175   0.177   0.182
  0.186   0.191   0.191   0.197   0.200   0.202   0.205   0.207
  0.209   0.212   0.213   0.218   0.224   0.229   0.229   0.231
  0.234   0.247   0.247   0.257   0.263   0.268   0.271   0.278
  0.281   0.285   0.288   0.292   0.298   0.301   0.304   0.309
  0.319   0.322   0.330   0.331   0.339   0.345   0.345   0.346
  0.350   0.359   0.360   0.361   0.365   0.369   0.373   0.376
  0.378   0.385   0.387   0.390   0.396   0.406   0.413   0.416
  0.426   0.430   0.434   0.446   0.454   0.463   0.471   0.478
  0.494   0.496   0.505   0.511   0.517   0.530   0.536   0.540
  0.551   0.565   0.567   0.578   0.584   0.593   0.603   0.605
  0.611   0.612   0.625   0.635   0.641   0.643   0.651   0.656
  0.660   0.667   0.671   0.676   0.680   0.689   0.696   0.699
  0.704   0.711   0.718   0.721   0.729   0.733   0.737   0.742
  0.745   0.760   0.764   0.770   0.786   0.797   0.802   0.809
  0.818   0.829   0.837   0.843   0.851   0.859   0.869   0.916
  0.927   0.952   0.965   0.997   1.010   1.026   1.033   1.056
  1.061   1.078   1.079   1.105   1.107   1.133   1.146   1.173
  1.177   1.197   1.199   1.205   1.224   1.234   1.247   1.249
  1.259   1.277   1.283   1.293   1.296   1.308   1.326   1.335
  1.343   1.366   1.375   1.377   1.389   1.408   1.429   1.441
  1.444   1.459   1.466   1.476   1.479   1.499   1.512   1.514
  1.529   1.543   1.545   1.552   1.568   1.569   1.573   1.576
  1.584   1.597   1.605   1.610   1.612   1.619   1.633   1.647
  1.649   1.663   1.672   1.688   1.695   1.698   1.702   1.713
  1.717   1.726   1.732   1.738   1.752   1.755   1.763   1.789
  1.794   1.803   1.808   1.813   1.838   1.843   1.851   1.867
  1.879   1.882   1.898   1.916   1.920   1.945   1.971   1.986
  1.992   2.013   2.020   2.025   2.032   2.041   2.065   2.081
  2.087   2.105   2.114   2.128   2.142   2.152   2.159   2.181
  2.190   2.199   2.212   2.232   2.234   2.267   2.282   2.304
  2.311   2.380   2.384   2.403   2.413   2.445   2.460   2.469
  2.486   2.488   2.501   2.502   2.517   2.524   2.528   2.539
  2.540   2.560   2.575   2.584   2.592   2.593   2.600   2.610
  2.612   2.638   2.649   2.671   2.684   2.692   2.710   2.719
  2.730   2.754   2.777   2.792   2.812   2.821   2.852   2.856
  2.868   2.872   2.881   2.894   2.909   2.922   2.948   2.972
  2.991   2.998   3.021   3.029   3.036   3.040   3.060   3.064
  3.078   3.089   3.118   3.126   3.134   3.155   3.170   3.201
  3.217   3.233   3.246   3.262   3.271   3.312   3.333   3.359
  3.372   3.377   3.398   3.411   3.540   3.601   3.608   3.668
  3.688   3.713   3.738   3.782   3.786   3.821   3.823   3.835
  3.838   3.858   3.866   3.960   3.975   4.058   4.080   4.089
  4.118   4.135   4.155   4.170   4.181   4.249   4.280   4.321
  4.442   4.513   5.049   5.120   5.175   5.191   5.237   5.262
  5.284   5.422   5.443   5.517   5.633   5.644   5.689   5.886
  5.903  23.767  23.839  23.853  23.898  23.905  23.934  23.943
 23.954  23.960  23.989  23.999  24.044  49.915  49.947  49.995
 50.046  50.051
 --------------------------------------------------------------
 
          Ground-State Mulliken Net Atomic Charges

     Atom                 Charge (a.u.)
  ----------------------------------------
      1 C                     0.436140
      2 C                     0.731954
      3 C                    -0.775840
      4 C                    -1.133605
      5 O                     0.012702
      6 O                    -0.166328
      7 O                    -0.012076
      8 O                    -0.130888
      9 C                    -0.202477
     10 C                    -0.173590
     11 C                    -0.552986
     12 C                    -0.481730
     13 C                    -0.342163
     14 C                    -0.433830
     15 O                     0.036908
     16 H                     0.267888
     17 H                     0.285219
     18 H                     0.187756
     19 H                     0.174288
     20 H                     0.174874
     21 H                     0.138177
     22 H                     0.175174
     23 H                     0.139550
     24 H                     0.175533
     25 H                     0.174495
     26 H                     0.172684
     27 H                     0.164409
     28 C                    -0.035827
     29 H                     0.171836
     30 H                     0.172363
     31 H                     0.185141
     32 C                    -0.039145
     33 H                     0.140327
     34 H                     0.200047
     35 H                     0.163017
  ----------------------------------------
  Sum of atomic charges =     0.000000

 -----------------------------------------------------------------
                    Cartesian Multipole Moments
 -----------------------------------------------------------------
    Charge (ESU x 10^10)
                 0.0000
    Dipole Moment (Debye)
         X       0.0662      Y       0.5331      Z       1.0426
       Tot       1.1729
    Quadrupole Moments (Debye-Ang)
        XX     -89.8441     XY      -0.0976     YY    -106.1583
        XZ       4.5589     YZ       9.7454     ZZ    -104.6643
    Octopole Moments (Debye-Ang^2)
       XXX     -58.9992    XXY      -1.4944    XYY       6.7428
       YYY       6.0956    XXZ       0.5924    XYZ     -18.9998
       YYZ     -12.4627    XZZ      -9.5372    YZZ      -2.3894
       ZZZ      -3.9095
    Hexadecapole Moments (Debye-Ang^3)
      XXXX   -2236.6111   XXXY     -47.1446   XXYY    -664.2500
      XYYY     -37.2999   YYYY   -1697.5849   XXXZ     -39.0129
      XXYZ      35.9767   XYYZ       5.4813   YYYZ      84.5104
      XXZZ    -505.4070   XYZZ       2.3266   YYZZ    -384.1107
      XZZZ       8.7005   YZZZ      25.3425   ZZZZ    -610.7339
 -----------------------------------------------------------------
 Calculating analytic gradient of the SCF energy
 Gradient of SCF Energy
            1           2           3           4           5           6
    1  -0.0002028   0.0002138  -0.0000551  -0.0001791   0.0000909   0.0000253
    2  -0.0000373   0.0000416  -0.0004628   0.0001158   0.0000026   0.0001118
    3   0.0000235   0.0000161  -0.0001790   0.0000135  -0.0000464   0.0000732
            7           8           9          10          11          12
    1  -0.0000535   0.0000351   0.0000238  -0.0000216   0.0001282  -0.0000254
    2   0.0001315  -0.0000329   0.0000203   0.0000186   0.0001232  -0.0000026
    3   0.0000910  -0.0000327  -0.0000184   0.0000302   0.0000367   0.0000431
           13          14          15          16          17          18
    1   0.0000843  -0.0001230   0.0000746   0.0000695  -0.0000556  -0.0000071
    2  -0.0000573   0.0000682   0.0000931  -0.0000485  -0.0000253  -0.0000020
    3  -0.0000511  -0.0000103  -0.0000308   0.0000653  -0.0000067  -0.0000219
           19          20          21          22          23          24
    1  -0.0000048   0.0000027   0.0000091   0.0000043  -0.0000355   0.0000044
    2  -0.0000005  -0.0000049  -0.0000215  -0.0000140   0.0000045   0.0000141
    3  -0.0000000   0.0000017   0.0000201   0.0000346   0.0000018  -0.0000048
           25          26          27          28          29          30
    1  -0.0000059  -0.0000065   0.0000062   0.0000169  -0.0000055  -0.0000125
    2   0.0000021  -0.0000044  -0.0000074  -0.0000151   0.0000094  -0.0000082
    3  -0.0000201   0.0000029  -0.0000034  -0.0000035  -0.0000110  -0.0000213
           31          32          33          34          35
    1   0.0000112  -0.0000000   0.0000014  -0.0000048  -0.0000026
    2   0.0000070   0.0000018  -0.0000127   0.0000035  -0.0000120
    3  -0.0000205   0.0000123   0.0000046   0.0000066   0.0000049
 Max gradient component =       4.628E-04
 RMS gradient           =       7.277E-05
 Gradient time:  CPU 397.81 s  wall 27.60 s
 Geometry Optimization Parameters
   NAtoms,    NIC,     NZ,  NCons,   NDum,   NFix, NCnnct, MaxDiis
       35     275       0       0       0       0       0       0

 Cartesian Hessian Update
 Hessian Updated using BFGS Update


** GEOMETRY OPTIMIZATION IN DELOCALIZED INTERNAL COORDINATES **
   Searching for a Minimum

[...]
     0.00003516      0.00010940     -0.00006056
    -0.00007116     -0.00005497     -0.00002267
     0.00009919     -0.00010325     -0.00003932
    -0.00063904      0.00022012      0.00045928
    -0.03850760      0.00478467      0.04933480
     0.04244985     -0.00663074     -0.05411552
     0.00082830      0.00005084     -0.00059503
     0.00003353     -0.00010950     -0.00000745
    -0.01008908     -0.04413577     -0.08296799
    -0.00913766      0.01439585     -0.07924080
     0.00087649      0.00007634     -0.00063167
    -0.00016935     -0.00014351     -0.00029094
     0.40954872      0.17671957     -0.26235334
     0.05015062     -0.23657653     -0.32598689
    -0.46160086      0.17771763      0.15378397
    -0.04602250     -0.09939185      0.49138478
     0.00028223     -0.00035469      0.00083508
    -0.00026159      0.00091155      0.00019178
    -0.00034621      0.00181871     -0.00008120
    -0.00054444     -0.00042288      0.00074582
    -0.00588558     -0.00232602      0.00254166
     0.04727660     -0.00184924     -0.02415625
    -0.00149103      0.02083271     -0.02753886
     0.02228253      0.00970569      0.02217274
     0.00794741     -0.00622927     -0.00616015
    -0.07081387     -0.00644134      0.03460322
    -0.00438826     -0.00311903     -0.00885521
    -0.01765642      0.08464430      0.04730262
vibration 90
    -0.00015578     -0.00007993      0.00061291
    -0.00073767      0.00133719     -0.00758068
     0.00003358     -0.00039155      0.00045511
     0.00010486      0.00023736     -0.00018220
     0.00005894      0.00004253     -0.00010150
    -0.00001678      0.00025783     -0.00017979
    -0.00000743     -0.00001148      0.00001538
    -0.00002359     -0.00007343      0.00005780
    -0.00021150      0.00019287      0.00018201
    -0.00002429      0.00033404      0.00000710
     0.00084627     -0.00044168     -0.00124923
    -0.01106190      0.00165559      0.01441227
    -0.01877847      0.00293731      0.02348057
    -0.00035998      0.00008899      0.00018266
    -0.00006556      0.00027840      0.00011409
    -0.00018757     -0.00185975     -0.00258703
     0.00919984     -0.01628253      0.08969245
     0.00170418      0.00007153     -0.00142411
    -0.00017960     -0.00042145     -0.00085884
     0.11485788      0.05101296     -0.07609538
     0.01542806     -0.07092899     -0.09407517
     0.20460890     -0.07928394     -0.06868874
     0.01976335      0.04380039     -0.21028292
    -0.00016469      0.00017983     -0.00041106
     0.00091954     -0.00255766     -0.00043314
     0.00053503     -0.00332654      0.00024927
    -0.00036516     -0.00020494      0.00050638
     0.00513716      0.00210800     -0.00292743
    -0.04570334      0.00251437      0.02370100
     0.00154485     -0.02101361      0.02745950
    -0.01641250     -0.00710067     -0.01643423
     0.05442202     -0.04298518     -0.04971964
    -0.55418301     -0.05622061      0.28219534
     0.02115389     -0.00907717     -0.00550887
    -0.11950410      0.57968144      0.32032494
vibration 91
     0.00049257      0.00129662      0.00231964
    -0.00210670      0.00390040     -0.02026565
     0.00036160     -0.00011636      0.00004416
     0.00025924      0.00060923     -0.00049569
    -0.00011428     -0.00001843      0.00004075
    -0.00006160      0.00001608     -0.00008537
     0.00002267     -0.00007597      0.00005434
    -0.00007033     -0.00025540      0.00017055
     0.00075362     -0.00051313     -0.00034048
     0.00010407     -0.00062409     -0.00019117
    -0.00149409      0.00054562      0.00148874
    -0.03881761      0.00553858      0.05005395
    -0.02950979      0.00478071      0.03622947
    -0.00027732     -0.00020081      0.00032771
     0.00022585     -0.00032361     -0.00031891
    -0.00176630     -0.01552845     -0.03084443
     0.02456055     -0.04407171      0.23809288
    -0.00620846     -0.00040317      0.00485406
     0.00050957      0.00117634      0.00251326
     0.41233499      0.18009234     -0.26391898
     0.05271859     -0.24567612     -0.33560137
     0.32348004     -0.12670895     -0.10881823
     0.03036004      0.06916816     -0.32388922
    -0.00041799      0.00061025     -0.00163507
    -0.00234009      0.00590850      0.00082585
    -0.00112791      0.00643730     -0.00042030
    -0.00030862     -0.00027262      0.00027532
     0.02323474      0.01071927     -0.01813930
    -0.22841371      0.01453265      0.11946921
     0.00778280     -0.11887295      0.15510654
    -0.05628342     -0.02397516     -0.05781544
    -0.02049299      0.01631800      0.02006933
     0.22054235      0.02352895     -0.11421089
    -0.01701488      0.00139279     -0.00751022
     0.04517535     -0.22001485     -0.12085263
vibration 92
     0.00000178     -0.00043551     -0.00041121
    -0.00138218      0.00282955     -0.01660344
     0.00016864     -0.00009979      0.00005536
     0.00036617      0.00014017     -0.00000324
    -0.00003762      0.00001408      0.00000076
    -0.00003411      0.00003366     -0.00006840
    -0.00000699     -0.00002202     -0.00008906
    -0.00007862      0.00000994      0.00003083
     0.00011214      0.00020279     -0.00011748
     0.00006513      0.00025156      0.00019236
    -0.00045667      0.00030292      0.00042816
    -0.01053280      0.00132328      0.01345470
    -0.01295444      0.00237201      0.01476330
    -0.00140254     -0.00034486      0.00178981
     0.00014098      0.00017019     -0.00039786
     0.00156129      0.00347857      0.00481996
     0.01977443     -0.03574473      0.19189392
    -0.00183085     -0.00013615      0.00129400
    -0.00062682     -0.00127203     -0.00261683
     0.11291777      0.04974867     -0.07237768
     0.01403881     -0.06581016     -0.08947950
     0.14509537     -0.05553423     -0.04718932
     0.01214038      0.02648771     -0.13099685
     0.00005246     -0.00035430      0.00064152
     0.00054398     -0.00181793     -0.00028331
     0.00023690     -0.00164085      0.00012881
    -0.00019949     -0.00008676      0.00026558
    -0.04451693     -0.02900285      0.06862535
     0.58342317     -0.04172850     -0.30054982
    -0.01956455      0.40356954     -0.52355096
    -0.02870323     -0.01467476     -0.00117739
    -0.00387260      0.00297815      0.00390945
     0.04357580      0.00482174     -0.02270016
    -0.00453169      0.00004586     -0.00258689
     0.00827085     -0.04064432     -0.02219525
vibration 93
     0.00016491      0.00056448      0.00098288
     0.00085941     -0.00117826      0.00554295
    -0.00003349     -0.00002718      0.00001805
     0.00004444     -0.00029875     -0.00005142
     0.00001169      0.00001726     -0.00000246
     0.00000644      0.00001912     -0.00001267
    -0.00015810      0.00009697      0.00006046
    -0.00000603      0.00015094      0.00000788
     0.00204338     -0.00130146     -0.00123502
     0.00006326      0.00058019      0.00034996
    -0.00010015     -0.00002776      0.00010378
    -0.00382063      0.00075429      0.00498441
    -0.00661756      0.00143790      0.00841663
    -0.00180093     -0.00001509     -0.00075379
     0.00023392     -0.00012000      0.00009220
    -0.00143736     -0.00658101     -0.01210343
    -0.00676195      0.01278798     -0.06577278
    -0.01739046     -0.00120688      0.01404500
    -0.00114615     -0.00229465     -0.00482086
     0.04054303      0.01758819     -0.02591190
     0.00577660     -0.02574245     -0.03417241
     0.07855270     -0.02847236     -0.02540043
     0.00665728      0.01497531     -0.07234900
     0.00007671      0.00029930     -0.00144997
    -0.00618005      0.01662123      0.00260067
     0.00073430     -0.00460398      0.00033248
    -0.00015388     -0.00003433      0.00032030
    -0.07518340     -0.00122230     -0.05196604
     0.31526594     -0.01970871     -0.18762017
    -0.00991096     -0.22874145      0.29091073
     0.59822646      0.26123972      0.51936057
    -0.00084903      0.00086281      0.00115207
     0.01087951      0.00124847     -0.00575707
    -0.00260842     -0.00039658     -0.00199697
     0.00229285     -0.01111982     -0.00608176
vibration 94
    -0.00006000     -0.00016563     -0.00015230
     0.00027018     -0.00030913      0.00102277
     0.00013506      0.00012199      0.00001440
    -0.00021397      0.00008070     -0.00000530
    -0.00006004      0.00017420      0.00013343
    -0.00004429      0.00005412      0.00005162
    -0.00019236      0.00017156      0.00016131
    -0.00007610      0.00005284      0.00004240
     0.05373275     -0.04285956     -0.03609712
    -0.00066765     -0.04685832     -0.02795703
     0.00004190     -0.00004211     -0.00006033
     0.00033345     -0.00011380     -0.00049162
     0.00017886     -0.00003639     -0.00019562
     0.00006716      0.00000182      0.00005497
    -0.00001102      0.00005099      0.00001180
    -0.00004735      0.00066069      0.00105398
    -0.00125547      0.00240491     -0.01283374
    -0.44045160     -0.02821107      0.35716023
     0.08338951      0.16612751      0.35195281
    -0.00347951     -0.00145619      0.00214101
    -0.00058623      0.00286406      0.00390896
    -0.00204518      0.00080493      0.00067090
    -0.00015063     -0.00032918      0.00142014
     0.00888691     -0.00559838     -0.01271089
    -0.20293733      0.54022064      0.08288910
    -0.06588131      0.40463236     -0.02895455
    -0.00938886     -0.01655146      0.00751163
     0.00111437     -0.00012926      0.00149129
    -0.00131841      0.00016516      0.00128515
     0.00007422      0.00681719     -0.00864126
    -0.01266804     -0.00530487     -0.01054876
     0.00047480     -0.00040147     -0.00045849
    -0.00499785     -0.00052119      0.00253966
     0.00029674     -0.00012714     -0.00005607
    -0.00106555      0.00548463      0.00300878
vibration 95
     0.00006719      0.00019562      0.00044510
     0.00054745     -0.00100569      0.00576756
    -0.00010571      0.00011952      0.00013237
    -0.00008448     -0.00019492      0.00000191
     0.00007253      0.00027167      0.00012096
     0.00001078      0.00010880      0.00004033
     0.00017364     -0.00011053     -0.00006653
     0.00011280      0.00001335     -0.00004851
    -0.03803465      0.03003408      0.02484621
    -0.00182831     -0.06662122     -0.03932070
    -0.00002496      0.00006582      0.00003138
    -0.00074168      0.00015530      0.00100126
    -0.00111103      0.00006759      0.00190505
    -0.00007135     -0.00006630      0.00009011
     0.00002019      0.00000818     -0.00006536
    -0.00106725     -0.00377278     -0.00704927
    -0.00651768      0.01258667     -0.06743693
     0.31185671      0.02040681     -0.25279212
     0.11985776      0.23663765      0.50400986
     0.00778501      0.00345180     -0.00501453
     0.00114795     -0.00527321     -0.00711834
     0.01195798     -0.00457806     -0.00400432
     0.00168986      0.00384737     -0.01894404
    -0.00422131      0.00025762      0.01668354
     0.14174512     -0.37573919     -0.05787909
    -0.09218594      0.56905629     -0.03979413
    -0.00603142     -0.01790301      0.00044568
    -0.00152416     -0.00040548     -0.00005300
     0.00969183     -0.00072114     -0.00545430
    -0.00043886      0.00166455     -0.00211901
     0.00938612      0.00390801      0.00820642
    -0.00014751      0.00006845      0.00013091
     0.00184507      0.00022974     -0.00096945
    -0.00022189     -0.00002802     -0.00009439
     0.00022808     -0.00111435     -0.00057867
vibration 96
    -0.00083319     -0.00496734     -0.00761451
    -0.00806417      0.01440301     -0.07669723
     0.00031317     -0.00021309     -0.00012087
     0.00082822      0.00168627     -0.00163688
    -0.00008776      0.00001564      0.00007544
    -0.00002792     -0.00001582      0.00005209
     0.00016704     -0.00008592      0.00035062
    -0.00017514     -0.00061483      0.00059439
    -0.00179094      0.00163449      0.00177054
    -0.00025675     -0.00547893     -0.00307482
     0.00003952     -0.00081887     -0.00023022
     0.00846812     -0.00218615     -0.01199054
     0.01187364     -0.00034536     -0.02160464
    -0.00023503      0.00068292     -0.00125081
    -0.00009199     -0.00018124      0.00075826
     0.01269297      0.05604047      0.09822998
     0.08867666     -0.16917996      0.90609124
     0.01499701      0.00081403     -0.01275398
     0.00997502      0.01930472      0.04129398
    -0.08768526     -0.03908606      0.05677484
    -0.01413957      0.06464999      0.08799234
    -0.12449173      0.04848884      0.04224473
    -0.01962146     -0.04460100      0.21956325
    -0.00173727      0.00240251     -0.00401899
     0.00818891     -0.02246548     -0.00367149
    -0.00742739      0.04606479     -0.00319368
     0.00028167     -0.00071798     -0.00127979
    -0.00319377      0.00350743     -0.01273710
    -0.02394089      0.00193516      0.01012241
     0.00171121     -0.07212511      0.09107504
     0.06142350      0.02758719      0.05175471
     0.00162432     -0.00110723     -0.00140995
    -0.01671395     -0.00190754      0.00881953
     0.00005290     -0.00041439     -0.00029503
    -0.00327769      0.01627839      0.00862426
vibration 97
    -0.00001050     -0.00005966      0.00005384
    -0.00000143      0.00001998     -0.00010643
    -0.00089144      0.00054954     -0.00071805
     0.00002437      0.00009620     -0.00011641
    -0.00008424     -0.00022858      0.00026916
     0.00028482     -0.00027350      0.00038352
     0.00000438     -0.00003146      0.00002615
    -0.00003690     -0.00004701      0.00004722
    -0.00017365     -0.00106055      0.00202249
     0.03019697      0.04531881     -0.07710284
    -0.00000584      0.00003352      0.00000071
     0.00000851     -0.00000054     -0.00002103
    -0.00000671      0.00001428     -0.00003301
    -0.00000366      0.00000048     -0.00000696
     0.00000381     -0.00001456      0.00000327
     0.00034842      0.00016355      0.00048204
     0.00020299     -0.00029361      0.00128338
     0.00904055      0.00007038     -0.00714121
     0.06534856      0.13886557      0.24470725
    -0.00016331     -0.00006299      0.00008203
    -0.00002406      0.00005997      0.00007347
     0.00013509     -0.00006622     -0.00005216
    -0.00004625     -0.00009603      0.00044589
    -0.00517437      0.00958364     -0.01782630
    -0.00135422      0.00299198      0.00099224
     0.05294997     -0.30170879     -0.00100177
    -0.47076749     -0.37464442      0.67155902
     0.00000497      0.00001839     -0.00002011
    -0.00000456     -0.00000916     -0.00000903
     0.00001939     -0.00020749      0.00026399
    -0.00003920     -0.00001154     -0.00005073
     0.00102566      0.00049157      0.00090096
    -0.00223957     -0.00012470      0.00142849
    -0.01114338     -0.00215682     -0.01005682
     0.00098928     -0.00373835     -0.00199840
vibration 98
    -0.00000321     -0.00001604      0.00000406
    -0.00007281      0.00000495     -0.00025899
    -0.00006994      0.00008708     -0.00014176
     0.00075689      0.00100141      0.00002541
     0.00001155     -0.00002884      0.00003360
     0.00004465     -0.00003613      0.00007655
    -0.00000941     -0.00027262      0.00019417
    -0.00025344     -0.00042844      0.00013142
    -0.00689155      0.05520344     -0.07626921
     0.00072711      0.00138741     -0.00159723
     0.00001328      0.00000474     -0.00000257
     0.00003477      0.00000920     -0.00003592
     0.00003179     -0.00000277     -0.00005052
     0.00000606      0.00000708     -0.00004484
    -0.00000401     -0.00001781      0.00002270
     0.00001048     -0.00002607      0.00003623
     0.00040694     -0.00066478      0.00375691
    -0.24285502      0.00290416      0.18194773
     0.00091624      0.00164838      0.00208426
    -0.00045055     -0.00020152      0.00028608
    -0.00000768      0.00008307      0.00012524
    -0.00042423      0.00012517      0.00012036
    -0.00002668     -0.00011625      0.00062012
     0.21512801     -0.40584653      0.77986030
     0.10545290     -0.25400996     -0.05951833
     0.00160634     -0.00943842      0.00019475
    -0.01126469     -0.00874809      0.01633782
     0.00014055      0.00006918     -0.00015920
    -0.00183711      0.00006059      0.00086260
     0.00016766     -0.00097917      0.00132003
     0.00010108      0.00004623     -0.00031029
     0.00043454      0.00016648      0.00031191
    -0.00138071     -0.00010875      0.00081309
    -0.00428481     -0.00088698     -0.00393075
     0.00033907     -0.00106712     -0.00054816
vibration 99
     0.00008621      0.00003692     -0.00030902
     0.00000939      0.00005919     -0.00019278
     0.00000239      0.00023289     -0.00040361
    -0.00000526      0.00003483     -0.00004703
    -0.00004050     -0.00004393      0.00008606
    -0.00060296     -0.00016477      0.00045951
    -0.00000133     -0.00001391      0.00001948
    -0.00000174     -0.00001570      0.00001628
    -0.00002572      0.00033412     -0.00043102
     0.00049191      0.00072555     -0.00123452
    -0.00111793     -0.00081155     -0.00056087
    -0.00041970     -0.00021144      0.00109143
    -0.00001137     -0.00006082     -0.00002133
     0.00000094      0.00011214     -0.00008080
     0.00011665      0.00014540      0.00013017
     0.00004434      0.00123095      0.00312356
     0.00015926     -0.00042989      0.00228015
    -0.00153338      0.00000680      0.00113297
     0.00104875      0.00227993      0.00392835
     0.01015760      0.00346168     -0.00507828
     0.00057897     -0.00279930     -0.00401769
     0.00068638     -0.00003363     -0.00025198
     0.00007293      0.00011764      0.00099317
     0.00122969     -0.00232918      0.00444697
     0.00066570     -0.00164815     -0.00039424
     0.00088002     -0.00492191     -0.00007191
    -0.00746735     -0.00600022      0.01072478
    -0.00014571     -0.00000348     -0.00011351
     0.00052812     -0.00004321     -0.00036954
    -0.00002310     -0.00062058      0.00072770
     0.00136052      0.00066958      0.00116824
    -0.06944463     -0.02661841     -0.05127458
     0.20798445      0.01283400     -0.11925814
     0.68610854      0.13564493      0.63411049
    -0.05369834      0.17565595      0.09345040
[INT]
    0.110926
    2.769811
    1.134735
    0.361995
    1.345466
    2.074725
    0.131492
    0.112928
    2.151804
    0.345609
    3.129306
    1.167047
    1.558153
    3.254803
    1.340678
    2.546712
    8.034325
    0.806777
    2.427214
    1.399303
   15.789059
    1.541439
   11.860456
   10.416441
    9.361968
    4.698318
    2.917890
    0.670246
    4.529754
    2.806004
    1.920490
   20.533357
    3.856370
    5.575540
   11.183997
    9.053735
   15.583023
   14.768415
   20.152264
   18.283985
    0.577372
    3.753030
    1.556995
   74.135174
   47.914030
   14.957373
   23.893546
   41.517846
   17.160295
    0.182617
   14.741781
  226.954264
   50.961315
    4.808763
    2.157719
   28.614852
  166.442593
   62.655716
    4.434822
    4.005902
  139.366625
   22.412780
    2.694562
    7.899922
   38.496939
   18.510882
    9.346820
    9.749130
   17.932145
    0.548973
    0.757159
    2.939736
   14.702151
    2.305698
   18.511230
    5.298911
    3.045876
    6.473334
    9.121135
  272.915526
  250.561582
   13.117148
   14.803629
   12.132847
   53.915946
   20.837534
   25.814109
   35.186059
    0.219668
    6.358041
   29.235650
   26.977393
   18.661765
   37.428559
    5.788267
   20.108050
   10.851206
    9.421108
    4.124806

======= END OF MOLDEN-FORMATTED INPUT FILE =======


        *************************************************************
        *                                                           *
        *  Thank you very much for using Q-Chem.  Have a nice day.  *
        *                                                           *
        *************************************************************


