r0165.ten.osc.edu 10.25.155
Q-Chem Developer Version! Running on 10.25.155.*
                  Welcome to Q-Chem
     A Quantum Leap Into The Future Of Chemistry


 Q-Chem 5.0, Q-Chem, Inc., Pleasanton, CA (2017)

 Yihan Shao,  Zhengting Gan,  E. Epifanovsky,  A. T. B. Gilbert,  M. Wormit,  
 J. Kussmann,  A. W. Lange,  A. Behn,  Jia Deng,  Xintian Feng,  D. Ghosh,  
 M. Goldey,  P. R. Horn,  L. D. Jacobson,  I. Kaliman,  T. Kus,  A. Landau,  
 Jie Liu,  E. I. Proynov,  R. M. Richard,  R. P. Steele,  E. J. Sundstrom,  
 H. L. Woodcock III,  P. M. Zimmerman,  D. Zuev,  B. Albrecht,  E. Alguire,  
 S. A. Baeppler,  Z. Benda,  Y. A. Bernard,  E. J. Berquist,  K. B. Bravaya,  
 D. Casanova,  Chun-Min Chang,  Yunqing Chen,  A. Chien,  K. D. Closser,  
 M. P. Coons,  S. Dasgupta,  M. Diedenhofen,  Hainam Do,  R. G. Edgar,  
 Po-Tung Fang,  S. Fatehi,  Qingguo Feng,  Qinghui Ge,  A. Ghysels,  
 J. Gomes,  J. Gonthier,  A. Gunina,  M. W. D. Hanson-Heine,  
 P. H. P. Harbach,  A. W. Hauser,  J. E. Herr,  E. G. Hohenstein,  
 Z. C. Holden,  Kerwin Hui,  T.-C. Jagau,  Hyunjun Ji,  B. Kaduk,  
 K. Khistyaev,  Jaehoon Kim,  P. Klunzinger,  K. Koh,  D. Kosenkov,  
 T. Kowalczyk,  C. M. Krauter,  A. Kunitsa,  Ka Un Lao,  A. Laurent,  
 K. V. Lawler,  Joonho Lee,  D. Lefrancois,  S. Lehtola,  D. S. Levine,  
 Yi-Pei Li,  You-Sheng Lin,  Fenglai Liu,  E. Livshits,  A. Luenser,  
 P. Manohar,  E. Mansoor,  S. F. Manzer,  Shan-Ping Mao,  Yuezhi Mao,  
 N. Mardirossian,  A. V. Marenich,  L. A. Martinez-Martinez,  S. A. Maurer,  
 N. J. Mayhall,  S. C. McKenzie,  J.-M. Mewes,  A. F. Morrison,  K. Nanda,  
 T. S. Nguyen-Beck,  R. Olivares-Amaya,  J. A. Parkhill,  T. M. Perrine,  
 F. Plasser,  S. Prager,  A. Prociuk,  D. R. Rehn,  F. Rob,  M. Schneider,  
 N. Sergueev,  S. M. Sharada,  S. Sharma,  D. W. Small,  T. Stauch,  
 T. Stein,  Yu-Chuan Su,  A. J. W. Thom,  T. Tsuchimochi,  L. Vogt,  
 O. Vydrov,  M. A. Watson,  J. Wenzel,  M. de Wergifosse,  T. A. Wesolowski,  
 A. White,  J. Witte,  A. Yamada,  Jun Yang,  K. Yao,  S. Yeganeh,  
 S. R. Yost,  Zhi-Qiang You,  A. Zech,  Igor Ying Zhang,  Xing Zhang,  
 Yan Zhao,  Ying Zhu,  B. R. Brooks,  G. K. L. Chan,  C. J. Cramer,  
 M. S. Gordon,  W. J. Hehre,  A. Klamt,  M. W. Schmidt,  C. D. Sherrill,  
 D. G. Truhlar,  A. Aspuru-Guzik,  R. Baer,  A. T. Bell,  N. A. Besley,  
 Jeng-Da Chai,  A. Dreuw,  B. D. Dunietz,  T. R. Furlani,  Chao-Ping Hsu,  
 Yousung Jung,  Jing Kong,  D. S. Lambrecht,  WanZhen Liang,  C. Ochsenfeld,  
 V. A. Rassolov,  L. V. Slipchenko,  J. E. Subotnik,  T. Van Voorhis,  
 J. M. Herbert,  A. I. Krylov,  P. M. W. Gill,  M. Head-Gordon

 Contributors to earlier versions of Q-Chem not listed above: 
 R. D. Adamson,  B. Austin,  J. Baker,  G. J. O. Beran,  K. Brandhorst,  
 S. T. Brown,  E. F. C. Byrd,  A. K. Chakraborty,  C.-L. Cheng,  
 Siu Hung Chien,  D. M. Chipman,  D. L. Crittenden,  H. Dachsel,  
 R. A. DiStasio Jr.,  R. J. Doerksen,  A. D. Dutoi,  L. Fusti-Molnar,  
 W. A. Goddard III,  A. Golubeva-Zadorozhnaya,  S. R. Gwaltney,  G. Hawkins,  
 A. Heyden,  S. Hirata,  G. Kedziora,  F. J. Keil,  C. Kelley,  Jihan Kim,  
 R. A. King,  R. Z. Khaliullin,  P. P. Korambath,  W. Kurlancheek,  
 A. M. Lee,  M. S. Lee,  S. V. Levchenko,  Ching Yeh Lin,  D. Liotard,  
 R. C. Lochan,  I. Lotan,  P. E. Maslen,  N. Nair,  D. P. O'Neill,  
 D. Neuhauser,  E. Neuscamman,  C. M. Oana,  R. Olson,  B. Peters,  
 R. Peverati,  P. A. Pieniazek,  Y. M. Rhee,  J. Ritchie,  M. A. Rohrdanz,  
 E. Rosta,  N. J. Russ,  H. F. Schaefer III,  N. E. Schultz,  N. Shenvi,  
 A. C. Simmonett,  A. Sodt,  D. Stuck,  K. S. Thanthiriwatte,  V. Vanovschi,  
 Tao Wang,  A. Warshel,  C. F. Williams,  Q. Wu,  X. Xu,  W. Zhang

 Please cite Q-Chem as follows:
 Y. Shao et al., Mol. Phys. 113, 184-215 (2015)
 DOI: 10.1080/00268976.2014.952696

 Q-Chem 5.0.1 for Intel X86 EM64T Linux

 Parts of Q-Chem use Armadillo 5.200.1 (Boston Tea Smuggler).
 http://arma.sourceforge.net/

 Q-Chem begins on Sun Oct 15 23:09:42 2017  

Host: r0165.ten.osc.edu
0

     Scratch files written to /tmp/pbstmp.1310579/03//
Processing $rem in /users/PAS0291/osu6415/.qchemrc.
molden_format             true

Checking the input file for inconsistencies... 	...done.

--------------------------------------------------------------
User input:
--------------------------------------------------------------
$molecule
0 1
C 0.28807272 0.88912223 0.70619150
C 0.38455896 -0.66012358 0.90480461
C -1.03144945 1.59641051 0.46454964
C -0.82079641 -1.50435486 0.51927498
O -2.06602688 0.79190984 0.18059932
O -1.13430617 2.79889256 0.54818694
O -1.02371883 -1.58303609 -0.80571869
O -1.49332707 -2.09509048 1.33236377
C -2.17416467 -2.33375797 -1.22075444
C -3.34236266 1.43071547 -0.01167143
C 1.38816155 1.14523620 -0.41528132
C 2.74301655 1.18966678 0.32728634
C 2.87770018 -0.28545138 0.78698614
C 1.67196685 -0.96534742 0.06573552
O 1.47227158 -0.12351530 -1.07959025
H 0.63967436 1.36968347 1.62070910
H 0.54142118 -0.88659461 1.95900893
H -3.08197712 -1.89555749 -0.80232295
H -3.30970694 2.08711251 -0.88228269
H 3.53113086 1.45752624 -0.37927850
H 2.75630809 1.91287024 1.14482202
H 3.81553329 -0.72858915 0.44864270
H 2.82531824 -0.40662520 1.87111136
H -2.18421591 -2.27235493 -2.30696326
H -2.09765907 -3.37248593 -0.89457303
H -3.61355001 2.01220208 0.87001418
H -4.04922916 0.61909836 -0.16819502
C 1.91176479 -2.40489888 -0.33621464
H 2.83759858 -2.47882811 -0.91080850
H 2.00972318 -3.03228980 0.55406991
H 1.09478612 -2.78586809 -0.94771960
C 1.13137932 2.24845792 -1.41350260
H 1.95552455 2.28966305 -2.12932246
H 0.20622331 2.06759297 -1.96504929
H 1.04554573 3.21234104 -0.91040705
$end

$rem
sym_ignore      true
jobtype         ts
method          b3lyp
basis           6-311++G(d,p)
dft_d           d3_op
mem_total       62000
MEM_STATIC      4000
ao2mo_disk      350000
max_scf_cycles  200
geom_opt_max_cycles 1000
geom_opt_tol_displacement 1
GEOM_OPT_TOL_GRADIENT       1
GEOM_OPT_TOL_ENERGY         1
$end

--------------------------------------------------------------
 Adding empirical dispersion correction 
 ----------------------------------------------------------------
 Doing -D3(op) with
 s6 =   1.00000
 s8 =   0.78311
 a1 =   0.30000
 a2 =   4.25000
 n  =  10.00000
 -D3 energy without 3body term =     -0.0418050265 hartrees
 ----------------------------------------------------------------
             Standard Nuclear Orientation (Angstroms)
    I     Atom           X                Y                Z
 ----------------------------------------------------------------
    1      C       0.2880727200     0.8891222300     0.7061915000
    2      C       0.3845589600    -0.6601235800     0.9048046100
    3      C      -1.0314494500     1.5964105100     0.4645496400
    4      C      -0.8207964100    -1.5043548600     0.5192749800
    5      O      -2.0660268800     0.7919098400     0.1805993200
    6      O      -1.1343061700     2.7988925600     0.5481869400
    7      O      -1.0237188300    -1.5830360900    -0.8057186900
    8      O      -1.4933270700    -2.0950904800     1.3323637700
    9      C      -2.1741646700    -2.3337579700    -1.2207544400
   10      C      -3.3423626600     1.4307154700    -0.0116714300
   11      C       1.3881615500     1.1452362000    -0.4152813200
   12      C       2.7430165500     1.1896667800     0.3272863400
   13      C       2.8777001800    -0.2854513800     0.7869861400
   14      C       1.6719668500    -0.9653474200     0.0657355200
   15      O       1.4722715800    -0.1235153000    -1.0795902500
   16      H       0.6396743600     1.3696834700     1.6207091000
   17      H       0.5414211800    -0.8865946100     1.9590089300
   18      H      -3.0819771200    -1.8955574900    -0.8023229500
   19      H      -3.3097069400     2.0871125100    -0.8822826900
   20      H       3.5311308600     1.4575262400    -0.3792785000
   21      H       2.7563080900     1.9128702400     1.1448220200
   22      H       3.8155332900    -0.7285891500     0.4486427000
   23      H       2.8253182400    -0.4066252000     1.8711113600
   24      H      -2.1842159100    -2.2723549300    -2.3069632600
   25      H      -2.0976590700    -3.3724859300    -0.8945730300
   26      H      -3.6135500100     2.0122020800     0.8700141800
   27      H      -4.0492291600     0.6190983600    -0.1681950200
   28      C       1.9117647900    -2.4048988800    -0.3362146400
   29      H       2.8375985800    -2.4788281100    -0.9108085000
   30      H       2.0097231800    -3.0322898000     0.5540699100
   31      H       1.0947861200    -2.7858680900    -0.9477196000
   32      C       1.1313793200     2.2484579200    -1.4135026000
   33      H       1.9555245500     2.2896630500    -2.1293224600
   34      H       0.2062233100     2.0675929700    -1.9650492900
   35      H       1.0455457300     3.2123410400    -0.9104070500
 ----------------------------------------------------------------
 Nuclear Repulsion Energy =  1405.0185916134 hartrees
 There are       65 alpha and       65 beta electrons
 Requested basis set is 6-311++G(d,p)
 There are 192 shells and 500 basis functions

 Total QAlloc Memory Limit  62000 MB
 Mega-Array Size      3911 MB
 MEM_STATIC part      4000 MB
 A cutoff of  1.0D-11 yielded  15153 shell pairs
 There are    104542 function pairs (    111436 Cartesian)
 
 -------------------------------------------------------
 OpenMP Integral Computing Module                       
 Release: version 1.0, May 2013, Q-Chem Inc. Pittsburgh 
 -------------------------------------------------------
 Integral Job Info:
 Integral job number is                      11
 Integral operator is                         1
 short-range coefficients                     0
 long-range coefficients              100000000
 Omega coefficients                           0
 if combine SR and LR in K                    0
 Integral screening is                        0
 Integral computing path is                   2
 max size of driver memory is            800000
 size of driver memory is                593474
 size of scratch memory is              2361544
 max col of scratch BK array               1296
 max len of scratch array in speh3          155
 max len of scratch index in speh4           18
 max int batch size is                      520
 min int batch size is                       52
 fixed nKL is                                52
 max L of basis functions is                  2
 order of int derivative is                   0
 number of shells is                        192
 number of basis is                         517
 number of cartesian basis is               517
 number of contracted shell pairs         15153
 number of primitive shell pairs          33248
 maxK2 (contraction) of shell pair           36
 max number of K2 of shell pair               1
 max number of CS2 of shell pair           2878
 max number of PS2 of shell pair           4848
 mem total for path MDJ                  181784
 -------------------------------------------------------
 Smallest overlap matrix eigenvalue = 5.66E-07

 Q-Chem warning in module /fs/scratch/osu6415/qchem-kaunlao-vdw/stvman/mkSTV.C, line 281:

 Overlap eigenvalue is smaller than square root of threshold

 Linear dependence detected in AO basis
 Number of orthogonalized atomic orbitals = 499
 Maximum deviation from orthogonality = 1.460E-10

 Scale SEOQF with 1.000000e-01/1.000000e-01/1.000000e-01

 Standard Electronic Orientation quadrupole field applied
 Nucleus-field energy     =     0.0000000326 hartrees
 Guess from superposition of atomic densities
 Warning:  Energy on first SCF cycle will be non-variational
 A restricted hybrid HF-DFT SCF calculation will be
 performed using Pulay DIIS extrapolation
 Exchange:     0.2000 Hartree-Fock + 0.0800 Slater + 0.7200 B88
 Correlation:  0.1900 VWN1RPA + 0.8100 LYP
 Using SG-1 standard quadrature grid
 Dispersion:   Grimme D3
 SCF converges when DIIS error is below 1.0E-08
 using 20 threads for integral computing
 -------------------------------------------------------
 OpenMP Integral computing Module                
 Release: version 1.0, May 2013, Q-Chem Inc. Pittsburgh 
 -------------------------------------------------------
 -------------------------------------------------------
 OpenMP BLAS3 based DFT computing Module                
 Release: version 1.0, May 2013, Q-Chem Inc. Pittsburgh 
 -------------------------------------------------------
 ---------------------------------------
  Cycle       Energy         DIIS Error
 ---------------------------------------
    1    -847.9564861498      2.82E-02
    2    -844.1605572546      3.73E-03
    3    -843.6726217934      5.98E-03
    4    -844.4683612549      1.49E-03
    5    -844.5212405147      3.50E-04
    6    -844.5233803379      1.67E-04
    7    -844.5240144482      2.94E-05
    8    -844.5240314772      1.20E-05
    9    -844.5240348911      2.40E-06
   10    -844.5240350054      9.51E-07
   11    -844.5240350257      2.88E-07
   12    -844.5240350273      1.17E-07
   13    -844.5240350266      4.57E-08
   14    -844.5240350280      1.27E-08
   15    -844.5240350287      3.58E-09 Convergence criterion met
 ---------------------------------------
 SCF time:  CPU 1202.18 s  wall 65.87 s
 SCF   energy in the final basis set = -844.52403503
 Total energy in the final basis set = -844.52403503
 
 --------------------------------------------------------------
 
                    Orbital Energies (a.u.)
 --------------------------------------------------------------
 
 Alpha MOs
 -- Occupied --
-19.180 -19.166 -19.127 -19.118 -19.110 -10.311 -10.302 -10.243
-10.242 -10.234 -10.226 -10.207 -10.201 -10.179 -10.177 -10.167
-10.164  -1.122  -1.110  -1.062  -1.031  -1.021  -0.830  -0.805
 -0.783  -0.746  -0.729  -0.726  -0.677  -0.645  -0.601  -0.582
 -0.571  -0.565  -0.520  -0.512  -0.506  -0.491  -0.490  -0.477
 -0.475  -0.470  -0.462  -0.443  -0.430  -0.427  -0.417  -0.412
 -0.409  -0.397  -0.397  -0.376  -0.370  -0.367  -0.358  -0.356
 -0.353  -0.347  -0.332  -0.328  -0.321  -0.305  -0.288  -0.277
 -0.271
 -- Virtual --
 -0.017  -0.011  -0.006  -0.002   0.002   0.008   0.014   0.018
  0.027   0.031   0.032   0.039   0.042   0.044   0.048   0.051
  0.060   0.064   0.068   0.070   0.082   0.082   0.086   0.088
  0.093   0.098   0.100   0.104   0.106   0.109   0.112   0.117
  0.120   0.123   0.125   0.127   0.130   0.132   0.136   0.139
  0.143   0.147   0.150   0.151   0.152   0.154   0.157   0.161
  0.162   0.164   0.165   0.168   0.171   0.173   0.176   0.182
  0.184   0.187   0.190   0.195   0.197   0.201   0.204   0.204
  0.205   0.210   0.212   0.215   0.217   0.224   0.232   0.235
  0.242   0.246   0.252   0.259   0.259   0.264   0.269   0.273
  0.278   0.287   0.288   0.292   0.296   0.299   0.306   0.315
  0.318   0.321   0.329   0.330   0.333   0.338   0.340   0.345
  0.347   0.354   0.354   0.358   0.362   0.370   0.371   0.373
  0.379   0.385   0.388   0.392   0.399   0.409   0.413   0.423
  0.423   0.431   0.435   0.443   0.449   0.453   0.464   0.477
  0.483   0.496   0.504   0.512   0.518   0.521   0.533   0.535
  0.542   0.553   0.564   0.572   0.589   0.595   0.600   0.605
  0.613   0.617   0.622   0.634   0.637   0.648   0.649   0.652
  0.660   0.662   0.669   0.680   0.681   0.686   0.696   0.699
  0.708   0.711   0.719   0.725   0.731   0.731   0.739   0.744
  0.752   0.760   0.774   0.774   0.780   0.784   0.793   0.809
  0.813   0.823   0.830   0.833   0.846   0.862   0.882   0.895
  0.929   0.957   0.979   0.998   1.007   1.021   1.031   1.043
  1.052   1.073   1.083   1.102   1.112   1.135   1.142   1.148
  1.182   1.185   1.201   1.208   1.223   1.228   1.228   1.248
  1.253   1.267   1.271   1.279   1.287   1.302   1.318   1.342
  1.365   1.375   1.381   1.387   1.401   1.404   1.423   1.436
  1.439   1.451   1.469   1.476   1.482   1.495   1.501   1.510
  1.519   1.528   1.539   1.549   1.558   1.562   1.573   1.578
  1.584   1.587   1.595   1.601   1.612   1.630   1.639   1.648
  1.661   1.666   1.681   1.687   1.700   1.706   1.712   1.714
  1.721   1.727   1.733   1.738   1.744   1.760   1.768   1.773
  1.788   1.794   1.813   1.822   1.827   1.836   1.848   1.855
  1.867   1.882   1.908   1.914   1.939   1.946   1.978   1.996
  2.000   2.005   2.011   2.013   2.030   2.047   2.057   2.086
  2.090   2.108   2.116   2.122   2.141   2.157   2.169   2.183
  2.200   2.202   2.214   2.232   2.241   2.256   2.283   2.290
  2.310   2.365   2.394   2.399   2.418   2.444   2.454   2.470
  2.479   2.490   2.503   2.503   2.507   2.520   2.528   2.536
  2.540   2.550   2.565   2.576   2.582   2.588   2.599   2.606
  2.618   2.633   2.645   2.671   2.673   2.686   2.697   2.701
  2.744   2.746   2.770   2.781   2.791   2.822   2.838   2.860
  2.865   2.879   2.883   2.889   2.910   2.928   2.950   2.956
  2.987   3.009   3.024   3.030   3.041   3.056   3.070   3.083
  3.090   3.103   3.118   3.128   3.143   3.157   3.172   3.184
  3.228   3.237   3.241   3.250   3.269   3.308   3.337   3.358
  3.376   3.383   3.391   3.398   3.540   3.603   3.622   3.665
  3.673   3.691   3.759   3.774   3.784   3.818   3.828   3.835
  3.843   3.859   3.866   3.950   3.968   4.036   4.065   4.085
  4.136   4.141   4.163   4.181   4.188   4.258   4.281   4.326
  4.441   4.513   5.043   5.100   5.111   5.179   5.241   5.252
  5.267   5.447   5.462   5.528   5.639   5.653   5.687   5.892
  5.898  23.763  23.841  23.859  23.875  23.897  23.934  23.948
 23.952  23.964  23.987  23.991  24.032  49.918  49.955  50.008
 50.039  50.055
 --------------------------------------------------------------
 
          Ground-State Mulliken Net Atomic Charges

     Atom                 Charge (a.u.)
  ----------------------------------------
      1 C                     0.452414
      2 C                     0.500166
      3 C                    -0.679006
      4 C                    -0.980758
      5 O                    -0.080298
      6 O                    -0.213674
      7 O                    -0.000362
      8 O                    -0.154625
      9 C                    -0.204383
     10 C                    -0.206240
     11 C                    -0.471216
     12 C                    -0.544837
     13 C                    -0.339363
     14 C                    -0.241502
     15 O                     0.057570
     16 H                     0.265375
     17 H                     0.279974
     18 H                     0.175028
     19 H                     0.186335
     20 H                     0.172538
     21 H                     0.145350
     22 H                     0.169852
     23 H                     0.148363
     24 H                     0.164883
     25 H                     0.180057
     26 H                     0.188399
     27 H                     0.136927
     28 C                    -0.022702
     29 H                     0.172020
     30 H                     0.158030
     31 H                     0.163526
     32 C                    -0.108682
     33 H                     0.155897
     34 H                     0.175950
     35 H                     0.198995
  ----------------------------------------
  Sum of atomic charges =    -0.000000

 -----------------------------------------------------------------
                    Cartesian Multipole Moments
 -----------------------------------------------------------------
    Charge (ESU x 10^10)
                -0.0000
    Dipole Moment (Debye)
         X       0.3853      Y      -0.4003      Z      -0.8904
       Tot       1.0495
    Quadrupole Moments (Debye-Ang)
        XX     -89.8798     XY      -0.9885     YY    -108.7845
        XZ       8.8599     YZ       3.3322     ZZ    -104.2557
    Octopole Moments (Debye-Ang^2)
       XXX     -54.2167    XXY       8.9985    XYY       6.6201
       YYY     -36.0498    XXZ     -12.3879    XYZ     -13.2306
       YYZ     -26.2552    XZZ      -6.3627    YZZ       8.2075
       ZZZ      -2.9396
    Hexadecapole Moments (Debye-Ang^3)
      XXXX   -2146.8097   XXXY     -46.3793   XXYY    -672.6541
      XYYY      37.7368   YYYY   -1954.1954   XXXZ       3.3222
      XXYZ      21.3781   XYYZ      36.9955   YYYZ       5.1907
      XXZZ    -484.6460   XYZZ      -5.9327   YYZZ    -408.8170
      XZZZ      18.1494   YZZZ      10.6143   ZZZZ    -565.6974
 -----------------------------------------------------------------
 Calculating analytic gradient of the SCF energy
 Gradient of SCF Energy
            1           2           3           4           5           6
    1   0.0000902  -0.0001106   0.0000463  -0.0003745   0.0000031  -0.0000198
    2  -0.0000516  -0.0001734   0.0000026   0.0006504  -0.0000208   0.0000161
    3  -0.0004699   0.0006264  -0.0000630  -0.0001149  -0.0000124   0.0000555
            7           8           9          10          11          12
    1   0.0000117   0.0003159  -0.0000167  -0.0000063   0.0000289  -0.0000026
    2   0.0000099  -0.0004632  -0.0000072   0.0000269   0.0000241  -0.0000041
    3  -0.0000124  -0.0000522  -0.0000004  -0.0000220  -0.0000217   0.0000065
           13          14          15          16          17          18
    1  -0.0000057   0.0000048  -0.0000001   0.0000034  -0.0000181   0.0000081
    2   0.0000014   0.0000317  -0.0000266  -0.0000189   0.0000273   0.0000086
    3   0.0000422  -0.0000624   0.0000578   0.0000114   0.0000080  -0.0000251
           19          20          21          22          23          24
    1   0.0000068   0.0000051  -0.0000090  -0.0000046  -0.0000046   0.0000106
    2  -0.0000033  -0.0000056   0.0000036   0.0000035  -0.0000063   0.0000008
    3  -0.0000226   0.0000238   0.0000142   0.0000112   0.0000161  -0.0000172
           25          26          27          28          29          30
    1   0.0000081  -0.0000051  -0.0000001  -0.0000064   0.0000140  -0.0000202
    2   0.0000037  -0.0000061  -0.0000001   0.0000113  -0.0000106  -0.0000053
    3  -0.0000199  -0.0000211  -0.0000280   0.0000205   0.0000345   0.0000146
           31          32          33          34          35
    1   0.0000067   0.0000200   0.0000181   0.0000136  -0.0000109
    2  -0.0000019  -0.0000201   0.0000098  -0.0000042  -0.0000021
    3  -0.0000013   0.0000115   0.0000166  -0.0000098   0.0000052
 Max gradient component =       6.504E-04
 RMS gradient           =       1.233E-04
 Gradient time:  CPU 401.92 s  wall 28.10 s
 Geometry Optimization Parameters
   NAtoms,    NIC,     NZ,  NCons,   NDum,   NFix, NCnnct, MaxDiis
       35     275       0       0       0       0       0       0


** GEOMETRY OPTIMIZATION IN DELOCALIZED INTERNAL COORDINATES **
   Searching for a Transition State

   Optimization Cycle:   1

                       Coordinates (Angstroms)
     ATOM                X               Y               Z
      1  C         0.2880727200    0.8891222300    0.7061915000
      2  C         0.3845589600   -0.6601235800    0.9048046100
      3  C        -1.0314494500    1.5964105100    0.4645496400
      4  C        -0.8207964100   -1.5043548600    0.5192749800
      5  O        -2.0660268800    0.7919098400    0.1805993200
      6  O        -1.1343061700    2.7988925600    0.5481869400
      7  O        -1.0237188300   -1.5830360900   -0.8057186900
      8  O        -1.4933270700   -2.0950904800    1.3323637700
      9  C        -2.1741646700   -2.3337579700   -1.2207544400
     10  C        -3.3423626600    1.4307154700   -0.0116714300
     11  C         1.3881615500    1.1452362000   -0.4152813200
     12  C         2.7430165500    1.1896667800    0.3272863400
     13  C         2.8777001800   -0.2854513800    0.7869861400
     14  C         1.6719668500   -0.9653474200    0.0657355200
     15  O         1.4722715800   -0.1235153000   -1.0795902500
     16  H         0.6396743600    1.3696834700    1.6207091000
     17  H         0.5414211800   -0.8865946100    1.9590089300
     18  H        -3.0819771200   -1.8955574900   -0.8023229500
     19  H        -3.3097069400    2.0871125100   -0.8822826900
     20  H         3.5311308600    1.4575262400   -0.3792785000
     21  H         2.7563080900    1.9128702400    1.1448220200
     22  H         3.8155332900   -0.7285891500    0.4486427000
     23  H         2.8253182400   -0.4066252000    1.8711113600
     24  H        -2.1842159100   -2.2723549300   -2.3069632600
     25  H        -2.0976590700   -3.3724859300   -0.8945730300
     26  H        -3.6135500100    2.0122020800    0.8700141800
     27  H        -4.0492291600    0.6190983600   -0.1681950200
     28  C         1.9117647900   -2.4048988800   -0.3362146400
     29  H         2.8375985800   -2.4788281100   -0.9108085000
     30  H         2.0097231800   -3.0322898000    0.5540699100
     31  H         1.0947861200   -2.7858680900   -0.9477196000
     32  C         1.1313793200    2.2484579200   -1.4135026000
     33  H         1.9555245500    2.2896630500   -2.1293224600
     34  H         0.2062233100    2.0675929700   -1.9650492900
     35  H         1.0455457300    3.2123410400   -0.9104070500
   Point Group: c1    Number of degrees of freedom:    99


   Energy is   -844.524035029


 Attempting to Generate Delocalized Internal Coordinates

 99 Hessian modes will be used to form the next step
  Hessian Eigenvalues:
     0.003064    0.006366    0.006990    0.006996    0.007363    0.007883
     0.010332    0.010725    0.011009    0.011214    0.022903    0.023219
     0.023454    0.024656    0.033325    0.035998    0.037723    0.038591
     0.043532    0.044469    0.049148    0.051082    0.053574    0.056574
     0.057939    0.058547    0.058567    0.059668    0.059849    0.063059
     0.065008    0.066092    0.079485    0.085523    0.094051    0.101300
     0.101335    0.104614    0.106042    0.106106    0.111419    0.121918
     0.127752    0.155056    0.160000    0.160000    0.160000    0.160000
     0.160000    0.160000    0.160000    0.160000    0.160000    0.160000
     0.160000    0.160000    0.177889    0.225919    0.238800    0.249781
     0.249967    0.250000    0.250000    0.250000    0.250000    0.250781
     0.252318    0.256268    0.274916    0.302452    0.307057    0.309787
     0.313711    0.337970    0.344071    0.345381    0.345634    0.345653
     0.345673    0.346013    0.346298    0.346475    0.346488    0.346644
     0.346922    0.347181    0.347363    0.347629    0.348582    0.348592
     0.348960    0.350460    0.350910    0.395629    0.402724    0.565932
     0.569882    1.000644    1.002909
**WARNING** Hessian does not have the Desired Local Structure

 Transition State Search - Taking P-RFO Step
 Searching for Lamda that Maximizes Along the Lowest mode
 Value Taken    Lamda =   0.00306437
 Searching for Lamda that Minimizes Along All other modes
 Value Taken    Lamda =  -0.00004891
 Calculated Step too Large.  Step scaled by  0.002259
 Step Taken.  Stepsize is  0.300000

                             Maximum     Tolerance    Cnvgd?
         Gradient           0.000308      0.000001      NO
         Displacement       0.115025      0.000001      NO
         Energy change     *********      0.000000      NO


 New Cartesian Coordinates Obtained by Inverse Iteration

 Displacement from previous Coordinates is:  0.855002
 Adding empirical dispersion correction 
 ----------------------------------------------------------------
 Doing -D3(op) with
 s6 =   1.00000
 s8 =   0.78311
 a1 =   0.30000
 a2 =   4.25000
 n  =  10.00000
 -D3 energy without 3body term =     -0.0417113522 hartrees
 ----------------------------------------------------------------
             Standard Nuclear Orientation (Angstroms)
    I     Atom           X                Y                Z
 ----------------------------------------------------------------
    1      C       0.2910977191     0.8752152047     0.7085574394
    2      C       0.3707772688    -0.6755451440     0.9007262564
    3      C      -1.0228752386     1.6029386171     0.4995591870
    4      C      -0.8284579434    -1.5090230066     0.4748260136
    5      O      -2.0754546152     0.8150143326     0.2360226685
    6      O      -1.1059143120     2.8064520017     0.5901007162
    7      O      -0.9957758462    -1.5743564454    -0.8558552691
    8      O      -1.5262059855    -2.1031258028     1.2638563872
    9      C      -2.1388070724    -2.3143595212    -1.3088879512
   10      C      -3.3461598184     1.4734195467     0.0751361409
   11      C       1.3721487353     1.1199593385    -0.4354068441
   12      C       2.7351430627     1.1936146560     0.2872678053
   13      C       2.8591104971    -0.2590432973     0.8160805814
   14      C       1.6762243890    -0.9761211470     0.0904029571
   15      O       1.4707736798    -0.1614019762    -1.0734093242
   16      H       0.6701565898     1.3468806272     1.6167156503
   17      H       0.4988629553    -0.9117891958     1.9566734358
   18      H      -3.0551228522    -1.8745916662    -0.9111472480
   19      H      -3.3234043298     2.1328787530    -0.7934737859
   20      H       3.5166528699     1.4187154770    -0.4412092224
   21      H       2.7638576268     1.9560630348     1.0679165259
   22      H       3.8080669919    -0.7138929373     0.5280325337
   23      H       2.7731092016    -0.3308053970     1.9024545677
   24      H      -2.1190096404    -2.2429558505    -2.3943512217
   25      H      -2.0771340585    -3.3564687405    -0.9904416561
   26      H      -3.5886915908     2.0551794912     0.9649521271
   27      H      -4.0683773671     0.6730029735    -0.0684511762
   28      C       1.9473181074    -2.4188340402    -0.2790062236
   29      H       2.8821974132    -2.4874027413    -0.8394443138
   30      H       2.0441602858    -3.0263821288     0.6250561014
   31      H       1.1458438990    -2.8267728519    -0.8936239901
   32      C       1.0893890623     2.1980418891    -1.4538694666
   33      H       1.9042024141     2.2338924558    -2.1805779644
   34      H       0.1599609926     1.9938688329    -1.9898790900
   35      H       0.9975265494     3.1714668580    -0.9706011074
 ----------------------------------------------------------------
 Nuclear Repulsion Energy =  1404.6882467568 hartrees
 There are       65 alpha and       65 beta electrons
 Applying Cartesian multipole field
    Component          Value
    ---------          -----
     (2,0,0)        1.00000E-11
     (0,2,0)        2.00000E-11
     (0,0,2)       -3.00000E-11
 Nucleus-field energy     =     0.0000000322 hartrees
 Requested basis set is 6-311++G(d,p)
 There are 192 shells and 500 basis functions
 A cutoff of  1.0D-11 yielded  15156 shell pairs
 There are    104597 function pairs (    111497 Cartesian)
 Smallest overlap matrix eigenvalue = 5.83E-07

 Q-Chem warning in module /fs/scratch/osu6415/qchem-kaunlao-vdw/stvman/mkSTV.C, line 281:

 Overlap eigenvalue is smaller than square root of threshold

 Linear dependence detected in AO basis
 Number of orthogonalized atomic orbitals = 499
 Maximum deviation from orthogonality = 9.892E-11
 Guess MOs from SCF MO coefficient file
 Reading MOs from coefficient file
 Reading MOs from coefficient file
 A restricted hybrid HF-DFT SCF calculation will be
 performed using Pulay DIIS extrapolation
 Exchange:     0.2000 Hartree-Fock + 0.0800 Slater + 0.7200 B88
 Correlation:  0.1900 VWN1RPA + 0.8100 LYP
 Using SG-1 standard quadrature grid
 Dispersion:   Grimme D3
 SCF converges when DIIS error is below 1.0E-08
 Geometry optimization detected.  Setting ReadMinima to 0
 Setting SaveMinima to 0
 using 20 threads for integral computing
 -------------------------------------------------------
 OpenMP Integral computing Module                
 Release: version 1.0, May 2013, Q-Chem Inc. Pittsburgh 
 -------------------------------------------------------
 -------------------------------------------------------
 OpenMP BLAS3 based DFT computing Module                
 Release: version 1.0, May 2013, Q-Chem Inc. Pittsburgh 
 -------------------------------------------------------
 ---------------------------------------
  Cycle       Energy         DIIS Error
 ---------------------------------------
    1    -844.5173809057      9.83E-04
    2    -844.5230603263      1.58E-04
    3    -844.5221691332      2.52E-04
    4    -844.5237510331      4.34E-05
    5    -844.5237826545      2.03E-05
    6    -844.5237919708      3.66E-06
    7    -844.5237921686      2.20E-06
    8    -844.5237922720      6.18E-07
    9    -844.5237922795      2.37E-07
   10    -844.5237922810      5.62E-08
   11    -844.5237922809      1.68E-08
   12    -844.5237922751      7.19E-09 Convergence criterion met
 ---------------------------------------
 SCF time:  CPU 986.96 s  wall 53.19 s
 SCF   energy in the final basis set = -844.52379228
 Total energy in the final basis set = -844.52379228
 
 --------------------------------------------------------------
 
                    Orbital Energies (a.u.)
 --------------------------------------------------------------
 
 Alpha MOs
 -- Occupied --
-19.180 -19.166 -19.127 -19.118 -19.109 -10.311 -10.301 -10.243
-10.242 -10.234 -10.225 -10.207 -10.201 -10.179 -10.177 -10.168
-10.164  -1.122  -1.110  -1.062  -1.031  -1.021  -0.830  -0.805
 -0.783  -0.746  -0.728  -0.726  -0.677  -0.645  -0.601  -0.581
 -0.571  -0.564  -0.520  -0.512  -0.506  -0.491  -0.490  -0.477
 -0.476  -0.469  -0.462  -0.442  -0.430  -0.427  -0.416  -0.412
 -0.409  -0.397  -0.397  -0.376  -0.370  -0.367  -0.358  -0.357
 -0.353  -0.346  -0.332  -0.328  -0.321  -0.306  -0.288  -0.277
 -0.271
 -- Virtual --
 -0.017  -0.011  -0.006  -0.002   0.002   0.007   0.013   0.018
  0.027   0.031   0.032   0.039   0.041   0.044   0.048   0.051
  0.059   0.064   0.068   0.071   0.082   0.082   0.085   0.088
  0.093   0.098   0.099   0.105   0.106   0.109   0.112   0.117
  0.120   0.123   0.125   0.127   0.130   0.131   0.136   0.139
  0.142   0.147   0.150   0.151   0.151   0.154   0.157   0.161
  0.162   0.163   0.165   0.168   0.172   0.172   0.176   0.181
  0.184   0.186   0.189   0.195   0.196   0.200   0.203   0.204
  0.205   0.211   0.212   0.215   0.216   0.223   0.232   0.236
  0.242   0.245   0.252   0.258   0.260   0.265   0.270   0.273
  0.277   0.286   0.289   0.293   0.296   0.300   0.307   0.314
  0.317   0.321   0.327   0.330   0.332   0.337   0.339   0.346
  0.348   0.353   0.354   0.358   0.362   0.369   0.370   0.372
  0.379   0.385   0.389   0.392   0.399   0.409   0.414   0.422
  0.425   0.433   0.434   0.443   0.448   0.452   0.464   0.478
  0.483   0.497   0.504   0.514   0.518   0.522   0.532   0.536
  0.541   0.555   0.565   0.571   0.590   0.595   0.600   0.605
  0.612   0.618   0.623   0.635   0.638   0.646   0.650   0.651
  0.660   0.663   0.670   0.679   0.683   0.687   0.695   0.701
  0.708   0.709   0.717   0.725   0.730   0.734   0.739   0.745
  0.753   0.758   0.772   0.776   0.783   0.783   0.791   0.806
  0.813   0.822   0.833   0.834   0.846   0.862   0.883   0.895
  0.929   0.959   0.977   0.994   1.009   1.024   1.032   1.043
  1.053   1.073   1.083   1.100   1.115   1.129   1.137   1.153
  1.181   1.185   1.196   1.206   1.219   1.227   1.230   1.245
  1.253   1.267   1.273   1.281   1.287   1.304   1.318   1.343
  1.366   1.377   1.381   1.388   1.398   1.407   1.424   1.432
  1.439   1.450   1.464   1.474   1.483   1.493   1.500   1.506
  1.518   1.528   1.539   1.547   1.559   1.563   1.571   1.579
  1.582   1.587   1.593   1.601   1.611   1.629   1.640   1.652
  1.661   1.664   1.681   1.687   1.701   1.704   1.714   1.716
  1.717   1.729   1.737   1.740   1.745   1.762   1.769   1.777
  1.787   1.793   1.815   1.823   1.825   1.834   1.843   1.857
  1.864   1.882   1.908   1.914   1.939   1.945   1.975   1.992
  1.997   2.007   2.010   2.013   2.028   2.049   2.055   2.083
  2.094   2.110   2.117   2.123   2.141   2.158   2.170   2.181
  2.202   2.203   2.219   2.231   2.239   2.256   2.282   2.292
  2.315   2.362   2.392   2.395   2.421   2.440   2.452   2.469
  2.477   2.491   2.502   2.505   2.508   2.519   2.528   2.537
  2.538   2.551   2.565   2.576   2.583   2.588   2.599   2.606
  2.619   2.633   2.645   2.669   2.674   2.682   2.700   2.701
  2.743   2.745   2.767   2.780   2.792   2.823   2.840   2.861
  2.865   2.879   2.883   2.891   2.910   2.924   2.951   2.954
  2.985   3.011   3.022   3.033   3.038   3.053   3.067   3.085
  3.095   3.109   3.119   3.125   3.146   3.158   3.167   3.183
  3.229   3.239   3.243   3.252   3.269   3.305   3.340   3.365
  3.377   3.384   3.394   3.399   3.543   3.603   3.625   3.665
  3.675   3.690   3.757   3.774   3.785   3.818   3.827   3.834
  3.842   3.859   3.865   3.946   3.969   4.037   4.068   4.087
  4.134   4.141   4.162   4.180   4.191   4.256   4.280   4.328
  4.439   4.513   5.045   5.099   5.109   5.177   5.243   5.252
  5.269   5.444   5.464   5.531   5.638   5.656   5.683   5.891
  5.898  23.766  23.841  23.858  23.874  23.895  23.933  23.949
 23.953  23.966  23.985  23.992  24.028  49.917  49.956  50.011
 50.040  50.055
 --------------------------------------------------------------
 
          Ground-State Mulliken Net Atomic Charges

     Atom                 Charge (a.u.)
  ----------------------------------------
      1 C                     0.464984
      2 C                     0.494670
      3 C                    -0.691300
      4 C                    -0.983344
      5 O                    -0.072258
      6 O                    -0.214213
      7 O                    -0.010878
      8 O                    -0.156133
      9 C                    -0.200221
     10 C                    -0.211416
     11 C                    -0.468131
     12 C                    -0.546641
     13 C                    -0.334988
     14 C                    -0.243420
     15 O                     0.063596
     16 H                     0.267940
     17 H                     0.279257
     18 H                     0.173133
     19 H                     0.187081
     20 H                     0.170436
     21 H                     0.147850
     22 H                     0.171571
     23 H                     0.150877
     24 H                     0.163357
     25 H                     0.179431
     26 H                     0.187039
     27 H                     0.141797
     28 C                    -0.034341
     29 H                     0.171629
     30 H                     0.157759
     31 H                     0.162422
     32 C                    -0.094723
     33 H                     0.157691
     34 H                     0.171865
     35 H                     0.197622
  ----------------------------------------
  Sum of atomic charges =    -0.000000

 -----------------------------------------------------------------
                    Cartesian Multipole Moments
 -----------------------------------------------------------------
    Charge (ESU x 10^10)
                -0.0000
    Dipole Moment (Debye)
         X       0.4004      Y      -0.3586      Z      -0.8678
       Tot       1.0208
    Quadrupole Moments (Debye-Ang)
        XX     -90.0738     XY      -1.5161     YY    -108.9269
        XZ       8.7212     YZ       3.1170     ZZ    -103.7978
    Octopole Moments (Debye-Ang^2)
       XXX     -53.4224    XXY      10.6865    XYY       6.5229
       YYY     -35.4430    XXZ     -11.5956    XYZ     -13.8213
       YYZ     -26.3477    XZZ      -7.0415    YZZ       7.2529
       ZZZ      -2.3964
    Hexadecapole Moments (Debye-Ang^3)
      XXXX   -2135.8772   XXXY     -40.8453   XXYY    -670.1672
      XYYY      43.9386   YYYY   -1953.1212   XXXZ       3.1710
      XXYZ      19.4803   XYYZ      37.9000   YYYZ      -6.5304
      XXZZ    -484.4144   XYZZ      -0.1385   YYZZ    -409.1643
      XZZZ      18.8000   YZZZ      -0.9059   ZZZZ    -576.2289
 -----------------------------------------------------------------
 Calculating analytic gradient of the SCF energy
 Gradient of SCF Energy
            1           2           3           4           5           6
    1   0.0010281  -0.0006958  -0.0001402  -0.0002781  -0.0004679  -0.0000318
    2   0.0005495  -0.0006961   0.0001215   0.0008615   0.0009575  -0.0000612
    3   0.0007144  -0.0004289  -0.0001718  -0.0003240   0.0004196   0.0000950
            7           8           9          10          11          12
    1   0.0006069   0.0000484   0.0001764   0.0001253  -0.0013930   0.0006557
    2  -0.0010040  -0.0003632   0.0001374   0.0001412  -0.0005779  -0.0001363
    3  -0.0002233  -0.0000168  -0.0000411   0.0001246   0.0004811  -0.0008278
           13          14          15          16          17          18
    1  -0.0011062   0.0013057  -0.0005386  -0.0000626  -0.0000686   0.0000386
    2   0.0002113   0.0000385  -0.0003087   0.0000627  -0.0000999  -0.0000170
    3   0.0008531   0.0000386   0.0000181  -0.0000129  -0.0001950  -0.0000232
           19          20          21          22          23          24
    1   0.0000121   0.0001302   0.0000359  -0.0000466  -0.0000476  -0.0000156
    2  -0.0000384   0.0000852   0.0000539  -0.0000673   0.0000817  -0.0000037
    3  -0.0000338   0.0001241  -0.0003622  -0.0001308  -0.0000621  -0.0000228
           25          26          27          28          29          30
    1  -0.0000049  -0.0000435  -0.0000490   0.0002390   0.0000795   0.0000303
    2   0.0000172  -0.0000014   0.0000750  -0.0002077  -0.0000044  -0.0000379
    3  -0.0000007  -0.0000263  -0.0000425  -0.0001697   0.0001212   0.0000472
           31          32          33          34          35
    1   0.0002273   0.0001631   0.0000499   0.0001320  -0.0000944
    2   0.0000886  -0.0000091   0.0000030   0.0001050   0.0000433
    3   0.0000828  -0.0000082   0.0000392  -0.0000210  -0.0000140
 Max gradient component =       1.393E-03
 RMS gradient           =       3.819E-04
 Gradient time:  CPU 402.18 s  wall 28.11 s
 Geometry Optimization Parameters
   NAtoms,    NIC,     NZ,  NCons,   NDum,   NFix, NCnnct, MaxDiis
       35     275       0       0       0       0       0       0

 Cartesian Hessian Update
 Hessian Updated using Powell/Murtagh-Sargent Update
  Mixing factors:     0.000021 Powell
                      0.999979 Murtagh-Sargent


** GEOMETRY OPTIMIZATION IN DELOCALIZED INTERNAL COORDINATES **
   Searching for a Transition State

   Optimization Cycle:   2

                       Coordinates (Angstroms)
     ATOM                X               Y               Z
      1  C         0.2910977191    0.8752152047    0.7085574394
      2  C         0.3707772688   -0.6755451440    0.9007262564
      3  C        -1.0228752386    1.6029386171    0.4995591870
      4  C        -0.8284579434   -1.5090230066    0.4748260136
      5  O        -2.0754546152    0.8150143326    0.2360226685
      6  O        -1.1059143120    2.8064520017    0.5901007162
      7  O        -0.9957758462   -1.5743564454   -0.8558552691
      8  O        -1.5262059855   -2.1031258028    1.2638563872
      9  C        -2.1388070724   -2.3143595212   -1.3088879512
     10  C        -3.3461598184    1.4734195467    0.0751361409
     11  C         1.3721487353    1.1199593385   -0.4354068441
     12  C         2.7351430627    1.1936146560    0.2872678053
     13  C         2.8591104971   -0.2590432973    0.8160805814
     14  C         1.6762243890   -0.9761211470    0.0904029571
     15  O         1.4707736798   -0.1614019762   -1.0734093242
     16  H         0.6701565898    1.3468806272    1.6167156503
     17  H         0.4988629553   -0.9117891958    1.9566734358
     18  H        -3.0551228522   -1.8745916662   -0.9111472480
     19  H        -3.3234043298    2.1328787530   -0.7934737859
     20  H         3.5166528699    1.4187154770   -0.4412092224
     21  H         2.7638576268    1.9560630348    1.0679165259
     22  H         3.8080669919   -0.7138929373    0.5280325337
     23  H         2.7731092016   -0.3308053970    1.9024545677
     24  H        -2.1190096404   -2.2429558505   -2.3943512217
     25  H        -2.0771340585   -3.3564687405   -0.9904416561
     26  H        -3.5886915908    2.0551794912    0.9649521271
     27  H        -4.0683773671    0.6730029735   -0.0684511762
     28  C         1.9473181074   -2.4188340402   -0.2790062236
     29  H         2.8821974132   -2.4874027413   -0.8394443138
     30  H         2.0441602858   -3.0263821288    0.6250561014
     31  H         1.1458438990   -2.8267728519   -0.8936239901
     32  C         1.0893890623    2.1980418891   -1.4538694666
     33  H         1.9042024141    2.2338924558   -2.1805779644
     34  H         0.1599609926    1.9938688329   -1.9898790900
     35  H         0.9975265494    3.1714668580   -0.9706011074
   Point Group: c1    Number of degrees of freedom:    99


   Energy is   -844.523792275

 Hessian Updated using Powell/Murtagh-Sargent Update
  Mixing factors:     0.980201 Powell
                      0.019799 Murtagh-Sargent

 95 Hessian modes will be used to form the next step
  Hessian Eigenvalues:
    -0.000920    0.006773    0.006994    0.007361    0.007879    0.009035
     0.010332    0.011009    0.011071    0.012848    0.023037    0.023219
     0.023459    0.024761    0.033342    0.036058    0.037733    0.038699
     0.043546    0.044574    0.049236    0.051101    0.053584    0.056579
     0.057939    0.058547    0.058989    0.059673    0.059849    0.063176
     0.065013    0.066099    0.079492    0.085673    0.094073    0.101300
     0.101336    0.104628    0.106042    0.106107    0.111558    0.122322
     0.127880    0.155933    0.160000    0.160000    0.160000    0.160000
     0.160000    0.160000    0.160000    0.160000    0.160014    0.178091
     0.225956    0.238982    0.249781    0.249967    0.250000    0.250000
     0.250697    0.251252    0.252319    0.256301    0.274921    0.302453
     0.307189    0.309794    0.313712    0.337981    0.344072    0.345381
     0.345635    0.345653    0.345674    0.346013    0.346304    0.346475
     0.346488    0.346644    0.346922    0.347181    0.347363    0.347629
     0.348583    0.348627    0.348968    0.350460    0.350910    0.395629
     0.402729    0.565935    0.569902    1.000644    1.002910

 Transition State Search - Taking P-RFO Step
 Searching for Lamda that Maximizes Along the Lowest mode
 Value Taken    Lamda =   0.00000308
 Searching for Lamda that Minimizes Along All other modes
 Value Taken    Lamda =  -0.00052824
 Step Taken.  Stepsize is  0.172224

                             Maximum     Tolerance    Cnvgd?
         Gradient           0.004507      0.000001      NO
         Displacement       0.069950      0.000001      NO
         Energy change      0.000243      0.000000      NO


 New Cartesian Coordinates Obtained by Inverse Iteration

 Displacement from previous Coordinates is:  0.806551
 Adding empirical dispersion correction 
 ----------------------------------------------------------------
 Doing -D3(op) with
 s6 =   1.00000
 s8 =   0.78311
 a1 =   0.30000
 a2 =   4.25000
 n  =  10.00000
 -D3 energy without 3body term =     -0.0420197954 hartrees
 ----------------------------------------------------------------
             Standard Nuclear Orientation (Angstroms)
    I     Atom           X                Y                Z
 ----------------------------------------------------------------
    1      C       0.2978229821     0.8761328817     0.7134874048
    2      C       0.3924996643    -0.6719606784     0.9086216414
    3      C      -1.0259524400     1.5771995038     0.4828112791
    4      C      -0.8139022701    -1.5083250042     0.5091168464
    5      O      -2.0505333566     0.7649326420     0.1841387261
    6      O      -1.1364262361     2.7789383542     0.5675448500
    7      O      -1.0354320684    -1.5421980505    -0.8147002784
    8      O      -1.5021926872    -2.0905932190     1.3150293138
    9      C      -2.2055617467    -2.2581955944    -1.2364445449
   10      C      -3.3320813284     1.3913078406    -0.0140986373
   11      C       1.3870116264     1.1340314434    -0.4198988017
   12      C       2.7486992636     1.1939227009     0.3076992498
   13      C       2.8790385868    -0.2699095447     0.8038121607
   14      C       1.6858877263    -0.9701265816     0.0785303634
   15      O       1.4807238690    -0.1392176226    -1.0740038071
   16      H       0.6598009368     1.3542221411     1.6252495348
   17      H       0.5380551258    -0.9048102801     1.9632037907
   18      H      -3.0992830301    -1.8160109284    -0.7925557468
   19      H      -3.2995562804     2.0545547378    -0.8795276386
   20      H       3.5289660843     1.4351478729    -0.4168926623
   21      H       2.7773308138     1.9396214974     1.1046159381
   22      H       3.8251717221    -0.7194606349     0.4987557020
   23      H       2.8025355295    -0.3630918404     1.8893358992
   24      H      -2.2285615342    -2.1633974132    -2.3200425089
   25      H      -2.1447240316    -3.3076940019    -0.9430472112
   26      H      -3.6167025292     1.9632357157     0.8696002757
   27      H      -4.0284934398     0.5730012429    -0.1822975810
   28      C       1.9421957105    -2.4100313699    -0.3109695120
   29      H       2.8698033907    -2.4787757191    -0.8833197957
   30      H       2.0447149221    -3.0290022759     0.5846263633
   31      H       1.1303657085    -2.8046939535    -0.9209844850
   32      C       1.1092346420     2.2251031155    -1.4257259972
   33      H       1.9248184620     2.2667724412    -2.1512523561
   34      H       0.1795141079     2.0301598274    -1.9648292315
   35      H       1.0204017441     3.1929429543    -0.9308873034
 ----------------------------------------------------------------
 Nuclear Repulsion Energy =  1407.3993681563 hartrees
 There are       65 alpha and       65 beta electrons
 Applying Cartesian multipole field
    Component          Value
    ---------          -----
     (2,0,0)        1.00000E-11
     (0,2,0)        2.00000E-11
     (0,0,2)       -3.00000E-11
 Nucleus-field energy     =     0.0000000320 hartrees
 Requested basis set is 6-311++G(d,p)
 There are 192 shells and 500 basis functions
 A cutoff of  1.0D-11 yielded  15184 shell pairs
 There are    104789 function pairs (    111716 Cartesian)
 Smallest overlap matrix eigenvalue = 5.77E-07

 Q-Chem warning in module /fs/scratch/osu6415/qchem-kaunlao-vdw/stvman/mkSTV.C, line 281:

 Overlap eigenvalue is smaller than square root of threshold

 Linear dependence detected in AO basis
 Number of orthogonalized atomic orbitals = 499
 Maximum deviation from orthogonality = 1.344E-10
 Guess MOs from SCF MO coefficient file
 Reading MOs from coefficient file
 Reading MOs from coefficient file
 A restricted hybrid HF-DFT SCF calculation will be
 performed using Pulay DIIS extrapolation
 Exchange:     0.2000 Hartree-Fock + 0.0800 Slater + 0.7200 B88
 Correlation:  0.1900 VWN1RPA + 0.8100 LYP
 Using SG-1 standard quadrature grid
 Dispersion:   Grimme D3
 SCF converges when DIIS error is below 1.0E-08
 Geometry optimization detected.  Setting ReadMinima to 0
 Setting SaveMinima to 0
 using 20 threads for integral computing
 -------------------------------------------------------
 OpenMP Integral computing Module                
 Release: version 1.0, May 2013, Q-Chem Inc. Pittsburgh 
 -------------------------------------------------------
 -------------------------------------------------------
 OpenMP BLAS3 based DFT computing Module                
 Release: version 1.0, May 2013, Q-Chem Inc. Pittsburgh 
 -------------------------------------------------------
 ---------------------------------------
  Cycle       Energy         DIIS Error
 ---------------------------------------
    1    -844.5176385684      7.81E-04
    2    -844.5234237915      9.49E-05
    3    -844.5232992806      1.26E-04
    4    -844.5236813914      2.65E-05
    5    -844.5236919503      1.43E-05
    6    -844.5236965108      3.25E-06
    7    -844.5236967005      1.64E-06
    8    -844.5236967613      3.90E-07
    9    -844.5236967645      1.81E-07
   10    -844.5236967658      5.67E-08
   11    -844.5236967661      1.98E-08
   12    -844.5236967620      5.44E-09 Convergence criterion met
 ---------------------------------------
 SCF time:  CPU 979.46 s  wall 51.59 s
 SCF   energy in the final basis set = -844.52369676
 Total energy in the final basis set = -844.52369676
 
 --------------------------------------------------------------
 
                    Orbital Energies (a.u.)
 --------------------------------------------------------------
 
 Alpha MOs
 -- Occupied --
-19.180 -19.165 -19.127 -19.118 -19.110 -10.311 -10.301 -10.243
-10.242 -10.234 -10.226 -10.207 -10.201 -10.179 -10.177 -10.168
-10.165  -1.122  -1.109  -1.063  -1.031  -1.021  -0.830  -0.805
 -0.783  -0.746  -0.729  -0.727  -0.677  -0.645  -0.601  -0.582
 -0.571  -0.564  -0.520  -0.513  -0.507  -0.491  -0.490  -0.477
 -0.475  -0.470  -0.462  -0.443  -0.430  -0.427  -0.417  -0.412
 -0.409  -0.397  -0.397  -0.376  -0.370  -0.367  -0.359  -0.357
 -0.353  -0.347  -0.332  -0.328  -0.322  -0.304  -0.288  -0.277
 -0.271
 -- Virtual --
 -0.017  -0.011  -0.006  -0.002   0.002   0.008   0.014   0.018
  0.026   0.031   0.032   0.039   0.042   0.045   0.048   0.051
  0.059   0.064   0.069   0.070   0.082   0.082   0.086   0.088
  0.092   0.099   0.099   0.104   0.106   0.109   0.111   0.117
  0.120   0.123   0.125   0.127   0.130   0.132   0.136   0.138
  0.142   0.148   0.150   0.152   0.152   0.154   0.157   0.160
  0.162   0.163   0.165   0.168   0.171   0.173   0.176   0.182
  0.184   0.187   0.190   0.195   0.197   0.200   0.203   0.204
  0.205   0.210   0.212   0.217   0.217   0.223   0.233   0.236
  0.241   0.246   0.252   0.258   0.260   0.266   0.269   0.273
  0.278   0.287   0.288   0.293   0.297   0.300   0.307   0.315
  0.319   0.322   0.328   0.330   0.332   0.338   0.339   0.345
  0.347   0.354   0.354   0.359   0.363   0.370   0.370   0.372
  0.379   0.385   0.390   0.393   0.398   0.410   0.413   0.423
  0.425   0.431   0.433   0.443   0.448   0.454   0.465   0.477
  0.484   0.496   0.504   0.512   0.516   0.523   0.532   0.535
  0.542   0.555   0.563   0.572   0.590   0.595   0.599   0.605
  0.614   0.617   0.623   0.635   0.638   0.648   0.650   0.653
  0.661   0.662   0.670   0.679   0.682   0.687   0.699   0.700
  0.708   0.711   0.717   0.726   0.730   0.732   0.740   0.743
  0.753   0.759   0.773   0.776   0.781   0.785   0.791   0.811
  0.815   0.824   0.832   0.834   0.847   0.862   0.880   0.895
  0.927   0.961   0.976   0.997   1.008   1.024   1.032   1.042
  1.051   1.074   1.083   1.106   1.114   1.133   1.145   1.149
  1.183   1.188   1.197   1.207   1.221   1.227   1.229   1.246
  1.254   1.265   1.271   1.280   1.287   1.301   1.319   1.344
  1.366   1.377   1.380   1.390   1.403   1.404   1.423   1.437
  1.441   1.452   1.466   1.478   1.483   1.497   1.504   1.507
  1.518   1.528   1.538   1.552   1.558   1.562   1.575   1.579
  1.584   1.589   1.596   1.602   1.612   1.631   1.641   1.651
  1.661   1.665   1.680   1.685   1.701   1.706   1.713   1.715
  1.720   1.728   1.737   1.742   1.744   1.759   1.766   1.776
  1.789   1.793   1.813   1.823   1.829   1.835   1.846   1.858
  1.867   1.882   1.908   1.915   1.940   1.946   1.978   1.995
  1.997   2.004   2.009   2.015   2.028   2.050   2.056   2.086
  2.092   2.109   2.117   2.123   2.141   2.160   2.168   2.183
  2.200   2.203   2.217   2.233   2.242   2.257   2.283   2.292
  2.314   2.363   2.393   2.397   2.420   2.442   2.458   2.469
  2.479   2.491   2.502   2.503   2.509   2.519   2.528   2.536
  2.542   2.551   2.567   2.574   2.583   2.588   2.600   2.605
  2.618   2.632   2.645   2.670   2.673   2.688   2.700   2.704
  2.743   2.745   2.767   2.780   2.793   2.824   2.838   2.863
  2.867   2.878   2.885   2.890   2.911   2.926   2.949   2.954
  2.986   3.010   3.024   3.030   3.037   3.055   3.069   3.082
  3.092   3.108   3.120   3.125   3.145   3.158   3.167   3.183
  3.230   3.237   3.245   3.254   3.270   3.307   3.338   3.363
  3.376   3.384   3.393   3.399   3.542   3.604   3.623   3.667
  3.675   3.690   3.755   3.774   3.783   3.818   3.827   3.834
  3.841   3.860   3.870   3.947   3.970   4.037   4.064   4.089
  4.136   4.141   4.164   4.183   4.189   4.256   4.281   4.326
  4.440   4.513   5.042   5.102   5.113   5.179   5.242   5.252
  5.269   5.450   5.468   5.529   5.640   5.654   5.685   5.892
  5.900  23.765  23.843  23.860  23.876  23.896  23.935  23.948
 23.953  23.966  23.986  23.991  24.029  49.919  49.958  50.009
 50.040  50.058
 --------------------------------------------------------------
 
          Ground-State Mulliken Net Atomic Charges

     Atom                 Charge (a.u.)
  ----------------------------------------
      1 C                     0.454798
      2 C                     0.455511
      3 C                    -0.681452
      4 C                    -0.948518
      5 O                    -0.088163
      6 O                    -0.214065
      7 O                     0.009577
      8 O                    -0.156761
      9 C                    -0.204983
     10 C                    -0.202390
     11 C                    -0.462583
     12 C                    -0.543527
     13 C                    -0.344489
     14 C                    -0.228789
     15 O                     0.058229
     16 H                     0.268323
     17 H                     0.279465
     18 H                     0.175134
     19 H                     0.186086
     20 H                     0.171164
     21 H                     0.147002
     22 H                     0.171723
     23 H                     0.148879
     24 H                     0.164790
     25 H                     0.179044
     26 H                     0.188609
     27 H                     0.134548
     28 C                    -0.041762
     29 H                     0.171716
     30 H                     0.158011
     31 H                     0.163045
     32 C                    -0.098516
     33 H                     0.156912
     34 H                     0.175485
     35 H                     0.197947
  ----------------------------------------
  Sum of atomic charges =    -0.000000

 -----------------------------------------------------------------
                    Cartesian Multipole Moments
 -----------------------------------------------------------------
    Charge (ESU x 10^10)
                -0.0000
    Dipole Moment (Debye)
         X       0.4164      Y      -0.3791      Z      -0.9030
       Tot       1.0642
    Quadrupole Moments (Debye-Ang)
        XX     -89.8755     XY      -1.0208     YY    -109.0227
        XZ       8.9388     YZ       3.1040     ZZ    -104.1433
    Octopole Moments (Debye-Ang^2)
       XXX     -54.2299    XXY       8.7506    XYY       7.5284
       YYY     -34.1759    XXZ     -12.6539    XYZ     -13.0801
       YYZ     -26.1147    XZZ      -6.7664    YZZ       8.3179
       ZZZ      -3.1725
    Hexadecapole Moments (Debye-Ang^3)
      XXXX   -2157.7454   XXXY     -44.6762   XXYY    -670.4692
      XYYY      36.3126   YYYY   -1918.0213   XXXZ       0.4027
      XXYZ      21.8885   XYYZ      35.6563   YYYZ       5.3229
      XXZZ    -486.3055   XYZZ      -5.0814   YYZZ    -404.1960
      XZZZ      13.9359   YZZZ      11.0737   ZZZZ    -568.6582
 -----------------------------------------------------------------
 Calculating analytic gradient of the SCF energy
 Gradient of SCF Energy
            1           2           3           4           5           6
    1   0.0004779  -0.0009707  -0.0004346   0.0030799   0.0009894   0.0003630
    2  -0.0002116   0.0014694  -0.0002707  -0.0037350  -0.0021093   0.0002444
    3  -0.0007553   0.0005303   0.0020383   0.0000957  -0.0010592  -0.0007437
            7           8           9          10          11          12
    1  -0.0021918  -0.0012004  -0.0003302  -0.0002538  -0.0002393   0.0003390
    2   0.0031999   0.0016152  -0.0000652  -0.0001129   0.0001542   0.0001691
    3   0.0003276  -0.0000535  -0.0000854  -0.0002058   0.0003358  -0.0002676
           13          14          15          16          17          18
    1  -0.0003361   0.0000900   0.0001751   0.0000701  -0.0003793  -0.0001024
    2   0.0000735  -0.0000816   0.0003612  -0.0002061  -0.0000832   0.0000944
    3   0.0000497  -0.0003390  -0.0000168   0.0000586   0.0000662  -0.0000345
           19          20          21          22          23          24
    1  -0.0000116   0.0000158   0.0001704   0.0000171  -0.0002120  -0.0000065
    2   0.0000134  -0.0001803   0.0001603  -0.0001238   0.0000571   0.0000275
    3   0.0000067   0.0000021  -0.0001503   0.0001779  -0.0000178   0.0000087
           25          26          27          28          29          30
    1   0.0000913   0.0000790   0.0000806   0.0002411   0.0000622   0.0000160
    2  -0.0000422  -0.0000078  -0.0001718  -0.0002831   0.0000369   0.0000027
    3  -0.0000000  -0.0000107  -0.0000828  -0.0000721   0.0001023   0.0000480
           31          32          33          34          35
    1   0.0003133   0.0000271   0.0000058  -0.0000392   0.0000038
    2   0.0000681  -0.0000463   0.0000090   0.0000133  -0.0000388
    3   0.0001176  -0.0000233  -0.0000055  -0.0000544   0.0000122
 Max gradient component =       3.735E-03
 RMS gradient           =       7.586E-04
 Gradient time:  CPU 404.41 s  wall 27.85 s
 Geometry Optimization Parameters
   NAtoms,    NIC,     NZ,  NCons,   NDum,   NFix, NCnnct, MaxDiis
       35     275       0       0       0       0       0       0

 Cartesian Hessian Update
 Hessian Updated using Powell/Murtagh-Sargent Update
  Mixing factors:     0.642101 Powell
                      0.357899 Murtagh-Sargent


** GEOMETRY OPTIMIZATION IN DELOCALIZED INTERNAL COORDINATES **
   Searching for a Transition State

   Optimization Cycle:   3

                       Coordinates (Angstroms)
     ATOM                X               Y               Z
      1  C         0.2978229821    0.8761328817    0.7134874048
      2  C         0.3924996643   -0.6719606784    0.9086216414
      3  C        -1.0259524400    1.5771995038    0.4828112791
      4  C        -0.8139022701   -1.5083250042    0.5091168464
      5  O        -2.0505333566    0.7649326420    0.1841387261
      6  O        -1.1364262361    2.7789383542    0.5675448500
      7  O        -1.0354320684   -1.5421980505   -0.8147002784
      8  O        -1.5021926872   -2.0905932190    1.3150293138
      9  C        -2.2055617467   -2.2581955944   -1.2364445449
     10  C        -3.3320813284    1.3913078406   -0.0140986373
     11  C         1.3870116264    1.1340314434   -0.4198988017
     12  C         2.7486992636    1.1939227009    0.3076992498
     13  C         2.8790385868   -0.2699095447    0.8038121607
     14  C         1.6858877263   -0.9701265816    0.0785303634
     15  O         1.4807238690   -0.1392176226   -1.0740038071
     16  H         0.6598009368    1.3542221411    1.6252495348
     17  H         0.5380551258   -0.9048102801    1.9632037907
     18  H        -3.0992830301   -1.8160109284   -0.7925557468
     19  H        -3.2995562804    2.0545547378   -0.8795276386
     20  H         3.5289660843    1.4351478729   -0.4168926623
     21  H         2.7773308138    1.9396214974    1.1046159381
     22  H         3.8251717221   -0.7194606349    0.4987557020
     23  H         2.8025355295   -0.3630918404    1.8893358992
     24  H        -2.2285615342   -2.1633974132   -2.3200425089
     25  H        -2.1447240316   -3.3076940019   -0.9430472112
     26  H        -3.6167025292    1.9632357157    0.8696002757
     27  H        -4.0284934398    0.5730012429   -0.1822975810
     28  C         1.9421957105   -2.4100313699   -0.3109695120
     29  H         2.8698033907   -2.4787757191   -0.8833197957
     30  H         2.0447149221   -3.0290022759    0.5846263633
     31  H         1.1303657085   -2.8046939535   -0.9209844850
     32  C         1.1092346420    2.2251031155   -1.4257259972
     33  H         1.9248184620    2.2667724412   -2.1512523561
     34  H         0.1795141079    2.0301598274   -1.9648292315
     35  H         1.0204017441    3.1929429543   -0.9308873034
   Point Group: c1    Number of degrees of freedom:    99


   Energy is   -844.523696762

 Hessian Updated using Powell/Murtagh-Sargent Update
  Mixing factors:     0.871224 Powell
                      0.128776 Murtagh-Sargent

 89 Hessian modes will be used to form the next step
  Hessian Eigenvalues:
    -0.025385    0.005888    0.006992    0.007261    0.007483    0.007884
     0.010332    0.011009    0.011159    0.019603    0.023204    0.023449
     0.023970    0.031145    0.034953    0.037063    0.037924    0.039371
     0.044064    0.044888    0.051068    0.052165    0.053991    0.056591
     0.057939    0.058547    0.059656    0.059849    0.060306    0.064112
     0.065356    0.066141    0.079805    0.085569    0.094446    0.101301
     0.101338    0.104929    0.106042    0.106106    0.112718    0.125570
     0.128782    0.159974    0.160000    0.160002    0.171451    0.180543
     0.226812    0.239904    0.249784    0.249968    0.250000    0.250007
     0.250771    0.252261    0.255752    0.273305    0.274996    0.302458
     0.309647    0.309934    0.313712    0.338072    0.344072    0.345381
     0.345639    0.345653    0.345674    0.346013    0.346304    0.346480
     0.346489    0.346644    0.346922    0.347181    0.347363    0.347629
     0.348583    0.348950    0.349292    0.350461    0.350915    0.395629
     0.402775    0.565935    0.570235    1.000650    1.002915

 Transition State Search - Taking P-RFO Step
 Searching for Lamda that Maximizes Along the Lowest mode
 Value Taken    Lamda =   0.00042029
 Searching for Lamda that Minimizes Along All other modes
 Value Taken    Lamda =  -0.00084820
 Step Taken.  Stepsize is  0.163479

                             Maximum     Tolerance    Cnvgd?
         Gradient           0.010613      0.000001      NO
         Displacement       0.056506      0.000001      NO
         Energy change      0.000096      0.000000      NO


 New Cartesian Coordinates Obtained by Inverse Iteration

 Displacement from previous Coordinates is:  0.548009
 Adding empirical dispersion correction 
 ----------------------------------------------------------------
 Doing -D3(op) with
 s6 =   1.00000
 s8 =   0.78311
 a1 =   0.30000
 a2 =   4.25000
 n  =  10.00000
 -D3 energy without 3body term =     -0.0418858858 hartrees
 ----------------------------------------------------------------
             Standard Nuclear Orientation (Angstroms)
    I     Atom           X                Y                Z
 ----------------------------------------------------------------
    1      C       0.2978213204     0.8765939342     0.7112046876
    2      C       0.3778673337    -0.6716929616     0.9052993835
    3      C      -1.0198503858     1.5942455264     0.4993741870
    4      C      -0.8278720145    -1.4979844935     0.4831759126
    5      O      -2.0589718486     0.7931901790     0.2212208067
    6      O      -1.1161420900     2.7966221114     0.5920566731
    7      O      -1.0135441954    -1.5462949449    -0.8456099084
    8      O      -1.5138815742    -2.1034537832     1.2737612534
    9      C      -2.1618387070    -2.2828178594    -1.2915273770
   10      C      -3.3375062289     1.4330512320     0.0482669494
   11      C       1.3795852476     1.1248224738    -0.4322230580
   12      C       2.7430275637     1.1949639689     0.2898223399
   13      C       2.8656606473    -0.2595039965     0.8153495929
   14      C       1.6789459315    -0.9730507822     0.0899740504
   15      O       1.4768635470    -0.1553065454    -1.0723528757
   16      H       0.6783429886     1.3471505283     1.6193395487
   17      H       0.5058218292    -0.9108599186     1.9608694981
   18      H      -3.0731940194    -1.8498522315    -0.8752770401
   19      H      -3.3152671705     2.0958475720    -0.8178485554
   20      H       3.5214144318     1.4154355616    -0.4433155073
   21      H       2.7789148298     1.9569943989     1.0710707828
   22      H       3.8154289453    -0.7160681133     0.5329440997
   23      H       2.7743997294    -0.3305693518     1.9014699769
   24      H      -2.1574313170    -2.1975942542    -2.3761573005
   25      H      -2.0938738102    -3.3288043313    -0.9873790500
   26      H      -3.5983735585     2.0080606764     0.9372814929
   27      H      -4.0456730415     0.6220586203    -0.1056173670
   28      C       1.9409265398    -2.4159996115    -0.2831253743
   29      H       2.8722962402    -2.4888505718    -0.8488013442
   30      H       2.0383105601    -3.0257192891     0.6193110398
   31      H       1.1335662335    -2.8183170703    -0.8945207340
   32      C       1.0924373607     2.2032204273    -1.4489057025
   33      H       1.9044343618     2.2404788634    -2.1786723850
   34      H       0.1610604294     1.9976470479    -1.9812903507
   35      H       1.0014835307     3.1760891884    -0.9644671053
 ----------------------------------------------------------------
 Nuclear Repulsion Energy =  1406.4797489668 hartrees
 There are       65 alpha and       65 beta electrons
 Applying Cartesian multipole field
    Component          Value
    ---------          -----
     (2,0,0)        1.00000E-11
     (0,2,0)        2.00000E-11
     (0,0,2)       -3.00000E-11
 Nucleus-field energy     =     0.0000000319 hartrees
 Requested basis set is 6-311++G(d,p)
 There are 192 shells and 500 basis functions
 A cutoff of  1.0D-11 yielded  15174 shell pairs
 There are    104729 function pairs (    111647 Cartesian)
 Smallest overlap matrix eigenvalue = 5.88E-07

 Q-Chem warning in module /fs/scratch/osu6415/qchem-kaunlao-vdw/stvman/mkSTV.C, line 281:

 Overlap eigenvalue is smaller than square root of threshold

 Linear dependence detected in AO basis
 Number of orthogonalized atomic orbitals = 499
 Maximum deviation from orthogonality = 1.684E-10
 Guess MOs from SCF MO coefficient file
 Reading MOs from coefficient file
 Reading MOs from coefficient file
 A restricted hybrid HF-DFT SCF calculation will be
 performed using Pulay DIIS extrapolation
 Exchange:     0.2000 Hartree-Fock + 0.0800 Slater + 0.7200 B88
 Correlation:  0.1900 VWN1RPA + 0.8100 LYP
 Using SG-1 standard quadrature grid
 Dispersion:   Grimme D3
 SCF converges when DIIS error is below 1.0E-08
 Geometry optimization detected.  Setting ReadMinima to 0
 Setting SaveMinima to 0
 using 20 threads for integral computing
 -------------------------------------------------------
 OpenMP Integral computing Module                
 Release: version 1.0, May 2013, Q-Chem Inc. Pittsburgh 
 -------------------------------------------------------
 -------------------------------------------------------
 OpenMP BLAS3 based DFT computing Module                
 Release: version 1.0, May 2013, Q-Chem Inc. Pittsburgh 
 -------------------------------------------------------
 ---------------------------------------
  Cycle       Energy         DIIS Error
 ---------------------------------------
    1    -844.5188483085      5.70E-04
    2    -844.5236722861      7.22E-05
    3    -844.5235240808      1.10E-04
    4    -844.5238192417      2.68E-05
    5    -844.5238321211      1.10E-05
    6    -844.5238349337      2.05E-06
    7    -844.5238350008      1.29E-06
    8    -844.5238350370      3.81E-07
    9    -844.5238350399      1.35E-07
   10    -844.5238350403      3.71E-08
   11    -844.5238350416      1.35E-08
   12    -844.5238350383      4.21E-09 Convergence criterion met
 ---------------------------------------
 SCF time:  CPU 986.23 s  wall 52.49 s
 SCF   energy in the final basis set = -844.52383504
 Total energy in the final basis set = -844.52383504
 
 --------------------------------------------------------------
 
                    Orbital Energies (a.u.)
 --------------------------------------------------------------
 
 Alpha MOs
 -- Occupied --
-19.180 -19.165 -19.127 -19.118 -19.109 -10.311 -10.301 -10.243
-10.242 -10.234 -10.225 -10.206 -10.201 -10.179 -10.177 -10.168
-10.165  -1.122  -1.109  -1.063  -1.031  -1.020  -0.831  -0.805
 -0.783  -0.746  -0.728  -0.727  -0.677  -0.645  -0.601  -0.581
 -0.571  -0.564  -0.520  -0.513  -0.507  -0.491  -0.490  -0.477
 -0.475  -0.470  -0.462  -0.443  -0.430  -0.427  -0.416  -0.412
 -0.409  -0.397  -0.397  -0.376  -0.370  -0.367  -0.359  -0.357
 -0.353  -0.346  -0.332  -0.328  -0.322  -0.305  -0.288  -0.276
 -0.271
 -- Virtual --
 -0.017  -0.011  -0.006  -0.001   0.003   0.008   0.013   0.018
  0.027   0.031   0.032   0.039   0.042   0.044   0.048   0.051
  0.059   0.064   0.069   0.071   0.082   0.082   0.086   0.088
  0.093   0.098   0.099   0.105   0.106   0.109   0.112   0.117
  0.120   0.123   0.125   0.127   0.130   0.132   0.136   0.139
  0.142   0.148   0.150   0.151   0.152   0.154   0.157   0.161
  0.162   0.163   0.165   0.168   0.171   0.172   0.176   0.181
  0.184   0.187   0.190   0.195   0.196   0.200   0.204   0.204
  0.205   0.210   0.212   0.216   0.216   0.223   0.233   0.236
  0.242   0.246   0.252   0.258   0.260   0.266   0.270   0.273
  0.278   0.286   0.289   0.293   0.297   0.300   0.307   0.315
  0.318   0.322   0.328   0.330   0.332   0.337   0.339   0.346
  0.348   0.353   0.354   0.359   0.363   0.370   0.370   0.372
  0.379   0.385   0.390   0.392   0.400   0.410   0.414   0.424
  0.425   0.433   0.433   0.443   0.449   0.453   0.465   0.478
  0.483   0.497   0.504   0.513   0.518   0.523   0.532   0.536
  0.541   0.555   0.564   0.571   0.590   0.595   0.600   0.605
  0.613   0.618   0.624   0.635   0.638   0.647   0.651   0.652
  0.660   0.663   0.670   0.680   0.682   0.687   0.697   0.700
  0.708   0.709   0.718   0.725   0.730   0.733   0.739   0.744
  0.753   0.758   0.772   0.776   0.783   0.785   0.791   0.807
  0.815   0.822   0.834   0.834   0.847   0.862   0.882   0.895
  0.928   0.961   0.976   0.994   1.009   1.026   1.032   1.043
  1.052   1.073   1.082   1.102   1.115   1.132   1.142   1.149
  1.182   1.185   1.195   1.207   1.220   1.227   1.231   1.246
  1.254   1.266   1.272   1.281   1.288   1.304   1.318   1.343
  1.368   1.378   1.380   1.389   1.402   1.406   1.424   1.436
  1.439   1.451   1.466   1.478   1.483   1.495   1.502   1.507
  1.519   1.529   1.539   1.550   1.559   1.563   1.573   1.579
  1.583   1.588   1.594   1.602   1.612   1.630   1.641   1.652
  1.661   1.664   1.681   1.686   1.701   1.705   1.714   1.716
  1.718   1.729   1.739   1.740   1.746   1.762   1.768   1.777
  1.787   1.792   1.814   1.823   1.826   1.833   1.843   1.858
  1.865   1.882   1.908   1.914   1.940   1.946   1.979   1.992
  1.997   2.005   2.010   2.014   2.027   2.050   2.055   2.083
  2.094   2.110   2.118   2.124   2.142   2.159   2.171   2.182
  2.202   2.204   2.219   2.231   2.241   2.257   2.282   2.293
  2.317   2.361   2.392   2.395   2.421   2.440   2.455   2.469
  2.478   2.491   2.503   2.504   2.508   2.519   2.528   2.537
  2.540   2.552   2.566   2.576   2.584   2.588   2.600   2.606
  2.619   2.633   2.644   2.669   2.674   2.684   2.701   2.703
  2.742   2.745   2.768   2.779   2.793   2.824   2.840   2.862
  2.865   2.879   2.884   2.890   2.911   2.924   2.949   2.954
  2.986   3.012   3.022   3.032   3.038   3.053   3.067   3.085
  3.094   3.110   3.120   3.124   3.148   3.158   3.165   3.183
  3.231   3.237   3.243   3.254   3.271   3.307   3.340   3.366
  3.377   3.384   3.395   3.399   3.544   3.603   3.625   3.667
  3.676   3.691   3.757   3.774   3.784   3.818   3.827   3.834
  3.841   3.859   3.866   3.945   3.971   4.037   4.067   4.089
  4.135   4.141   4.163   4.182   4.191   4.255   4.281   4.328
  4.439   4.514   5.044   5.101   5.111   5.179   5.243   5.252
  5.269   5.448   5.465   5.531   5.639   5.655   5.683   5.892
  5.899  23.766  23.843  23.859  23.876  23.896  23.934  23.949
 23.953  23.967  23.985  23.992  24.028  49.917  49.958  50.011
 50.041  50.057
 --------------------------------------------------------------
 
          Ground-State Mulliken Net Atomic Charges

     Atom                 Charge (a.u.)
  ----------------------------------------
      1 C                     0.455670
      2 C                     0.470067
      3 C                    -0.686889
      4 C                    -0.971363
      5 O                    -0.077088
      6 O                    -0.214688
      7 O                    -0.003353
      8 O                    -0.153945
      9 C                    -0.200014
     10 C                    -0.207138
     11 C                    -0.461838
     12 C                    -0.547968
     13 C                    -0.339403
     14 C                    -0.240212
     15 O                     0.061589
     16 H                     0.269412
     17 H                     0.278985
     18 H                     0.173317
     19 H                     0.187016
     20 H                     0.170137
     21 H                     0.148129
     22 H                     0.173091
     23 H                     0.150154
     24 H                     0.163901
     25 H                     0.179378
     26 H                     0.187686
     27 H                     0.139412
     28 C                    -0.034362
     29 H                     0.172181
     30 H                     0.157568
     31 H                     0.162800
     32 C                    -0.090077
     33 H                     0.157798
     34 H                     0.172850
     35 H                     0.197197
  ----------------------------------------
  Sum of atomic charges =    -0.000000

 -----------------------------------------------------------------
                    Cartesian Multipole Moments
 -----------------------------------------------------------------
    Charge (ESU x 10^10)
                -0.0000
    Dipole Moment (Debye)
         X       0.3990      Y      -0.3505      Z      -0.8873
       Tot       1.0340
    Quadrupole Moments (Debye-Ang)
        XX     -89.9783     XY      -1.3216     YY    -109.1147
        XZ       8.7825     YZ       3.0646     ZZ    -103.8741
    Octopole Moments (Debye-Ang^2)
       XXX     -53.8448    XXY       9.8154    XYY       7.1399
       YYY     -34.9783    XXZ     -11.8454    XYZ     -13.4866
       YYZ     -26.4960    XZZ      -7.0868    YZZ       7.3997
       ZZZ      -2.7406
    Hexadecapole Moments (Debye-Ang^3)
      XXXX   -2141.0218   XXXY     -42.8850   XXYY    -669.4115
      XYYY      39.9045   YYYY   -1934.9817   XXXZ       1.5848
      XXYZ      20.0733   XYYZ      37.1187   YYYZ      -3.0688
      XXZZ    -484.7084   XYZZ      -1.8545   YYZZ    -406.6716
      XZZZ      16.1806   YZZZ       2.5901   ZZZZ    -574.8104
 -----------------------------------------------------------------
 Calculating analytic gradient of the SCF energy
 Gradient of SCF Energy
            1           2           3           4           5           6
    1   0.0001528   0.0001953  -0.0004795  -0.0010639   0.0004605   0.0003274
    2  -0.0002657  -0.0006942  -0.0000923   0.0018682  -0.0008635   0.0003119
    3  -0.0003950   0.0003307   0.0004052   0.0001458  -0.0001585  -0.0000460
            7           8           9          10          11          12
    1   0.0000079   0.0003758  -0.0001163  -0.0000583  -0.0004688   0.0002316
    2   0.0001423  -0.0003514  -0.0000567   0.0000228   0.0000049   0.0002331
    3   0.0000852  -0.0002805  -0.0000299  -0.0000687   0.0001428  -0.0001407
           13          14          15          16          17          18
    1  -0.0001702   0.0003007   0.0001047   0.0004231  -0.0004673   0.0000258
    2   0.0001664   0.0002538   0.0001450  -0.0004823  -0.0003357   0.0000321
    3  -0.0000952   0.0002023  -0.0000819   0.0000586   0.0000547  -0.0000033
           19          20          21          22          23          24
[...]
    -0.00008734     -0.00010223      0.00011659
     0.00013847      0.00003608      0.00003970
     0.00004081     -0.00002738      0.00010150
     0.00086689     -0.00061796     -0.00051827
     0.01779105     -0.02255699     -0.04839190
    -0.04783834      0.01828524      0.05085472
    -0.00052832      0.00040226      0.00038170
    -0.00006531      0.00016947      0.00015897
     0.04914208      0.06592758      0.12715733
     0.01503025     -0.01765528      0.08876886
    -0.00151395      0.00067555      0.00069892
    -0.00003051      0.00082496     -0.00128722
    -0.21903298     -0.07325278      0.18570497
     0.00054278      0.33864778      0.39154839
     0.54771583     -0.25825411     -0.19250906
     0.01966645      0.04478699     -0.41494274
    -0.00006718      0.00004216     -0.00141199
    -0.00001869     -0.00122216      0.00031774
    -0.00003146     -0.00006060     -0.00005024
    -0.00035588     -0.00039255     -0.00000958
     0.00824265      0.00477960     -0.01003791
    -0.09074734      0.00626071      0.05299008
     0.00982768     -0.05757796      0.08232124
    -0.01529000     -0.00728258     -0.01629165
    -0.00549201      0.00116136      0.00189964
     0.03623421      0.00073510     -0.02930879
     0.02715135      0.00646254      0.01818114
     0.00061083     -0.02122062     -0.01129864
vibration 90
    -0.00102285     -0.00149260     -0.00260597
     0.00021146     -0.00004368     -0.00096676
    -0.00003263     -0.00002029     -0.00005528
     0.00015881     -0.00003607      0.00018496
     0.00002576      0.00002457     -0.00000289
    -0.00000292      0.00003226      0.00002436
     0.00003478     -0.00003801     -0.00006612
    -0.00001897      0.00003473     -0.00004212
    -0.00037025      0.00077329     -0.00017573
     0.00005087      0.00000868      0.00000816
     0.00022097     -0.00001763     -0.00020988
     0.00825300     -0.00745701     -0.01879691
    -0.00013055      0.00037020     -0.00180437
    -0.00094906     -0.00020678      0.00163468
     0.00001862      0.00028212     -0.00024484
     0.01206119      0.01661169      0.03145661
     0.00153330     -0.00192070      0.00785315
     0.00396313     -0.00182504     -0.00205115
    -0.00001324      0.00022193     -0.00031578
    -0.09979225     -0.03319485      0.08587632
     0.00030818      0.12064278      0.13825577
     0.00416751     -0.00034775     -0.00030232
    -0.00137733     -0.00389307      0.01876921
    -0.00017613      0.00002849      0.00192687
     0.00065356     -0.00738478      0.00239702
    -0.00006769      0.00019431      0.00023365
    -0.00037577     -0.00047472     -0.00002969
    -0.04242082     -0.02420808      0.07509612
     0.61950542     -0.05159393     -0.36766213
    -0.06338519      0.36592061     -0.52133636
    -0.04871363     -0.02321930     -0.01268755
    -0.00499948      0.00041375      0.00112422
     0.03092077      0.00077747     -0.02564202
     0.02848689      0.00620402      0.01848225
    -0.00006672     -0.01205528     -0.00617804
vibration 91
    -0.00325264     -0.00529975     -0.00869973
    -0.01056301      0.01364056     -0.06969486
     0.00007780     -0.00053450     -0.00008448
     0.00112722      0.00116881     -0.00174349
    -0.00005139      0.00005466      0.00000637
    -0.00003041      0.00019726     -0.00003245
     0.00002770     -0.00000528      0.00025662
    -0.00033416     -0.00039574      0.00066991
     0.00018341      0.00031952      0.00029781
     0.00011633     -0.00008670      0.00015056
    -0.00048981     -0.00019019      0.00046123
    -0.01601904      0.01146374      0.03320288
    -0.01486934      0.00577319      0.01237505
    -0.00093497      0.00026835      0.00014569
     0.00008674     -0.00016769      0.00023575
     0.04232133      0.05910031      0.10719151
     0.12505860     -0.16175791      0.82389973
    -0.00190771      0.00062320      0.00053996
    -0.00006172      0.00149820     -0.00230417
     0.19338995      0.06494697     -0.16682803
    -0.00065602     -0.20008363     -0.22838970
     0.17336618     -0.08231505     -0.06011546
     0.00402548      0.01179252     -0.08648221
    -0.00029976      0.00023106     -0.00515972
     0.00004806     -0.00443752      0.00110376
    -0.00029827      0.00053009      0.00059636
    -0.00101208     -0.00101787     -0.00011883
    -0.00252632     -0.00097094      0.00839007
     0.06546691     -0.00645975     -0.03869298
    -0.00490017      0.03051589     -0.04467816
    -0.02837909     -0.01277506     -0.01865455
     0.01742385     -0.00020344     -0.00233708
    -0.09913372     -0.00212961      0.08345684
    -0.10968392     -0.02295760     -0.06953831
     0.00138846      0.02790287      0.01401088
vibration 92
    -0.00173646     -0.00266755     -0.00553196
    -0.00350461      0.00456608     -0.02276567
     0.00011578      0.00039452     -0.00024391
     0.00030009      0.00038679     -0.00066384
    -0.00004076     -0.00005419     -0.00002214
    -0.00000597     -0.00019778      0.00020992
     0.00002055      0.00000427      0.00014587
    -0.00009936     -0.00013657      0.00025707
     0.00074806     -0.00091355      0.00013543
    -0.00013406     -0.00029076      0.00081454
    -0.00182456     -0.00073084      0.00040398
     0.00187006     -0.00267227     -0.00480183
     0.00980435     -0.00324172     -0.01443339
     0.00006356      0.00025225     -0.00051329
     0.00018279     -0.00001451      0.00025274
     0.02455516      0.03403842      0.06441834
     0.04058095     -0.05324513      0.27003750
    -0.00812358      0.00378309      0.00388693
     0.00013170      0.00443785     -0.00678861
    -0.01668864     -0.00729468      0.01738841
    -0.00014754      0.03798650      0.04264324
    -0.10973440      0.05225335      0.03821854
    -0.00700824     -0.01378535      0.13417227
     0.00006750      0.00000392     -0.00275242
    -0.00073788      0.00725584     -0.00247458
     0.00074715     -0.00248346     -0.00311392
     0.00130484      0.00155716      0.00030041
     0.00341771      0.00205435     -0.00555850
    -0.04588664      0.00390394      0.02763763
     0.00519556     -0.02903275      0.04064820
    -0.00017938      0.00035045     -0.00132307
    -0.08616002     -0.00571082      0.00740627
     0.48603697      0.01213013     -0.41579454
     0.56025285      0.11427579      0.35166596
    -0.01397595     -0.05772328     -0.02739588
vibration 93
    -0.00391350     -0.00545101     -0.00945440
    -0.00484931      0.00612934     -0.03065776
    -0.00024000     -0.00030177     -0.00005150
     0.00035969      0.00048025     -0.00085142
     0.00010440      0.00005196      0.00001055
     0.00003406      0.00009494     -0.00000465
     0.00002262      0.00004644      0.00021879
    -0.00011538     -0.00016563      0.00033452
    -0.00149464      0.00229764      0.00052227
    -0.00001702      0.00023066      0.00034600
     0.00142784     -0.00078612     -0.00107399
     0.02423581     -0.01812706     -0.05132342
     0.03132437     -0.01035842     -0.04312979
     0.00051735      0.00064114     -0.00136541
    -0.00022624      0.00000814      0.00078580
     0.04496393      0.06325720      0.11846758
     0.05393305     -0.07203467      0.36607232
     0.01650515     -0.00799131     -0.00824177
     0.00000836      0.00084836     -0.00128167
    -0.29824170     -0.10004083      0.25722397
     0.00137074      0.31395670      0.35807663
    -0.35514465      0.16916883      0.12366694
    -0.02073966     -0.04386800      0.39275240
    -0.00032893      0.00069467     -0.00397660
     0.00156372     -0.01989418      0.00640016
     0.00082577     -0.00240344     -0.00314163
    -0.00083126     -0.00097021     -0.00004729
     0.00517144      0.00342057     -0.01223503
    -0.09119881      0.00851145      0.05477089
     0.01029484     -0.05896798      0.08244234
     0.01803492      0.00887472      0.01102568
     0.02663685      0.00644364      0.00145289
    -0.13887038     -0.00353559      0.12164249
    -0.19088170     -0.03769585     -0.11768602
     0.00907541     -0.03533914     -0.01943503
vibration 94
    -0.00016997     -0.00016453     -0.00025740
     0.00001899     -0.00004166     -0.00079783
     0.00020888      0.00008185      0.00004628
    -0.00010282      0.00013656     -0.00004518
    -0.00011055     -0.00000708     -0.00002927
    -0.00004533     -0.00003919     -0.00000392
    -0.00008541      0.00027438      0.00006844
    -0.00006990      0.00014006      0.00005956
     0.05276076     -0.07833625     -0.00564289
    -0.00044312     -0.00190718     -0.00153144
     0.00009356     -0.00004647     -0.00006900
     0.00069790     -0.00054966     -0.00150951
     0.00075636     -0.00023164     -0.00107916
     0.00002554     -0.00000373     -0.00000702
    -0.00002020      0.00004472      0.00002423
     0.00112574      0.00167571      0.00317519
     0.00137822     -0.00176030      0.00923906
    -0.57798968      0.27339422      0.28470968
    -0.00015040     -0.00089415      0.00078408
    -0.00870279     -0.00285836      0.00740875
     0.00006887      0.00945651      0.01077242
    -0.00848687      0.00410916      0.00297970
    -0.00052258     -0.00112705      0.00980990
     0.01052152     -0.01579437      0.00012467
    -0.05733944      0.66903982     -0.21872584
    -0.00462964      0.01216033      0.01643107
     0.00965951      0.01122094      0.00090118
    -0.00171814     -0.00022851     -0.00042551
     0.00935830     -0.00059865     -0.00582839
    -0.00005860     -0.00177890      0.00246721
     0.01055449      0.00503823      0.00853233
     0.00182764      0.00036912      0.00006564
    -0.00959522     -0.00023195      0.00829497
    -0.01294159     -0.00257526     -0.00809849
     0.00057277     -0.00150793     -0.00087938
vibration 95
     0.00003451     -0.00005992     -0.00032195
    -0.00007584      0.00008048     -0.00037588
    -0.00006685     -0.00001674      0.00017757
     0.00003709      0.00004280     -0.00018608
    -0.00006137     -0.00002297      0.00040139
    -0.00004888      0.00001242      0.00013515
     0.00002609     -0.00001645      0.00007125
    -0.00004599     -0.00002403      0.00006965
    -0.00096338      0.00105272      0.00063219
     0.01463376     -0.00197449     -0.09391002
     0.00001658     -0.00000223      0.00003000
     0.00005920     -0.00008901     -0.00017471
     0.00010898     -0.00002596     -0.00020501
     0.00000955      0.00001384     -0.00002486
     0.00000132     -0.00001099      0.00001821
     0.00025344      0.00064892      0.00122300
     0.00077075     -0.00092101      0.00456318
     0.01098296     -0.00508417     -0.00548213
    -0.01509402     -0.38160253      0.58304786
    -0.00068264     -0.00023764      0.00063435
     0.00000630      0.00124611      0.00140209
    -0.00119585      0.00054448      0.00040937
    -0.00009719     -0.00022583      0.00206070
    -0.00028090      0.00074330     -0.00486982
     0.00072850     -0.00785273      0.00272493
    -0.13978139      0.42958297      0.54707009
    -0.01773735     -0.02419788     -0.02014933
     0.00028272      0.00007076      0.00004290
    -0.00147964      0.00013813      0.00095483
     0.00007859     -0.00006973      0.00008882
    -0.00201698     -0.00090589     -0.00153493
    -0.00066724      0.00074046      0.00070384
     0.00601804      0.00026093     -0.00482070
     0.00119348      0.00043884      0.00109493
     0.00071973     -0.00953010     -0.00484100
vibration 96
    -0.00039323     -0.00063048     -0.00078923
    -0.00010254      0.00014529     -0.00080249
    -0.00016299     -0.00036606     -0.00008889
    -0.00000987      0.00002283     -0.00011186
     0.00012533      0.00010086      0.00006145
     0.00025403      0.00020136     -0.00009917
     0.00000936      0.00000223      0.00004262
    -0.00000636     -0.00001036      0.00003105
     0.00006268     -0.00015645      0.00021644
     0.00017131      0.00016864     -0.00103547
    -0.00006830     -0.00103502     -0.00164389
     0.00238312     -0.00203319     -0.00495971
     0.00127810     -0.00049955     -0.00173693
     0.00002533      0.00025363     -0.00022837
    -0.00002906      0.00051651      0.00026493
     0.00400745      0.00620225      0.01283063
     0.00128797     -0.00197445      0.01035495
    -0.00048197      0.00017207      0.00026344
    -0.00012960     -0.00487363      0.00739870
    -0.02774423     -0.00966883      0.02346263
     0.00066853      0.03330464      0.03917234
    -0.01486396      0.00748952      0.00508772
    -0.00072589     -0.00184654      0.01683949
     0.00004759      0.00018758     -0.00240214
    -0.00017939      0.00151136     -0.00044728
    -0.00129661      0.00389220      0.00499594
    -0.00082694     -0.00099047     -0.00027774
     0.00076958      0.00012674      0.00009250
    -0.00464908      0.00046695      0.00290259
     0.00015723     -0.00003280     -0.00014395
    -0.00469536     -0.00204637     -0.00359835
     0.00022504     -0.06799791     -0.06169801
    -0.23376326     -0.01768181      0.18140272
     0.29920297      0.04521933      0.16722285
    -0.07137176      0.78510979      0.39680575
vibration 97
    -0.00000799     -0.00012236     -0.00013787
    -0.00008156      0.00018941     -0.00153965
    -0.00005207     -0.00005778     -0.00001957
     0.00007039     -0.00005168     -0.00024737
     0.00002019      0.00002790      0.00000793
     0.00001218      0.00002496      0.00000248
    -0.00046534      0.00027052      0.00010720
     0.00002195      0.00000586      0.00002666
    -0.00065396      0.00156523     -0.00017876
     0.00011905      0.00011307     -0.00025220
    -0.00003135     -0.00014242     -0.00000756
    -0.00019423      0.00015415      0.00026192
    -0.00182865      0.00108455      0.00234480
    -0.00166366      0.00005458     -0.00076550
     0.00017603     -0.00008991      0.00015240
     0.00068153      0.00124337      0.00198583
     0.00247694     -0.00327078      0.01827411
     0.00663156     -0.00334582     -0.00356676
    -0.00004478     -0.00119728      0.00186048
     0.00253875      0.00062929     -0.00204028
     0.00025607     -0.00192956     -0.00147378
     0.02667409     -0.01068247     -0.00837160
     0.00089142      0.00158940     -0.01656608
    -0.00019982      0.00018767      0.00156493
     0.00161112     -0.01477567      0.00471525
    -0.00030881      0.00101479      0.00122819
    -0.00094480     -0.00115780     -0.00016295
    -0.07778008     -0.01221821     -0.04637851
     0.24712737     -0.02043246     -0.16964916
     0.00891784     -0.15521380      0.21631729
     0.68480352      0.31572925      0.50969396
    -0.00046023     -0.00057338     -0.00049529
     0.00039810     -0.00008212     -0.00059037
     0.00597750      0.00098988      0.00359765
    -0.00068333      0.00603084      0.00304125
vibration 98
    -0.00002394     -0.00000510     -0.00001770
    -0.00011563      0.00003762     -0.00027072
     0.00005809      0.00000786     -0.00000361
     0.00099159      0.00079374     -0.00028044
    -0.00001532     -0.00000129      0.00001916
    -0.00001100     -0.00001371      0.00000104
    -0.00000363     -0.00011003      0.00034822
    -0.00039306     -0.00032027      0.00022547
     0.01736766      0.01852521     -0.09080260
    -0.00169856     -0.00345874     -0.00078460
     0.00001400     -0.00000993     -0.00002639
     0.00005383     -0.00001933     -0.00008694
     0.00007989     -0.00002671     -0.00010764
     0.00002439     -0.00000821     -0.00005072
    -0.00001310     -0.00000841      0.00003176
     0.00007537      0.00007287      0.00025397
     0.00068153     -0.00078420      0.00414989
    -0.24765255      0.13088348      0.10387335
    -0.00007631      0.00342816     -0.00703949
    -0.00069986     -0.00022505      0.00058690
     0.00001966      0.00046225      0.00052277
    -0.00106678      0.00044192      0.00033991
    -0.00002095     -0.00010046      0.00108982
     0.00060373     -0.06550993      0.89806122
     0.03590831     -0.28754495      0.07288882
    -0.00383554      0.00979957      0.01399832
     0.02368130      0.02768439      0.00198883
     0.00038775      0.00013237     -0.00005369
    -0.00262166      0.00019429      0.00158610
     0.00031860     -0.00070638      0.00114332
    -0.00239110     -0.00101101     -0.00220731
    -0.00001582     -0.00014115     -0.00016012
    -0.00074858     -0.00007214      0.00060472
     0.00096593      0.00009591      0.00050472
    -0.00010233      0.00163592      0.00082933
vibration 99
    -0.00004732      0.00001377     -0.00009173
    -0.00000343      0.00001448      0.00003337
     0.00076112     -0.00100213      0.00015721
    -0.00014695     -0.00011395     -0.00002553
     0.00013098      0.00034687     -0.00000630
    -0.00021247      0.00048908     -0.00003538
     0.00003515      0.00002654      0.00002344
     0.00006425      0.00003854     -0.00001494
    -0.00206617      0.00060437      0.00383361
    -0.04316053     -0.08398554     -0.00514818
     0.00001624     -0.00002189     -0.00001997
     0.00001738     -0.00001984     -0.00004826
     0.00002789     -0.00001322     -0.00000862
    -0.00000225     -0.00000392      0.00000677
    -0.00000422      0.00002656      0.00000319
     0.00037325      0.00068288      0.00110459
    -0.00005430      0.00013592     -0.00038240
     0.02507725     -0.01226525     -0.01155651
     0.00049041      0.14165013     -0.25536598
    -0.00028614     -0.00007326      0.00020969
     0.00003222      0.00037038      0.00043007
    -0.00032067      0.00018675      0.00012363
     0.00001063     -0.00000154     -0.00005904
    -0.00021317      0.00285215     -0.03424659
    -0.00031727      0.00189676      0.00018866
    -0.07348414      0.17861945      0.26128370
     0.57965351      0.67758158      0.05437312
    -0.00011002     -0.00003386     -0.00004402
     0.00038219     -0.00000765     -0.00022872
    -0.00002850     -0.00001104      0.00001781
     0.00094548      0.00046828      0.00076293
     0.00025872     -0.00008982     -0.00009783
    -0.00180094     -0.00002531      0.00142732
    -0.00138774     -0.00037965     -0.00103193
     0.00002995      0.00152435      0.00072812
[INT]
    3.016991
    0.582388
    2.756569
    0.116917
    1.445828
    1.306205
    0.298281
    0.599662
    0.035357
    0.438555
    1.700987
    2.574684
    3.890273
    1.448202
    1.599959
    5.227418
    1.901959
    9.520655
    2.144200
    6.339790
    5.951924
    0.501849
    9.183284
   11.973259
    6.646633
    6.148811
    3.497593
    4.875028
    0.728831
    0.711293
    3.257543
    8.787285
    8.459679
   25.585315
    4.687954
   30.533324
   12.158996
   11.908244
   14.647232
   14.950949
    0.457752
    5.358894
    0.324215
   51.865564
   75.413466
   32.902846
   27.363531
   15.442864
   10.328360
    1.084925
    0.967164
   27.355223
   10.011718
   10.933813
   30.929348
   17.358766
  159.326769
    1.332268
  139.595477
  131.930017
  176.907640
   10.992635
   11.951184
   39.375536
    7.840598
   16.981959
    9.239873
    8.186376
   24.975882
    5.260789
    2.683245
    5.404463
    6.597279
    3.442886
    9.017500
    3.338505
   11.380799
    6.142660
   10.505939
  313.011563
  253.709046
   15.306078
   10.588579
   34.783154
   35.163197
   35.046906
   29.030369
    5.890396
    4.488953
   10.552585
    4.595755
   16.936935
   51.700223
   24.337592
   14.572424
    8.672831
   12.017391
   13.297495
   11.690290

======= END OF MOLDEN-FORMATTED INPUT FILE =======


        *************************************************************
        *                                                           *
        *  Thank you very much for using Q-Chem.  Have a nice day.  *
        *                                                           *
        *************************************************************


