r0168.ten.osc.edu 10.25.155
Q-Chem Developer Version! Running on 10.25.155.*
                  Welcome to Q-Chem
     A Quantum Leap Into The Future Of Chemistry


 Q-Chem 5.0, Q-Chem, Inc., Pleasanton, CA (2017)

 Yihan Shao,  Zhengting Gan,  E. Epifanovsky,  A. T. B. Gilbert,  M. Wormit,  
 J. Kussmann,  A. W. Lange,  A. Behn,  Jia Deng,  Xintian Feng,  D. Ghosh,  
 M. Goldey,  P. R. Horn,  L. D. Jacobson,  I. Kaliman,  T. Kus,  A. Landau,  
 Jie Liu,  E. I. Proynov,  R. M. Richard,  R. P. Steele,  E. J. Sundstrom,  
 H. L. Woodcock III,  P. M. Zimmerman,  D. Zuev,  B. Albrecht,  E. Alguire,  
 S. A. Baeppler,  Z. Benda,  Y. A. Bernard,  E. J. Berquist,  K. B. Bravaya,  
 D. Casanova,  Chun-Min Chang,  Yunqing Chen,  A. Chien,  K. D. Closser,  
 M. P. Coons,  S. Dasgupta,  M. Diedenhofen,  Hainam Do,  R. G. Edgar,  
 Po-Tung Fang,  S. Fatehi,  Qingguo Feng,  Qinghui Ge,  A. Ghysels,  
 J. Gomes,  J. Gonthier,  A. Gunina,  M. W. D. Hanson-Heine,  
 P. H. P. Harbach,  A. W. Hauser,  J. E. Herr,  E. G. Hohenstein,  
 Z. C. Holden,  Kerwin Hui,  T.-C. Jagau,  Hyunjun Ji,  B. Kaduk,  
 K. Khistyaev,  Jaehoon Kim,  P. Klunzinger,  K. Koh,  D. Kosenkov,  
 T. Kowalczyk,  C. M. Krauter,  A. Kunitsa,  Ka Un Lao,  A. Laurent,  
 K. V. Lawler,  Joonho Lee,  D. Lefrancois,  S. Lehtola,  D. S. Levine,  
 Yi-Pei Li,  You-Sheng Lin,  Fenglai Liu,  E. Livshits,  A. Luenser,  
 P. Manohar,  E. Mansoor,  S. F. Manzer,  Shan-Ping Mao,  Yuezhi Mao,  
 N. Mardirossian,  A. V. Marenich,  L. A. Martinez-Martinez,  S. A. Maurer,  
 N. J. Mayhall,  S. C. McKenzie,  J.-M. Mewes,  A. F. Morrison,  K. Nanda,  
 T. S. Nguyen-Beck,  R. Olivares-Amaya,  J. A. Parkhill,  T. M. Perrine,  
 F. Plasser,  S. Prager,  A. Prociuk,  D. R. Rehn,  F. Rob,  M. Schneider,  
 N. Sergueev,  S. M. Sharada,  S. Sharma,  D. W. Small,  T. Stauch,  
 T. Stein,  Yu-Chuan Su,  A. J. W. Thom,  T. Tsuchimochi,  L. Vogt,  
 O. Vydrov,  M. A. Watson,  J. Wenzel,  M. de Wergifosse,  T. A. Wesolowski,  
 A. White,  J. Witte,  A. Yamada,  Jun Yang,  K. Yao,  S. Yeganeh,  
 S. R. Yost,  Zhi-Qiang You,  A. Zech,  Igor Ying Zhang,  Xing Zhang,  
 Yan Zhao,  Ying Zhu,  B. R. Brooks,  G. K. L. Chan,  C. J. Cramer,  
 M. S. Gordon,  W. J. Hehre,  A. Klamt,  M. W. Schmidt,  C. D. Sherrill,  
 D. G. Truhlar,  A. Aspuru-Guzik,  R. Baer,  A. T. Bell,  N. A. Besley,  
 Jeng-Da Chai,  A. Dreuw,  B. D. Dunietz,  T. R. Furlani,  Chao-Ping Hsu,  
 Yousung Jung,  Jing Kong,  D. S. Lambrecht,  WanZhen Liang,  C. Ochsenfeld,  
 V. A. Rassolov,  L. V. Slipchenko,  J. E. Subotnik,  T. Van Voorhis,  
 J. M. Herbert,  A. I. Krylov,  P. M. W. Gill,  M. Head-Gordon

 Contributors to earlier versions of Q-Chem not listed above: 
 R. D. Adamson,  B. Austin,  J. Baker,  G. J. O. Beran,  K. Brandhorst,  
 S. T. Brown,  E. F. C. Byrd,  A. K. Chakraborty,  C.-L. Cheng,  
 Siu Hung Chien,  D. M. Chipman,  D. L. Crittenden,  H. Dachsel,  
 R. A. DiStasio Jr.,  R. J. Doerksen,  A. D. Dutoi,  L. Fusti-Molnar,  
 W. A. Goddard III,  A. Golubeva-Zadorozhnaya,  S. R. Gwaltney,  G. Hawkins,  
 A. Heyden,  S. Hirata,  G. Kedziora,  F. J. Keil,  C. Kelley,  Jihan Kim,  
 R. A. King,  R. Z. Khaliullin,  P. P. Korambath,  W. Kurlancheek,  
 A. M. Lee,  M. S. Lee,  S. V. Levchenko,  Ching Yeh Lin,  D. Liotard,  
 R. C. Lochan,  I. Lotan,  P. E. Maslen,  N. Nair,  D. P. O'Neill,  
 D. Neuhauser,  E. Neuscamman,  C. M. Oana,  R. Olson,  B. Peters,  
 R. Peverati,  P. A. Pieniazek,  Y. M. Rhee,  J. Ritchie,  M. A. Rohrdanz,  
 E. Rosta,  N. J. Russ,  H. F. Schaefer III,  N. E. Schultz,  N. Shenvi,  
 A. C. Simmonett,  A. Sodt,  D. Stuck,  K. S. Thanthiriwatte,  V. Vanovschi,  
 Tao Wang,  A. Warshel,  C. F. Williams,  Q. Wu,  X. Xu,  W. Zhang

 Please cite Q-Chem as follows:
 Y. Shao et al., Mol. Phys. 113, 184-215 (2015)
 DOI: 10.1080/00268976.2014.952696

 Q-Chem 5.0.1 for Intel X86 EM64T Linux

 Parts of Q-Chem use Armadillo 5.200.1 (Boston Tea Smuggler).
 http://arma.sourceforge.net/

 Q-Chem begins on Sun Oct 15 23:10:13 2017  

Host: r0168.ten.osc.edu
0

     Scratch files written to /tmp/pbstmp.1310582/08//
Processing $rem in /users/PAS0291/osu6415/.qchemrc.
molden_format             true

Checking the input file for inconsistencies... 	...done.

--------------------------------------------------------------
User input:
--------------------------------------------------------------
$molecule
0 1
C -0.39324825 0.59153871 -0.89144305
C -0.10350258 -0.92344623 -0.55158007
C 0.71585168 1.53510340 -0.45045703
C 1.29126046 -1.16343394 -0.00730772
O 0.70534876 1.79317715 0.86203117
O 1.53504504 1.98844684 -1.21812910
O 2.10794901 -1.54935897 -1.01423137
O 1.66549521 -1.02405619 1.13043487
C 3.49846600 -1.70689429 -0.67762663
C 1.78877942 2.59224210 1.36774562
C -1.78714982 0.77373438 -0.20331794
C -2.81545352 -0.05457059 -1.03124173
C -2.52585548 -1.49857617 -0.54846034
C -1.31129511 -1.27268132 0.38949731
O -1.64197423 -0.01035930 0.98951795
H -0.46058839 0.72372225 -1.97038841
H -0.16927977 -1.50357319 -1.47130105
H 3.61928959 -2.44073391 0.12032005
H 1.80690342 3.56831870 0.88038181
H -3.83022341 0.25724002 -0.77821637
H -2.68407243 0.08106830 -2.10682378
H -3.35815492 -1.89508156 0.03591432
H -2.31207622 -2.20216227 -1.35545485
H 3.98020760 -2.04743642 -1.59131509
H 3.91756032 -0.75099163 -0.35937208
H 2.73927875 2.08405349 1.20025021
H 1.59594966 2.69348106 2.43304668
C -1.09692385 -2.33800305 1.44084144
H -2.02057791 -2.48940635 2.00425234
H -0.82682770 -3.28619293 0.96671428
H -0.30314141 -2.05311304 2.12970796
C -2.22830623 2.18777362 0.10818089
H -3.22095611 2.17177285 0.56336582
H -1.53738806 2.67226137 0.79595330
H -2.28286481 2.77497662 -0.81296814
$end

$rem
sym_ignore      true
jobtype         ts
method          b3lyp
basis           6-311++G(d,p)
dft_d           d3_op
mem_total       62000
MEM_STATIC      4000
ao2mo_disk      350000
max_scf_cycles  200
geom_opt_max_cycles 1000
geom_opt_tol_displacement 1
GEOM_OPT_TOL_GRADIENT       1
GEOM_OPT_TOL_ENERGY         1
$end

--------------------------------------------------------------
 Adding empirical dispersion correction 
 ----------------------------------------------------------------
 Doing -D3(op) with
 s6 =   1.00000
 s8 =   0.78311
 a1 =   0.30000
 a2 =   4.25000
 n  =  10.00000
 -D3 energy without 3body term =     -0.0414650708 hartrees
 ----------------------------------------------------------------
             Standard Nuclear Orientation (Angstroms)
    I     Atom           X                Y                Z
 ----------------------------------------------------------------
    1      C      -0.3932482500     0.5915387100    -0.8914430500
    2      C      -0.1035025800    -0.9234462300    -0.5515800700
    3      C       0.7158516800     1.5351034000    -0.4504570300
    4      C       1.2912604600    -1.1634339400    -0.0073077200
    5      O       0.7053487600     1.7931771500     0.8620311700
    6      O       1.5350450400     1.9884468400    -1.2181291000
    7      O       2.1079490100    -1.5493589700    -1.0142313700
    8      O       1.6654952100    -1.0240561900     1.1304348700
    9      C       3.4984660000    -1.7068942900    -0.6776266300
   10      C       1.7887794200     2.5922421000     1.3677456200
   11      C      -1.7871498200     0.7737343800    -0.2033179400
   12      C      -2.8154535200    -0.0545705900    -1.0312417300
   13      C      -2.5258554800    -1.4985761700    -0.5484603400
   14      C      -1.3112951100    -1.2726813200     0.3894973100
   15      O      -1.6419742300    -0.0103593000     0.9895179500
   16      H      -0.4605883900     0.7237222500    -1.9703884100
   17      H      -0.1692797700    -1.5035731900    -1.4713010500
   18      H       3.6192895900    -2.4407339100     0.1203200500
   19      H       1.8069034200     3.5683187000     0.8803818100
   20      H      -3.8302234100     0.2572400200    -0.7782163700
   21      H      -2.6840724300     0.0810683000    -2.1068237800
   22      H      -3.3581549200    -1.8950815600     0.0359143200
   23      H      -2.3120762200    -2.2021622700    -1.3554548500
   24      H       3.9802076000    -2.0474364200    -1.5913150900
   25      H       3.9175603200    -0.7509916300    -0.3593720800
   26      H       2.7392787500     2.0840534900     1.2002502100
   27      H       1.5959496600     2.6934810600     2.4330466800
   28      C      -1.0969238500    -2.3380030500     1.4408414400
   29      H      -2.0205779100    -2.4894063500     2.0042523400
   30      H      -0.8268277000    -3.2861929300     0.9667142800
   31      H      -0.3031414100    -2.0531130400     2.1297079600
   32      C      -2.2283062300     2.1877736200     0.1081808900
   33      H      -3.2209561100     2.1717728500     0.5633658200
   34      H      -1.5373880600     2.6722613700     0.7959533000
   35      H      -2.2828648100     2.7749766200    -0.8129681400
 ----------------------------------------------------------------
 Nuclear Repulsion Energy =  1401.8914580810 hartrees
 There are       65 alpha and       65 beta electrons
 Requested basis set is 6-311++G(d,p)
 There are 192 shells and 500 basis functions

 Total QAlloc Memory Limit  62000 MB
 Mega-Array Size      3911 MB
 MEM_STATIC part      4000 MB
 A cutoff of  1.0D-11 yielded  15058 shell pairs
 There are    103952 function pairs (    110787 Cartesian)
 
 -------------------------------------------------------
 OpenMP Integral Computing Module                       
 Release: version 1.0, May 2013, Q-Chem Inc. Pittsburgh 
 -------------------------------------------------------
 Integral Job Info:
 Integral job number is                      11
 Integral operator is                         1
 short-range coefficients                     0
 long-range coefficients              100000000
 Omega coefficients                           0
 if combine SR and LR in K                    0
 Integral screening is                        0
 Integral computing path is                   2
 max size of driver memory is            800000
 size of driver memory is                593474
 size of scratch memory is              2361544
 max col of scratch BK array               1296
 max len of scratch array in speh3          155
 max len of scratch index in speh4           18
 max int batch size is                      520
 min int batch size is                       52
 fixed nKL is                                52
 max L of basis functions is                  2
 order of int derivative is                   0
 number of shells is                        192
 number of basis is                         517
 number of cartesian basis is               517
 number of contracted shell pairs         15058
 number of primitive shell pairs          33017
 maxK2 (contraction) of shell pair           36
 max number of K2 of shell pair               1
 max number of CS2 of shell pair           2879
 max number of PS2 of shell pair           4830
 mem total for path MDJ                  181160
 -------------------------------------------------------
 Smallest overlap matrix eigenvalue = 4.39E-07

 Q-Chem warning in module /fs/scratch/osu6415/qchem-kaunlao-vdw/stvman/mkSTV.C, line 281:

 Overlap eigenvalue is smaller than square root of threshold

 Linear dependence detected in AO basis
 Number of orthogonalized atomic orbitals = 499
 Maximum deviation from orthogonality = 1.966E-10

 Scale SEOQF with 1.000000e-01/1.000000e-01/1.000000e-01

 Standard Electronic Orientation quadrupole field applied
 Nucleus-field energy     =     0.0000000288 hartrees
 Guess from superposition of atomic densities
 Warning:  Energy on first SCF cycle will be non-variational
 A restricted hybrid HF-DFT SCF calculation will be
 performed using Pulay DIIS extrapolation
 Exchange:     0.2000 Hartree-Fock + 0.0800 Slater + 0.7200 B88
 Correlation:  0.1900 VWN1RPA + 0.8100 LYP
 Using SG-1 standard quadrature grid
 Dispersion:   Grimme D3
 SCF converges when DIIS error is below 1.0E-08
 using 20 threads for integral computing
 -------------------------------------------------------
 OpenMP Integral computing Module                
 Release: version 1.0, May 2013, Q-Chem Inc. Pittsburgh 
 -------------------------------------------------------
 -------------------------------------------------------
 OpenMP BLAS3 based DFT computing Module                
 Release: version 1.0, May 2013, Q-Chem Inc. Pittsburgh 
 -------------------------------------------------------
 ---------------------------------------
  Cycle       Energy         DIIS Error
 ---------------------------------------
    1    -847.9462594382      2.82E-02
    2    -844.1607725242      3.73E-03
    3    -843.6670453605      5.99E-03
    4    -844.4754761868      1.42E-03
    5    -844.5237453922      3.33E-04
    6    -844.5256787197      1.58E-04
    7    -844.5262380777      3.01E-05
    8    -844.5262567256      1.10E-05
    9    -844.5262596541      2.94E-06
   10    -844.5262597939      1.62E-06
   11    -844.5262598507      4.37E-07
   12    -844.5262598550      1.38E-07
   13    -844.5262598553      3.90E-08
   14    -844.5262598545      1.24E-08
   15    -844.5262598596      3.66E-09 Convergence criterion met
 ---------------------------------------
 SCF time:  CPU 1191.72 s  wall 65.12 s
 SCF   energy in the final basis set = -844.52625986
 Total energy in the final basis set = -844.52625986
 
 --------------------------------------------------------------
 
                    Orbital Energies (a.u.)
 --------------------------------------------------------------
 
 Alpha MOs
 -- Occupied --
-19.175 -19.169 -19.125 -19.119 -19.114 -10.308 -10.304 -10.241
-10.239 -10.229 -10.224 -10.205 -10.204 -10.177 -10.176 -10.166
-10.162  -1.117  -1.113  -1.059  -1.029  -1.024  -0.831  -0.804
 -0.783  -0.747  -0.725  -0.724  -0.672  -0.643  -0.603  -0.581
 -0.566  -0.558  -0.518  -0.510  -0.504  -0.494  -0.484  -0.481
 -0.478  -0.469  -0.457  -0.438  -0.431  -0.426  -0.420  -0.411
 -0.407  -0.397  -0.395  -0.371  -0.370  -0.366  -0.359  -0.355
 -0.352  -0.348  -0.332  -0.326  -0.319  -0.307  -0.287  -0.276
 -0.269
 -- Virtual --
 -0.016  -0.012  -0.007  -0.002   0.001   0.007   0.013   0.018
  0.028   0.032   0.034   0.038   0.041   0.044   0.047   0.052
  0.059   0.063   0.064   0.073   0.078   0.083   0.088   0.089
  0.095   0.099   0.103   0.103   0.107   0.112   0.114   0.116
  0.120   0.121   0.125   0.129   0.131   0.133   0.137   0.138
  0.142   0.147   0.150   0.152   0.152   0.154   0.157   0.159
  0.162   0.164   0.167   0.169   0.171   0.174   0.177   0.181
  0.182   0.185   0.190   0.195   0.198   0.202   0.204   0.207
  0.212   0.213   0.218   0.222   0.224   0.225   0.229   0.230
  0.239   0.248   0.251   0.254   0.258   0.266   0.269   0.276
  0.282   0.285   0.288   0.299   0.301   0.305   0.308   0.314
  0.321   0.324   0.326   0.331   0.333   0.336   0.341   0.345
  0.350   0.354   0.358   0.360   0.361   0.371   0.376   0.376
  0.383   0.388   0.396   0.397   0.400   0.409   0.414   0.416
  0.422   0.427   0.442   0.449   0.450   0.454   0.463   0.476
  0.477   0.484   0.500   0.511   0.519   0.525   0.526   0.536
  0.541   0.562   0.568   0.576   0.589   0.598   0.600   0.601
  0.609   0.618   0.623   0.626   0.636   0.647   0.653   0.656
  0.658   0.670   0.670   0.677   0.685   0.690   0.700   0.702
  0.714   0.717   0.724   0.726   0.732   0.733   0.740   0.747
  0.751   0.756   0.769   0.779   0.782   0.789   0.801   0.803
  0.815   0.821   0.830   0.840   0.850   0.868   0.886   0.917
  0.927   0.957   0.968   0.977   1.001   1.015   1.029   1.044
  1.065   1.071   1.090   1.100   1.113   1.123   1.152   1.170
  1.175   1.186   1.209   1.212   1.230   1.235   1.238   1.256
  1.261   1.269   1.280   1.289   1.304   1.312   1.320   1.334
  1.341   1.355   1.378   1.382   1.388   1.405   1.423   1.431
  1.437   1.462   1.468   1.479   1.483   1.492   1.498   1.514
  1.521   1.530   1.546   1.552   1.559   1.566   1.572   1.579
  1.580   1.592   1.596   1.599   1.613   1.620   1.635   1.647
  1.657   1.664   1.671   1.688   1.696   1.708   1.715   1.720
  1.723   1.728   1.733   1.743   1.752   1.753   1.772   1.776
  1.789   1.804   1.812   1.821   1.829   1.837   1.862   1.865
  1.874   1.887   1.908   1.912   1.935   1.966   1.970   1.982
  1.997   2.008   2.017   2.026   2.039   2.048   2.054   2.064
  2.088   2.101   2.116   2.124   2.136   2.149   2.164   2.180
  2.182   2.202   2.212   2.234   2.239   2.254   2.255   2.297
  2.312   2.382   2.388   2.402   2.429   2.447   2.461   2.475
  2.479   2.489   2.497   2.503   2.515   2.522   2.525   2.534
  2.538   2.548   2.561   2.575   2.581   2.585   2.603   2.606
  2.613   2.645   2.653   2.664   2.679   2.682   2.690   2.709
  2.729   2.747   2.778   2.793   2.803   2.821   2.835   2.853
  2.866   2.876   2.884   2.894   2.905   2.920   2.953   2.966
  3.003   3.012   3.021   3.034   3.044   3.050   3.068   3.074
  3.082   3.091   3.103   3.118   3.129   3.149   3.176   3.192
  3.209   3.223   3.236   3.253   3.255   3.310   3.339   3.357
  3.366   3.385   3.404   3.423   3.543   3.598   3.615   3.654
  3.677   3.702   3.777   3.782   3.791   3.820   3.827   3.830
  3.842   3.855   3.865   3.960   3.984   4.056   4.080   4.107
  4.134   4.146   4.164   4.171   4.185   4.208   4.292   4.312
  4.452   4.496   5.062   5.075   5.147   5.175   5.233   5.245
  5.289   5.410   5.439   5.529   5.631   5.657   5.704   5.896
  5.908  23.762  23.847  23.861  23.887  23.901  23.934  23.945
 23.957  23.959  23.987  23.994  24.046  49.912  49.949  50.013
 50.039  50.074
 --------------------------------------------------------------
 
          Ground-State Mulliken Net Atomic Charges

     Atom                 Charge (a.u.)
  ----------------------------------------
      1 C                     0.522699
      2 C                     0.612616
      3 C                    -1.028465
      4 C                    -0.795831
      5 O                     0.002648
      6 O                    -0.150794
      7 O                     0.031346
      8 O                    -0.155402
      9 C                    -0.191983
     10 C                    -0.219432
     11 C                    -0.465061
     12 C                    -0.265641
     13 C                    -0.530744
     14 C                    -0.748114
     15 O                     0.049579
     16 H                     0.278460
     17 H                     0.304799
     18 H                     0.172466
     19 H                     0.182280
     20 H                     0.170706
     21 H                     0.139041
     22 H                     0.171019
     23 H                     0.139809
     24 H                     0.157695
     25 H                     0.174270
     26 H                     0.179439
     27 H                     0.165038
     28 C                     0.057951
     29 H                     0.167718
     30 H                     0.146402
     31 H                     0.203363
     32 C                     0.034390
     33 H                     0.162945
     34 H                     0.165409
     35 H                     0.159377
  ----------------------------------------
  Sum of atomic charges =     0.000000

 -----------------------------------------------------------------
                    Cartesian Multipole Moments
 -----------------------------------------------------------------
    Charge (ESU x 10^10)
                 0.0000
    Dipole Moment (Debye)
         X      -0.6878      Y      -1.0127      Z      -0.9010
       Tot       1.5200
    Quadrupole Moments (Debye-Ang)
        XX     -93.6739     XY      -2.6703     YY     -96.2464
        XZ       4.9903     YZ       6.5461     ZZ    -107.1942
    Octopole Moments (Debye-Ang^2)
       XXX      47.8747    XXY     -12.0858    XYY       9.0009
       YYY       5.3950    XXZ      -1.1249    XYZ      20.1100
       YYZ      18.3651    XZZ       1.1919    YZZ       1.8627
       ZZZ       4.3700
    Hexadecapole Moments (Debye-Ang^3)
      XXXX   -2195.9957   XXXY     -54.5096   XXYY    -648.6377
      XYYY       6.9635   YYYY   -1699.2025   XXXZ     -30.0293
      XXYZ      31.1579   XYYZ      24.1128   YYYZ      18.1034
      XXZZ    -521.6379   XYZZ       7.6379   YYZZ    -399.0761
      XZZZ      12.6555   YZZZ       1.7283   ZZZZ    -660.3378
 -----------------------------------------------------------------
 Calculating analytic gradient of the SCF energy
 Gradient of SCF Energy
            1           2           3           4           5           6
    1   0.0003717  -0.0003681   0.0005789   0.0000676   0.0000229  -0.0005394
    2   0.0002931  -0.0001459  -0.0010498   0.0003747  -0.0000094   0.0007438
    3  -0.0011118   0.0009110   0.0004486  -0.0001816   0.0000058  -0.0001879
            7           8           9          10          11          12
    1   0.0000069  -0.0000643  -0.0000204   0.0000148   0.0000439  -0.0000500
    2  -0.0000394  -0.0002350   0.0000317   0.0000071   0.0000014   0.0000180
    3   0.0000038   0.0000617   0.0000437  -0.0000680   0.0002132  -0.0000484
           13          14          15          16          17          18
    1   0.0000074  -0.0000387  -0.0000090  -0.0000659  -0.0000020   0.0000006
    2  -0.0000478   0.0001775  -0.0000383  -0.0000486   0.0000336  -0.0000027
    3  -0.0000177   0.0001615  -0.0000695   0.0000111  -0.0000242  -0.0000343
           19          20          21          22          23          24
    1  -0.0000124   0.0000034  -0.0000101   0.0000012  -0.0000063   0.0000040
    2   0.0000036  -0.0000110  -0.0000013   0.0000158  -0.0000322  -0.0000074
    3  -0.0000051   0.0000139   0.0000095   0.0000169   0.0000319  -0.0000213
           25          26          27          28          29          30
    1  -0.0000067  -0.0000074   0.0000085   0.0000462   0.0000190  -0.0000085
    2   0.0000114  -0.0000026   0.0000151  -0.0000415   0.0000043   0.0000075
    3  -0.0000521  -0.0000018  -0.0000055  -0.0001216   0.0000442   0.0000012
           31          32          33          34          35
    1   0.0000121   0.0000070  -0.0000012  -0.0000098   0.0000039
    2  -0.0000073  -0.0000475   0.0000144   0.0000222  -0.0000073
    3   0.0000244  -0.0000799   0.0000126   0.0000162  -0.0000005
 Max gradient component =       1.112E-03
 RMS gradient           =       2.265E-04
 Gradient time:  CPU 396.63 s  wall 28.33 s
 Geometry Optimization Parameters
   NAtoms,    NIC,     NZ,  NCons,   NDum,   NFix, NCnnct, MaxDiis
       35     275       0       0       0       0       0       0


** GEOMETRY OPTIMIZATION IN DELOCALIZED INTERNAL COORDINATES **
   Searching for a Transition State

   Optimization Cycle:   1

                       Coordinates (Angstroms)
     ATOM                X               Y               Z
      1  C        -0.3932482500    0.5915387100   -0.8914430500
      2  C        -0.1035025800   -0.9234462300   -0.5515800700
      3  C         0.7158516800    1.5351034000   -0.4504570300
      4  C         1.2912604600   -1.1634339400   -0.0073077200
      5  O         0.7053487600    1.7931771500    0.8620311700
      6  O         1.5350450400    1.9884468400   -1.2181291000
      7  O         2.1079490100   -1.5493589700   -1.0142313700
      8  O         1.6654952100   -1.0240561900    1.1304348700
      9  C         3.4984660000   -1.7068942900   -0.6776266300
     10  C         1.7887794200    2.5922421000    1.3677456200
     11  C        -1.7871498200    0.7737343800   -0.2033179400
     12  C        -2.8154535200   -0.0545705900   -1.0312417300
     13  C        -2.5258554800   -1.4985761700   -0.5484603400
     14  C        -1.3112951100   -1.2726813200    0.3894973100
     15  O        -1.6419742300   -0.0103593000    0.9895179500
     16  H        -0.4605883900    0.7237222500   -1.9703884100
     17  H        -0.1692797700   -1.5035731900   -1.4713010500
     18  H         3.6192895900   -2.4407339100    0.1203200500
     19  H         1.8069034200    3.5683187000    0.8803818100
     20  H        -3.8302234100    0.2572400200   -0.7782163700
     21  H        -2.6840724300    0.0810683000   -2.1068237800
     22  H        -3.3581549200   -1.8950815600    0.0359143200
     23  H        -2.3120762200   -2.2021622700   -1.3554548500
     24  H         3.9802076000   -2.0474364200   -1.5913150900
     25  H         3.9175603200   -0.7509916300   -0.3593720800
     26  H         2.7392787500    2.0840534900    1.2002502100
     27  H         1.5959496600    2.6934810600    2.4330466800
     28  C        -1.0969238500   -2.3380030500    1.4408414400
     29  H        -2.0205779100   -2.4894063500    2.0042523400
     30  H        -0.8268277000   -3.2861929300    0.9667142800
     31  H        -0.3031414100   -2.0531130400    2.1297079600
     32  C        -2.2283062300    2.1877736200    0.1081808900
     33  H        -3.2209561100    2.1717728500    0.5633658200
     34  H        -1.5373880600    2.6722613700    0.7959533000
     35  H        -2.2828648100    2.7749766200   -0.8129681400
   Point Group: c1    Number of degrees of freedom:    99


   Energy is   -844.526259860


 Attempting to Generate Delocalized Internal Coordinates

 99 Hessian modes will be used to form the next step
  Hessian Eigenvalues:
     0.002929    0.006338    0.007015    0.007022    0.007372    0.007589
     0.010443    0.010482    0.010608    0.010806    0.021901    0.023253
     0.023892    0.025601    0.035476    0.036316    0.038504    0.039884
     0.043778    0.046896    0.048112    0.050074    0.053808    0.055890
     0.057302    0.058108    0.058348    0.059828    0.059948    0.063030
     0.065340    0.065899    0.079578    0.084339    0.094316    0.100454
     0.101326    0.101339    0.106118    0.106339    0.110988    0.121700
     0.124343    0.151160    0.160000    0.160000    0.160000    0.160000
     0.160000    0.160000    0.160000    0.160000    0.160000    0.160000
     0.160000    0.160000    0.177173    0.231071    0.231497    0.249967
     0.249979    0.250000    0.250000    0.250000    0.250000    0.251609
     0.252176    0.261365    0.273042    0.302250    0.307249    0.309858
     0.311488    0.337289    0.343557    0.343823    0.345287    0.345648
     0.345788    0.346082    0.346367    0.346592    0.346765    0.346817
     0.347041    0.347207    0.347249    0.348838    0.349173    0.349354
     0.349708    0.350916    0.351224    0.396781    0.398500    0.544496
     0.577323    0.996013    1.019655
**WARNING** Hessian does not have the Desired Local Structure

 Transition State Search - Taking P-RFO Step
 Searching for Lamda that Maximizes Along the Lowest mode
 Value Taken    Lamda =   0.00292859
 Searching for Lamda that Minimizes Along All other modes
 Value Taken    Lamda =  -0.00013496
 Calculated Step too Large.  Step scaled by  0.000743
 Step Taken.  Stepsize is  0.300000

                             Maximum     Tolerance    Cnvgd?
         Gradient           0.000552      0.000001      NO
         Displacement       0.120533      0.000001      NO
         Energy change     *********      0.000000      NO


 New Cartesian Coordinates Obtained by Inverse Iteration

 Displacement from previous Coordinates is:  0.845893
 Adding empirical dispersion correction 
 ----------------------------------------------------------------
 Doing -D3(op) with
 s6 =   1.00000
 s8 =   0.78311
 a1 =   0.30000
 a2 =   4.25000
 n  =  10.00000
 -D3 energy without 3body term =     -0.0414177774 hartrees
 ----------------------------------------------------------------
             Standard Nuclear Orientation (Angstroms)
    I     Atom           X                Y                Z
 ----------------------------------------------------------------
    1      C      -0.3779689942     0.6089524958    -0.8868107901
    2      C      -0.1027705302    -0.9104810391    -0.5556157631
    3      C       0.7215733441     1.5437939286    -0.4051843012
    4      C       1.2996152287    -1.1727632134    -0.0420858895
    5      O       0.6781595222     1.7844657099     0.9099316524
    6      O       1.5610829650     2.0051913119    -1.1456263755
    7      O       2.0888104104    -1.5672368208    -1.0674517234
    8      O       1.7001018730    -1.0427337838     1.0877985242
    9      C       3.4837294389    -1.7463100146    -0.7611979404
   10      C       1.7500861238     2.5740099188     1.4536845737
   11      C      -1.7862390280     0.7820734749    -0.2288874303
   12      C      -2.7868087656    -0.0795851297    -1.0590239916
   13      C      -2.5190549967    -1.5036659661    -0.5092326833
   14      C      -1.2970799868    -1.2468575123     0.4089886336
   15      O      -1.6407154779     0.0249825529     0.9812714567
   16      H      -0.4181722032     0.7547654470    -1.9653526719
   17      H      -0.1963634193    -1.4866744591    -1.4753994955
   18      H       3.6107426071    -2.4845356143     0.0317260686
   19      H       1.7827752445     3.5564147485     0.9799866943
   20      H      -3.8093834524     0.2436776413    -0.8569155248
   21      H      -2.6156803728     0.0118293508    -2.1336839865
   22      H      -3.3537683621    -1.8572903380     0.0987443285
   23      H      -2.3205642892    -2.2494356079    -1.2815047714
   24      H       3.9407533797    -2.0908015230    -1.6860358726
   25      H       3.9235881334    -0.7977449961    -0.4490687251
   26      H       2.7034327796     2.0656837305     1.3037045260
   27      H       1.5303671619     2.6616003150     2.5149811696
   28      C      -1.0623177230    -2.2846639034     1.4832486474
   29      H      -1.9790050795    -2.4312636717     2.0591691301
   30      H      -0.7876341893    -3.2413281962     1.0292057657
   31      H      -0.2647418189    -1.9759028457     2.1572881329
   32      C      -2.2554853822     2.1942567548     0.0480671139
   33      H      -3.2548614759     2.1703940082     0.4879319940
   34      H      -1.5836658204     2.7033817898     0.7369628454
   35      H      -2.3050121348     2.7626409667    -0.8850920508
 ----------------------------------------------------------------
 Nuclear Repulsion Energy =  1401.7170667827 hartrees
 There are       65 alpha and       65 beta electrons
 Applying Cartesian multipole field
    Component          Value
    ---------          -----
     (2,0,0)        1.00000E-11
     (0,2,0)        2.00000E-11
     (0,0,2)       -3.00000E-11
 Nucleus-field energy     =     0.0000000283 hartrees
 Requested basis set is 6-311++G(d,p)
 There are 192 shells and 500 basis functions
 A cutoff of  1.0D-11 yielded  15056 shell pairs
 There are    103963 function pairs (    110811 Cartesian)
 Smallest overlap matrix eigenvalue = 4.36E-07

 Q-Chem warning in module /fs/scratch/osu6415/qchem-kaunlao-vdw/stvman/mkSTV.C, line 281:

 Overlap eigenvalue is smaller than square root of threshold

 Linear dependence detected in AO basis
 Number of orthogonalized atomic orbitals = 499
 Maximum deviation from orthogonality = 1.499E-10
 Guess MOs from SCF MO coefficient file
 Reading MOs from coefficient file
 Reading MOs from coefficient file
 A restricted hybrid HF-DFT SCF calculation will be
 performed using Pulay DIIS extrapolation
 Exchange:     0.2000 Hartree-Fock + 0.0800 Slater + 0.7200 B88
 Correlation:  0.1900 VWN1RPA + 0.8100 LYP
 Using SG-1 standard quadrature grid
 Dispersion:   Grimme D3
 SCF converges when DIIS error is below 1.0E-08
 Geometry optimization detected.  Setting ReadMinima to 0
 Setting SaveMinima to 0
 using 20 threads for integral computing
 -------------------------------------------------------
 OpenMP Integral computing Module                
 Release: version 1.0, May 2013, Q-Chem Inc. Pittsburgh 
 -------------------------------------------------------
 -------------------------------------------------------
 OpenMP BLAS3 based DFT computing Module                
 Release: version 1.0, May 2013, Q-Chem Inc. Pittsburgh 
 -------------------------------------------------------
 ---------------------------------------
  Cycle       Energy         DIIS Error
 ---------------------------------------
    1    -844.5164543456      1.18E-03
    2    -844.5238227300      2.81E-04
    3    -844.5212778256      4.43E-04
    4    -844.5259238458      8.24E-05
    5    -844.5260550420      3.19E-05
    6    -844.5260778306      6.90E-06
    7    -844.5260787522      2.63E-06
    8    -844.5260788952      1.07E-06
    9    -844.5260789177      4.24E-07
   10    -844.5260789226      9.67E-08
   11    -844.5260789227      2.15E-08
   12    -844.5260789230      1.00E-08
   13    -844.5260789262      4.03E-09 Convergence criterion met
 ---------------------------------------
 SCF time:  CPU 1068.18 s  wall 57.16 s
 SCF   energy in the final basis set = -844.52607893
 Total energy in the final basis set = -844.52607893
 
 --------------------------------------------------------------
 
                    Orbital Energies (a.u.)
 --------------------------------------------------------------
 
 Alpha MOs
 -- Occupied --
-19.175 -19.168 -19.124 -19.119 -19.114 -10.308 -10.304 -10.241
-10.239 -10.228 -10.223 -10.205 -10.204 -10.178 -10.176 -10.166
-10.161  -1.117  -1.112  -1.059  -1.030  -1.024  -0.831  -0.804
 -0.783  -0.747  -0.725  -0.723  -0.672  -0.643  -0.603  -0.581
 -0.566  -0.558  -0.518  -0.509  -0.504  -0.494  -0.484  -0.481
 -0.478  -0.469  -0.457  -0.438  -0.431  -0.425  -0.420  -0.411
 -0.407  -0.397  -0.395  -0.371  -0.370  -0.365  -0.359  -0.355
 -0.351  -0.348  -0.332  -0.327  -0.318  -0.308  -0.287  -0.276
 -0.269
 -- Virtual --
 -0.016  -0.012  -0.007  -0.002   0.001   0.006   0.013   0.018
  0.028   0.031   0.034   0.038   0.041   0.044   0.047   0.052
  0.059   0.063   0.064   0.073   0.077   0.083   0.088   0.089
  0.095   0.099   0.103   0.103   0.107   0.112   0.114   0.116
  0.119   0.121   0.125   0.129   0.132   0.132   0.137   0.138
  0.142   0.147   0.149   0.152   0.152   0.154   0.156   0.160
  0.162   0.164   0.167   0.168   0.170   0.173   0.177   0.180
  0.182   0.186   0.190   0.194   0.199   0.202   0.203   0.207
  0.212   0.212   0.218   0.221   0.223   0.224   0.229   0.229
  0.239   0.248   0.251   0.253   0.258   0.265   0.268   0.275
  0.284   0.286   0.287   0.300   0.302   0.305   0.308   0.314
  0.321   0.325   0.325   0.332   0.333   0.337   0.338   0.344
  0.350   0.353   0.358   0.360   0.362   0.372   0.374   0.375
  0.383   0.390   0.394   0.397   0.402   0.409   0.414   0.416
  0.424   0.427   0.443   0.449   0.451   0.454   0.462   0.472
  0.478   0.484   0.501   0.510   0.519   0.526   0.527   0.535
  0.542   0.564   0.570   0.577   0.589   0.596   0.600   0.601
  0.610   0.620   0.623   0.627   0.636   0.646   0.653   0.657
  0.657   0.668   0.671   0.677   0.684   0.692   0.700   0.702
  0.712   0.716   0.724   0.726   0.731   0.734   0.740   0.749
  0.750   0.756   0.770   0.779   0.781   0.787   0.801   0.802
  0.816   0.821   0.831   0.841   0.850   0.869   0.884   0.916
  0.924   0.959   0.970   0.980   0.996   1.015   1.029   1.048
  1.066   1.072   1.088   1.097   1.111   1.122   1.154   1.170
  1.177   1.185   1.208   1.214   1.227   1.231   1.240   1.253
  1.263   1.266   1.281   1.284   1.305   1.312   1.318   1.332
  1.341   1.356   1.378   1.384   1.387   1.407   1.425   1.430
  1.437   1.458   1.466   1.475   1.485   1.494   1.497   1.511
  1.521   1.533   1.546   1.553   1.555   1.566   1.571   1.580
  1.581   1.593   1.596   1.600   1.613   1.619   1.637   1.647
  1.657   1.665   1.673   1.689   1.695   1.709   1.717   1.720
  1.723   1.730   1.734   1.742   1.752   1.760   1.771   1.775
  1.789   1.803   1.811   1.818   1.826   1.837   1.857   1.864
  1.875   1.887   1.905   1.915   1.935   1.964   1.966   1.983
  1.998   2.006   2.015   2.025   2.040   2.046   2.054   2.062
  2.088   2.100   2.119   2.124   2.139   2.153   2.163   2.181
  2.186   2.204   2.212   2.237   2.240   2.252   2.258   2.300
  2.310   2.380   2.386   2.405   2.427   2.448   2.458   2.475
  2.479   2.489   2.498   2.504   2.514   2.521   2.525   2.535
  2.540   2.550   2.561   2.574   2.581   2.585   2.605   2.606
  2.615   2.644   2.655   2.663   2.680   2.682   2.690   2.708
  2.728   2.748   2.777   2.792   2.799   2.822   2.839   2.854
  2.866   2.877   2.884   2.892   2.905   2.920   2.951   2.959
  3.001   3.013   3.025   3.032   3.043   3.051   3.068   3.074
  3.083   3.096   3.106   3.119   3.128   3.147   3.172   3.191
  3.210   3.225   3.239   3.252   3.258   3.316   3.335   3.360
  3.371   3.386   3.403   3.422   3.546   3.598   3.617   3.657
  3.678   3.702   3.774   3.781   3.792   3.820   3.827   3.830
  3.842   3.855   3.867   3.957   3.985   4.055   4.081   4.106
  4.130   4.148   4.165   4.170   4.188   4.208   4.290   4.314
  4.450   4.497   5.062   5.074   5.141   5.172   5.238   5.246
  5.287   5.410   5.440   5.531   5.630   5.659   5.701   5.898
  5.907  23.765  23.847  23.860  23.886  23.901  23.934  23.945
 23.959  23.962  23.988  23.990  24.042  49.912  49.948  50.016
 50.042  50.071
 --------------------------------------------------------------
 
          Ground-State Mulliken Net Atomic Charges

     Atom                 Charge (a.u.)
  ----------------------------------------
      1 C                     0.509187
      2 C                     0.569325
      3 C                    -1.040587
      4 C                    -0.741782
      5 O                    -0.001264
      6 O                    -0.150610
      7 O                     0.024777
      8 O                    -0.156753
      9 C                    -0.194435
     10 C                    -0.217014
     11 C                    -0.423796
     12 C                    -0.258542
     13 C                    -0.556960
     14 C                    -0.739751
     15 O                     0.054923
     16 H                     0.278732
     17 H                     0.305210
     18 H                     0.172421
     19 H                     0.181648
     20 H                     0.170229
     21 H                     0.141428
     22 H                     0.169717
     23 H                     0.141355
     24 H                     0.157240
     25 H                     0.175302
     26 H                     0.179506
     27 H                     0.164757
     28 C                     0.052194
     29 H                     0.167975
     30 H                     0.146639
     31 H                     0.201194
     32 C                     0.031377
     33 H                     0.163500
     34 H                     0.164116
     35 H                     0.158744
  ----------------------------------------
  Sum of atomic charges =    -0.000000

 -----------------------------------------------------------------
                    Cartesian Multipole Moments
 -----------------------------------------------------------------
    Charge (ESU x 10^10)
                -0.0000
    Dipole Moment (Debye)
         X      -0.7621      Y      -1.0603      Z      -0.9257
       Tot       1.6006
    Quadrupole Moments (Debye-Ang)
        XX     -94.1590     XY      -2.9799     YY     -96.4742
        XZ       4.7529     YZ       6.5174     ZZ    -106.4679
    Octopole Moments (Debye-Ang^2)
       XXX      45.5191    XXY     -13.1077    XYY       8.3067
       YYY       4.1377    XXZ      -2.4467    XYZ      20.8092
       YYZ      17.8752    XZZ       2.2560    YZZ       2.5268
       ZZZ       4.5656
    Hexadecapole Moments (Debye-Ang^3)
      XXXX   -2185.5994   XXXY     -46.0467   XXYY    -647.0704
      XYYY      14.3196   YYYY   -1697.0392   XXXZ     -30.3503
      XXYZ      29.4765   XYYZ      24.0734   YYYZ       8.9484
      XXZZ    -519.8019   XYZZ      12.7193   YYZZ    -399.6968
      XZZZ      14.2461   YZZZ      -9.6357   ZZZZ    -675.5562
 -----------------------------------------------------------------
 Calculating analytic gradient of the SCF energy
 Gradient of SCF Energy
            1           2           3           4           5           6
    1   0.0008843  -0.0007836   0.0005782  -0.0000805   0.0001291  -0.0005025
    2   0.0006999  -0.0008559  -0.0011882   0.0002108  -0.0001302   0.0008861
    3  -0.0002192  -0.0001005  -0.0003601   0.0005860   0.0001899   0.0000101
            7           8           9          10          11          12
    1   0.0001365  -0.0001081  -0.0001726  -0.0000912  -0.0010837   0.0009469
    2  -0.0000418  -0.0006801   0.0000016   0.0000204  -0.0001642  -0.0000779
    3  -0.0001637  -0.0000686   0.0000329   0.0000084   0.0002560  -0.0006075
           13          14          15          16          17          18
    1  -0.0009325   0.0011850   0.0002373  -0.0001048  -0.0002109   0.0000028
    2  -0.0002624   0.0012661   0.0003105   0.0000600   0.0001004   0.0000093
    3   0.0006014  -0.0001549  -0.0001730   0.0001705   0.0001120  -0.0000202
           19          20          21          22          23          24
    1  -0.0000009   0.0000228   0.0001071  -0.0000955   0.0000218   0.0000083
    2  -0.0000303   0.0001247  -0.0001021   0.0000233  -0.0001098   0.0000098
    3  -0.0000196   0.0001980  -0.0000720  -0.0001136   0.0002178  -0.0000252
           25          26          27          28          29          30
    1   0.0000400   0.0000082   0.0000519   0.0001946   0.0001029  -0.0000400
    2   0.0000265   0.0000070  -0.0000035  -0.0002073   0.0000036  -0.0000410
    3  -0.0000555   0.0000195  -0.0000006  -0.0002755   0.0001004  -0.0000249
           31          32          33          34          35
    1   0.0000568  -0.0002503  -0.0000506  -0.0002349   0.0000280
    2   0.0001137   0.0001378  -0.0000320  -0.0001068   0.0000221
    3   0.0000520   0.0001410  -0.0000761  -0.0001440  -0.0000213
 Max gradient component =       1.266E-03
 RMS gradient           =       3.698E-04
 Gradient time:  CPU 395.61 s  wall 27.65 s
 Geometry Optimization Parameters
   NAtoms,    NIC,     NZ,  NCons,   NDum,   NFix, NCnnct, MaxDiis
       35     275       0       0       0       0       0       0

 Cartesian Hessian Update
 Hessian Updated using Powell/Murtagh-Sargent Update
  Mixing factors:     0.000017 Powell
                      0.999983 Murtagh-Sargent


** GEOMETRY OPTIMIZATION IN DELOCALIZED INTERNAL COORDINATES **
   Searching for a Transition State

   Optimization Cycle:   2

                       Coordinates (Angstroms)
     ATOM                X               Y               Z
      1  C        -0.3779689942    0.6089524958   -0.8868107901
      2  C        -0.1027705302   -0.9104810391   -0.5556157631
      3  C         0.7215733441    1.5437939286   -0.4051843012
      4  C         1.2996152287   -1.1727632134   -0.0420858895
      5  O         0.6781595222    1.7844657099    0.9099316524
      6  O         1.5610829650    2.0051913119   -1.1456263755
      7  O         2.0888104104   -1.5672368208   -1.0674517234
      8  O         1.7001018730   -1.0427337838    1.0877985242
      9  C         3.4837294389   -1.7463100146   -0.7611979404
     10  C         1.7500861238    2.5740099188    1.4536845737
     11  C        -1.7862390280    0.7820734749   -0.2288874303
     12  C        -2.7868087656   -0.0795851297   -1.0590239916
     13  C        -2.5190549967   -1.5036659661   -0.5092326833
     14  C        -1.2970799868   -1.2468575123    0.4089886336
     15  O        -1.6407154779    0.0249825529    0.9812714567
     16  H        -0.4181722032    0.7547654470   -1.9653526719
     17  H        -0.1963634193   -1.4866744591   -1.4753994955
     18  H         3.6107426071   -2.4845356143    0.0317260686
     19  H         1.7827752445    3.5564147485    0.9799866943
     20  H        -3.8093834524    0.2436776413   -0.8569155248
     21  H        -2.6156803728    0.0118293508   -2.1336839865
     22  H        -3.3537683621   -1.8572903380    0.0987443285
     23  H        -2.3205642892   -2.2494356079   -1.2815047714
     24  H         3.9407533797   -2.0908015230   -1.6860358726
     25  H         3.9235881334   -0.7977449961   -0.4490687251
     26  H         2.7034327796    2.0656837305    1.3037045260
     27  H         1.5303671619    2.6616003150    2.5149811696
     28  C        -1.0623177230   -2.2846639034    1.4832486474
     29  H        -1.9790050795   -2.4312636717    2.0591691301
     30  H        -0.7876341893   -3.2413281962    1.0292057657
     31  H        -0.2647418189   -1.9759028457    2.1572881329
     32  C        -2.2554853822    2.1942567548    0.0480671139
     33  H        -3.2548614759    2.1703940082    0.4879319940
     34  H        -1.5836658204    2.7033817898    0.7369628454
     35  H        -2.3050121348    2.7626409667   -0.8850920508
   Point Group: c1    Number of degrees of freedom:    99


   Energy is   -844.526078926

 Hessian Updated using Powell/Murtagh-Sargent Update
  Mixing factors:     0.997446 Powell
                      0.002554 Murtagh-Sargent

 97 Hessian modes will be used to form the next step
  Hessian Eigenvalues:
     0.001989    0.006398    0.007016    0.007320    0.007530    0.007610
     0.010444    0.010521    0.010608    0.010815    0.021903    0.023254
     0.023892    0.025602    0.035478    0.036597    0.038506    0.039997
     0.043794    0.046931    0.048156    0.050084    0.053910    0.055891
     0.057302    0.058108    0.058348    0.059829    0.059949    0.063033
     0.065342    0.065900    0.079601    0.084345    0.094321    0.100536
     0.101326    0.101339    0.106118    0.106340    0.110994    0.121740
     0.124354    0.151227    0.160000    0.160000    0.160000    0.160000
     0.160000    0.160000    0.160000    0.160000    0.160000    0.160009
     0.177270    0.231087    0.231575    0.249969    0.249983    0.250000
     0.250000    0.250000    0.250067    0.251651    0.252194    0.261373
     0.273042    0.302251    0.307251    0.309861    0.311488    0.337297
     0.343557    0.343823    0.345287    0.345648    0.345789    0.346082
     0.346367    0.346592    0.346765    0.346817    0.347042    0.347207
     0.347249    0.348839    0.349175    0.349355    0.349717    0.350916
     0.351224    0.396782    0.398500    0.544498    0.577328    0.996013
     1.019657
**WARNING** Hessian does not have the Desired Local Structure

 Transition State Search - Taking P-RFO Step
 Searching for Lamda that Maximizes Along the Lowest mode
 Value Taken    Lamda =   0.00208316
 Searching for Lamda that Minimizes Along All other modes
 Value Taken    Lamda =  -0.00033640
 Calculated Step too Large.  Step scaled by  0.063718
 Step Taken.  Stepsize is  0.300000

                             Maximum     Tolerance    Cnvgd?
         Gradient           0.001224      0.000001      NO
         Displacement       0.132422      0.000001      NO
         Energy change      0.000181      0.000000      NO


 New Cartesian Coordinates Obtained by Inverse Iteration

 Displacement from previous Coordinates is:  0.768396
 Adding empirical dispersion correction 
 ----------------------------------------------------------------
 Doing -D3(op) with
 s6 =   1.00000
 s8 =   0.78311
 a1 =   0.30000
 a2 =   4.25000
 n  =  10.00000
 -D3 energy without 3body term =     -0.0413955374 hartrees
 ----------------------------------------------------------------
             Standard Nuclear Orientation (Angstroms)
    I     Atom           X                Y                Z
 ----------------------------------------------------------------
    1      C      -0.3623235279     0.6214110431    -0.8810626451
    2      C      -0.0988200196    -0.9002790100    -0.5568941865
    3      C       0.7269880011     1.5478622121    -0.3608220613
    4      C       1.3122272735    -1.1754459229    -0.0754853651
    5      O       0.6382587251     1.7946920944     0.9506382737
    6      O       1.5953238902     2.0005184125    -1.0729152411
    7      O       2.0681238800    -1.6020042534    -1.1128481430
    8      O       1.7469795393    -1.0176818661     1.0381849287
    9      C       3.4687883017    -1.7922815013    -0.8409771173
   10      C       1.6977693957     2.5770129791     1.5281894835
   11      C      -1.7799582009     0.7858758487    -0.2462429144
   12      C      -2.7575288508    -0.0994188725    -1.0815118462
   13      C      -2.5129017398    -1.5057409870    -0.4775882409
   14      C      -1.2844151847    -1.2307294181     0.4246192294
   15      O      -1.6381689389     0.0471145228     0.9764360701
   16      H      -0.3759009383     0.7803336746    -1.9586358575
   17      H      -0.2158724852    -1.4717981407    -1.4771432325
   18      H       3.6085376703    -2.5156770062    -0.0366053262
   19      H       1.7563934329     3.5568174311     1.0515367215
   20      H      -3.7864032088     0.2330088538    -0.9340610999
   21      H      -2.5425266821    -0.0452455181    -2.1506572143
   22      H      -3.3490043097    -1.8142293867     0.1526579090
   23      H      -2.3371623145    -2.2882443332    -1.2185314059
   24      H       3.8960266035    -2.1615724108    -1.7704762544
   25      H       3.9281660074    -0.8430849780    -0.5607264157
   26      H       2.6509061837     2.0590344555     1.4141926111
   27      H       1.4413703902     2.6719008175     2.5805958115
   28      C      -1.0371891358    -2.2480377637     1.5154746173
   29      H      -1.9508265819    -2.3912098388     2.0971984377
   30      H      -0.7576785737    -3.2102657150     1.0765643647
   31      H      -0.2390597633    -1.9229817071     2.1809356008
   32      C      -2.2660680692     2.1965689594     0.0065612204
   33      H      -3.2679417361     2.1691891069     0.4404448631
   34      H      -1.6037294503     2.7227000181     0.6925749658
   35      H      -2.3148548734     2.7507277099    -0.9350992708
 ----------------------------------------------------------------
 Nuclear Repulsion Energy =  1401.6985592870 hartrees
 There are       65 alpha and       65 beta electrons
 Applying Cartesian multipole field
    Component          Value
    ---------          -----
     (2,0,0)        1.00000E-11
     (0,2,0)        2.00000E-11
     (0,0,2)       -3.00000E-11
 Nucleus-field energy     =     0.0000000278 hartrees
 Requested basis set is 6-311++G(d,p)
 There are 192 shells and 500 basis functions
 A cutoff of  1.0D-11 yielded  15057 shell pairs
 There are    103963 function pairs (    110804 Cartesian)
 Smallest overlap matrix eigenvalue = 4.34E-07

 Q-Chem warning in module /fs/scratch/osu6415/qchem-kaunlao-vdw/stvman/mkSTV.C, line 281:

 Overlap eigenvalue is smaller than square root of threshold

 Linear dependence detected in AO basis
 Number of orthogonalized atomic orbitals = 499
 Maximum deviation from orthogonality = 1.702E-10
 Guess MOs from SCF MO coefficient file
 Reading MOs from coefficient file
 Reading MOs from coefficient file
 A restricted hybrid HF-DFT SCF calculation will be
 performed using Pulay DIIS extrapolation
 Exchange:     0.2000 Hartree-Fock + 0.0800 Slater + 0.7200 B88
 Correlation:  0.1900 VWN1RPA + 0.8100 LYP
 Using SG-1 standard quadrature grid
 Dispersion:   Grimme D3
 SCF converges when DIIS error is below 1.0E-08
 Geometry optimization detected.  Setting ReadMinima to 0
 Setting SaveMinima to 0
 using 20 threads for integral computing
 -------------------------------------------------------
 OpenMP Integral computing Module                
 Release: version 1.0, May 2013, Q-Chem Inc. Pittsburgh 
 -------------------------------------------------------
 -------------------------------------------------------
 OpenMP BLAS3 based DFT computing Module                
 Release: version 1.0, May 2013, Q-Chem Inc. Pittsburgh 
 -------------------------------------------------------
 ---------------------------------------
  Cycle       Energy         DIIS Error
 ---------------------------------------
    1    -844.5141877929      1.02E-03
    2    -844.5243270107      2.30E-04
    3    -844.5222181948      3.89E-04
    4    -844.5257118530      6.58E-05
    5    -844.5257950426      2.71E-05
    6    -844.5258116070      5.75E-06
    7    -844.5258122213      2.43E-06
    8    -844.5258123416      1.02E-06
    9    -844.5258123623      3.64E-07
   10    -844.5258123661      8.32E-08
   11    -844.5258123663      2.32E-08
   12    -844.5258123662      1.08E-08
   13    -844.5258123710      4.11E-09 Convergence criterion met
 ---------------------------------------
 SCF time:  CPU 1058.26 s  wall 56.91 s
 SCF   energy in the final basis set = -844.52581237
 Total energy in the final basis set = -844.52581237
 
 --------------------------------------------------------------
 
                    Orbital Energies (a.u.)
 --------------------------------------------------------------
 
 Alpha MOs
 -- Occupied --
-19.175 -19.168 -19.124 -19.119 -19.113 -10.308 -10.303 -10.241
-10.239 -10.228 -10.222 -10.205 -10.204 -10.178 -10.176 -10.166
-10.162  -1.117  -1.112  -1.059  -1.030  -1.023  -0.831  -0.804
 -0.782  -0.747  -0.725  -0.723  -0.672  -0.643  -0.603  -0.581
 -0.565  -0.558  -0.518  -0.509  -0.504  -0.494  -0.484  -0.481
 -0.477  -0.469  -0.457  -0.438  -0.430  -0.425  -0.421  -0.411
 -0.406  -0.397  -0.394  -0.371  -0.370  -0.365  -0.359  -0.355
 -0.351  -0.348  -0.332  -0.327  -0.318  -0.308  -0.287  -0.276
 -0.269
 -- Virtual --
 -0.015  -0.013  -0.005  -0.001   0.001   0.006   0.013   0.019
  0.028   0.031   0.034   0.038   0.041   0.045   0.048   0.052
  0.058   0.063   0.064   0.073   0.075   0.082   0.088   0.089
  0.096   0.098   0.102   0.103   0.107   0.113   0.114   0.116
  0.119   0.121   0.125   0.130   0.131   0.133   0.137   0.138
  0.142   0.146   0.148   0.151   0.152   0.155   0.156   0.160
  0.162   0.163   0.167   0.168   0.170   0.173   0.176   0.180
  0.183   0.186   0.189   0.194   0.199   0.202   0.204   0.207
  0.211   0.213   0.218   0.221   0.222   0.224   0.228   0.231
  0.239   0.248   0.250   0.253   0.259   0.264   0.267   0.274
  0.283   0.286   0.289   0.301   0.303   0.305   0.308   0.314
  0.320   0.324   0.326   0.332   0.334   0.336   0.339   0.343
  0.349   0.354   0.357   0.360   0.364   0.370   0.373   0.374
  0.383   0.391   0.394   0.397   0.405   0.408   0.413   0.417
  0.426   0.427   0.446   0.448   0.451   0.455   0.462   0.469
  0.479   0.484   0.502   0.510   0.518   0.525   0.529   0.535
  0.542   0.565   0.572   0.578   0.587   0.593   0.599   0.602
  0.610   0.619   0.624   0.629   0.637   0.646   0.653   0.656
  0.658   0.667   0.672   0.677   0.684   0.694   0.700   0.702
  0.709   0.716   0.723   0.725   0.731   0.734   0.742   0.748
  0.752   0.759   0.769   0.779   0.780   0.786   0.799   0.803
  0.816   0.822   0.831   0.843   0.848   0.868   0.882   0.917
  0.921   0.960   0.969   0.982   0.993   1.016   1.030   1.050
  1.062   1.072   1.086   1.093   1.111   1.121   1.152   1.171
  1.174   1.185   1.205   1.216   1.221   1.229   1.241   1.254
  1.262   1.271   1.279   1.287   1.306   1.311   1.317   1.328
  1.343   1.357   1.379   1.385   1.387   1.409   1.427   1.431
  1.439   1.456   1.462   1.473   1.487   1.494   1.495   1.510
  1.524   1.533   1.545   1.553   1.554   1.567   1.570   1.581
  1.582   1.594   1.596   1.602   1.613   1.620   1.638   1.648
  1.656   1.664   1.677   1.691   1.694   1.709   1.717   1.721
  1.725   1.732   1.737   1.743   1.752   1.763   1.771   1.774
  1.790   1.801   1.811   1.814   1.825   1.839   1.853   1.864
  1.878   1.887   1.902   1.917   1.931   1.962   1.963   1.984
  1.999   2.005   2.012   2.026   2.037   2.044   2.054   2.059
  2.091   2.098   2.119   2.124   2.141   2.156   2.163   2.181
  2.191   2.207   2.213   2.238   2.242   2.249   2.262   2.304
  2.310   2.377   2.383   2.409   2.426   2.448   2.454   2.474
  2.479   2.489   2.499   2.506   2.512   2.520   2.524   2.535
  2.541   2.551   2.561   2.572   2.582   2.585   2.603   2.609
  2.617   2.644   2.656   2.661   2.677   2.681   2.692   2.709
  2.729   2.750   2.776   2.785   2.796   2.824   2.842   2.854
  2.867   2.875   2.885   2.890   2.908   2.920   2.947   2.957
  2.998   3.013   3.028   3.032   3.042   3.051   3.068   3.076
  3.085   3.099   3.110   3.122   3.128   3.145   3.168   3.189
  3.208   3.226   3.244   3.252   3.262   3.313   3.334   3.363
  3.377   3.389   3.405   3.422   3.550   3.597   3.620   3.660
  3.678   3.702   3.767   3.782   3.793   3.819   3.827   3.830
  3.842   3.853   3.868   3.952   3.986   4.055   4.081   4.106
  4.128   4.150   4.166   4.170   4.192   4.207   4.289   4.316
  4.448   4.497   5.061   5.068   5.130   5.179   5.241   5.249
  5.285   5.409   5.441   5.532   5.629   5.661   5.698   5.900
  5.906  23.766  23.849  23.860  23.885  23.901  23.933  23.945
 23.960  23.964  23.986  23.989  24.038  49.911  49.948  50.020
 50.047  50.066
 --------------------------------------------------------------
 
          Ground-State Mulliken Net Atomic Charges

     Atom                 Charge (a.u.)
  ----------------------------------------
      1 C                     0.489595
      2 C                     0.517231
      3 C                    -1.053504
      4 C                    -0.692671
      5 O                    -0.002129
      6 O                    -0.148424
      7 O                     0.020586
      8 O                    -0.157226
      9 C                    -0.197834
     10 C                    -0.213448
     11 C                    -0.381571
     12 C                    -0.255717
     13 C                    -0.584635
     14 C                    -0.709305
     15 O                     0.059485
     16 H                     0.279145
     17 H                     0.306844
     18 H                     0.172274
     19 H                     0.181118
     20 H                     0.171975
     21 H                     0.142849
     22 H                     0.167088
     23 H                     0.143714
     24 H                     0.156606
     25 H                     0.176621
     26 H                     0.179588
     27 H                     0.164308
     28 C                     0.043328
     29 H                     0.168227
     30 H                     0.147125
     31 H                     0.198305
     32 C                     0.024948
     33 H                     0.163863
     34 H                     0.163725
     35 H                     0.157917
  ----------------------------------------
  Sum of atomic charges =    -0.000000

 -----------------------------------------------------------------
                    Cartesian Multipole Moments
 -----------------------------------------------------------------
    Charge (ESU x 10^10)
                -0.0000
    Dipole Moment (Debye)
         X      -0.8592      Y      -1.1248      Z      -0.9463
       Tot       1.7027
    Quadrupole Moments (Debye-Ang)
        XX     -94.8201     XY      -3.2642     YY     -96.4046
        XZ       4.4472     YZ       6.2890     ZZ    -105.7147
    Octopole Moments (Debye-Ang^2)
       XXX      42.6842    XXY     -14.5334    XYY       8.0967
       YYY       3.4301    XXZ      -3.8320    XYZ      21.1546
       YYZ      17.5385    XZZ       3.2319    YZZ       3.1232
       ZZZ       4.6926
    Hexadecapole Moments (Debye-Ang^3)
      XXXX   -2173.9194   XXXY     -39.8082   XXYY    -645.1389
      XYYY      21.5067   YYYY   -1698.9874   XXXZ     -28.7307
      XXYZ      26.3254   XYYZ      24.4837   YYYZ      -4.2666
      XXZZ    -517.1149   XYZZ      16.5844   YYZZ    -399.8720
      XZZZ      17.5551   YZZZ     -23.7686   ZZZZ    -689.3717
 -----------------------------------------------------------------
 Calculating analytic gradient of the SCF energy
 Gradient of SCF Energy
            1           2           3           4           5           6
    1   0.0009400  -0.0010116   0.0004954  -0.0002562  -0.0002398  -0.0006461
    2   0.0009545   0.0000715  -0.0014531  -0.0009192  -0.0001957   0.0010220
    3  -0.0010326   0.0002563  -0.0006801   0.0010321   0.0004738   0.0001438
            7           8           9          10          11          12
    1   0.0003685   0.0003045  -0.0002643  -0.0002566  -0.0009593   0.0011311
    2   0.0005120  -0.0002332  -0.0000773   0.0000454  -0.0006012   0.0001402
    3  -0.0003742  -0.0005709  -0.0000019  -0.0000096   0.0003842  -0.0008241
           13          14          15          16          17          18
    1  -0.0010901   0.0014377   0.0000888   0.0002067  -0.0002507  -0.0000009
    2  -0.0003438   0.0010110   0.0000569   0.0002606   0.0000696   0.0000217
    3   0.0008429  -0.0000824  -0.0000971   0.0000910   0.0001010  -0.0000240
           19          20          21          22          23          24
    1   0.0000494  -0.0000416   0.0002420  -0.0000000  -0.0002170   0.0000221
    2  -0.0000436   0.0001763  -0.0001111   0.0002682  -0.0003638   0.0000190
    3  -0.0000466  -0.0000474   0.0002091  -0.0000346   0.0003823  -0.0000262
           25          26          27          28          29          30
    1   0.0000871   0.0000800   0.0000522   0.0000073  -0.0000071  -0.0000726
    2  -0.0000109   0.0000656  -0.0000276  -0.0002231  -0.0000269  -0.0000207
    3  -0.0001137   0.0000539  -0.0000305   0.0001446   0.0000285  -0.0000327
           31          32          33          34          35
    1  -0.0001897  -0.0001458   0.0000137   0.0000427   0.0000803
    2  -0.0000549   0.0000055  -0.0000220  -0.0000156   0.0000439
    3  -0.0000433  -0.0000546  -0.0000496   0.0000068   0.0000259
 Max gradient component =       1.453E-03
 RMS gradient           =       4.493E-04
 Gradient time:  CPU 397.03 s  wall 28.30 s
 Geometry Optimization Parameters
   NAtoms,    NIC,     NZ,  NCons,   NDum,   NFix, NCnnct, MaxDiis
       35     275       0       0       0       0       0       0

 Cartesian Hessian Update
 Hessian Updated using Powell/Murtagh-Sargent Update
  Mixing factors:     0.913126 Powell
                      0.086874 Murtagh-Sargent


** GEOMETRY OPTIMIZATION IN DELOCALIZED INTERNAL COORDINATES **
   Searching for a Transition State

   Optimization Cycle:   3

                       Coordinates (Angstroms)
     ATOM                X               Y               Z
      1  C        -0.3623235279    0.6214110431   -0.8810626451
      2  C        -0.0988200196   -0.9002790100   -0.5568941865
      3  C         0.7269880011    1.5478622121   -0.3608220613
      4  C         1.3122272735   -1.1754459229   -0.0754853651
      5  O         0.6382587251    1.7946920944    0.9506382737
      6  O         1.5953238902    2.0005184125   -1.0729152411
      7  O         2.0681238800   -1.6020042534   -1.1128481430
      8  O         1.7469795393   -1.0176818661    1.0381849287
      9  C         3.4687883017   -1.7922815013   -0.8409771173
     10  C         1.6977693957    2.5770129791    1.5281894835
     11  C        -1.7799582009    0.7858758487   -0.2462429144
     12  C        -2.7575288508   -0.0994188725   -1.0815118462
     13  C        -2.5129017398   -1.5057409870   -0.4775882409
     14  C        -1.2844151847   -1.2307294181    0.4246192294
     15  O        -1.6381689389    0.0471145228    0.9764360701
     16  H        -0.3759009383    0.7803336746   -1.9586358575
     17  H        -0.2158724852   -1.4717981407   -1.4771432325
     18  H         3.6085376703   -2.5156770062   -0.0366053262
     19  H         1.7563934329    3.5568174311    1.0515367215
     20  H        -3.7864032088    0.2330088538   -0.9340610999
     21  H        -2.5425266821   -0.0452455181   -2.1506572143
     22  H        -3.3490043097   -1.8142293867    0.1526579090
     23  H        -2.3371623145   -2.2882443332   -1.2185314059
     24  H         3.8960266035   -2.1615724108   -1.7704762544
     25  H         3.9281660074   -0.8430849780   -0.5607264157
     26  H         2.6509061837    2.0590344555    1.4141926111
     27  H         1.4413703902    2.6719008175    2.5805958115
     28  C        -1.0371891358   -2.2480377637    1.5154746173
     29  H        -1.9508265819   -2.3912098388    2.0971984377
     30  H        -0.7576785737   -3.2102657150    1.0765643647
     31  H        -0.2390597633   -1.9229817071    2.1809356008
     32  C        -2.2660680692    2.1965689594    0.0065612204
     33  H        -3.2679417361    2.1691891069    0.4404448631
     34  H        -1.6037294503    2.7227000181    0.6925749658
     35  H        -2.3148548734    2.7507277099   -0.9350992708
   Point Group: c1    Number of degrees of freedom:    99


   Energy is   -844.525812371

 Hessian Updated using Powell/Murtagh-Sargent Update
  Mixing factors:     0.997108 Powell
                      0.002892 Murtagh-Sargent

 89 Hessian modes will be used to form the next step
  Hessian Eigenvalues:
     0.000481    0.006395    0.007039    0.007336    0.007585    0.007624
     0.010445    0.010608    0.010717    0.011596    0.021904    0.023256
     0.023927    0.025604    0.035578    0.036684    0.038510    0.040062
     0.043809    0.046941    0.048156    0.050185    0.053966    0.055892
     0.057302    0.058109    0.058348    0.059831    0.059954    0.063244
     0.065347    0.065924    0.079700    0.084348    0.094321    0.100654
     0.101326    0.101339    0.106119    0.106340    0.111009    0.121741
     0.124355    0.151229    0.160000    0.160005    0.160019    0.177427
     0.231089    0.231723    0.249974    0.249984    0.250000    0.250011
     0.250254    0.251660    0.252196    0.261377    0.273046    0.302279
     0.307263    0.309863    0.311493    0.337298    0.343557    0.343823
     0.345287    0.345648    0.345793    0.346082    0.346368    0.346592
     0.346765    0.346817    0.347042    0.347207    0.347249    0.348839
     0.349176    0.349362    0.349725    0.350916    0.351224    0.396782
     0.398500    0.544501    0.577334    0.996015    1.019662
**WARNING** Hessian does not have the Desired Local Structure

 Transition State Search - Taking P-RFO Step
 Searching for Lamda that Maximizes Along the Lowest mode
 Value Taken    Lamda =   0.00081480
 Searching for Lamda that Minimizes Along All other modes
 Value Taken    Lamda =  -0.00053507
 Calculated Step too Large.  Step scaled by  0.189970
 Step Taken.  Stepsize is  0.300000

                             Maximum     Tolerance    Cnvgd?
         Gradient           0.002337      0.000001      NO
         Displacement       0.112013      0.000001      NO
         Energy change      0.000267      0.000000      NO


 New Cartesian Coordinates Obtained by Inverse Iteration

 Displacement from previous Coordinates is:  0.773146
 Adding empirical dispersion correction 
 ----------------------------------------------------------------
 Doing -D3(op) with
 s6 =   1.00000
 s8 =   0.78311
 a1 =   0.30000
 a2 =   4.25000
 n  =  10.00000
 -D3 energy without 3body term =     -0.0413556952 hartrees
 ----------------------------------------------------------------
             Standard Nuclear Orientation (Angstroms)
    I     Atom           X                Y                Z
 ----------------------------------------------------------------
    1      C      -0.3634203175     0.6590125238    -0.8752165337
    2      C      -0.0921039471    -0.8638538661    -0.5700112171
    3      C       0.7158423080     1.5821517339    -0.3252126808
    4      C       1.3258720749    -1.1390955045    -0.1123570822
    5      O       0.6050667814     1.8241793720     0.9849365064
    6      O       1.6181183344     2.0068318904    -1.0120879647
    7      O       2.0458463074    -1.6447047899    -1.1392624534
    8      O       1.7793025708    -0.9640404024     0.9915083232
    9      C       3.4429219775    -1.8755055954    -0.8798063119
   10      C       1.6747894292     2.5725447499     1.5882914655
   11      C      -1.7913093365     0.7960707279    -0.2589712138
   12      C      -2.7375746376    -0.1200498288    -1.1010085429
   13      C      -2.4927102862    -1.5099403973    -0.4610836592
   14      C      -1.2622466998    -1.2067965051     0.4266219182
   15      O      -1.6402350950     0.0683458410     0.9694859271
   16      H      -0.3597883331     0.8344798751    -1.9503668990
   17      H      -0.2248929736    -1.4268715722    -1.4935416529
   18      H       3.5687107473    -2.5676477273    -0.0461225930
   19      H       1.7704121385     3.5533964468     1.1197825849
   20      H      -3.7750833791     0.2022752235    -0.9998923886
   21      H      -2.4851435272    -0.0887385360    -2.1631153753
   22      H      -3.3240613164    -1.7947897222     0.1866373421
   23      H      -2.3268488821    -2.3146346575    -1.1802513099
   24      H       3.8408322582    -2.3014390997    -1.7980288700
   25      H       3.9408919991    -0.9326498166    -0.6485140845
   26      H       2.6143465243     2.0275876541     1.4885032896
   27      H       1.4007761644     2.6680902315     2.6362362815
   28      C      -0.9810061183    -2.2063103982     1.5250213088
   29      H      -1.8845032269    -2.3625096166     2.1190559070
   30      H      -0.6851720334    -3.1669833355     1.0935779560
   31      H      -0.1820713489    -1.8564667778     2.1773584864
   32      C      -2.3152023741     2.1956705490    -0.0202902108
   33      H      -3.3174516216     2.1460492155     0.4108629201
   34      H      -1.6696314344     2.7456037788     0.6630174085
   35      H      -2.3757480166     2.7395778457    -0.9672353117
 ----------------------------------------------------------------
 Nuclear Repulsion Energy =  1401.5563868037 hartrees
 There are       65 alpha and       65 beta electrons
 Applying Cartesian multipole field
    Component          Value
    ---------          -----
     (2,0,0)        1.00000E-11
     (0,2,0)        2.00000E-11
     (0,0,2)       -3.00000E-11
 Nucleus-field energy     =     0.0000000277 hartrees
 Requested basis set is 6-311++G(d,p)
 There are 192 shells and 500 basis functions
 A cutoff of  1.0D-11 yielded  15065 shell pairs
 There are    104029 function pairs (    110879 Cartesian)
 Smallest overlap matrix eigenvalue = 4.29E-07

 Q-Chem warning in module /fs/scratch/osu6415/qchem-kaunlao-vdw/stvman/mkSTV.C, line 281:

 Overlap eigenvalue is smaller than square root of threshold

 Linear dependence detected in AO basis
 Number of orthogonalized atomic orbitals = 499
 Maximum deviation from orthogonality = 1.359E-10
 Guess MOs from SCF MO coefficient file
 Reading MOs from coefficient file
 Reading MOs from coefficient file
 A restricted hybrid HF-DFT SCF calculation will be
 performed using Pulay DIIS extrapolation
 Exchange:     0.2000 Hartree-Fock + 0.0800 Slater + 0.7200 B88
 Correlation:  0.1900 VWN1RPA + 0.8100 LYP
 Using SG-1 standard quadrature grid
 Dispersion:   Grimme D3
 SCF converges when DIIS error is below 1.0E-08
 Geometry optimization detected.  Setting ReadMinima to 0
 Setting SaveMinima to 0
 using 20 threads for integral computing
 -------------------------------------------------------
 OpenMP Integral computing Module                
 Release: version 1.0, May 2013, Q-Chem Inc. Pittsburgh 
 -------------------------------------------------------
 -------------------------------------------------------
 OpenMP BLAS3 based DFT computing Module                
 Release: version 1.0, May 2013, Q-Chem Inc. Pittsburgh 
 -------------------------------------------------------
 ---------------------------------------
  Cycle       Energy         DIIS Error
 ---------------------------------------
    1    -844.5215574448      1.05E-03
    2    -844.5239643264      2.34E-04
    3    -844.5210963368      4.36E-04
    4    -844.5254036081      6.18E-05
    5    -844.5254818461      2.46E-05
    6    -844.5254953989      5.80E-06
    7    -844.5254960289      2.66E-06
    8    -844.5254961753      1.11E-06
    9    -844.5254962006      3.52E-07
   10    -844.5254962042      8.97E-08
   11    -844.5254962048      2.83E-08
   12    -844.5254962060      1.31E-08
   13    -844.5254962124      4.76E-09 Convergence criterion met
 ---------------------------------------
 SCF time:  CPU 1049.39 s  wall 57.48 s
 SCF   energy in the final basis set = -844.52549621
 Total energy in the final basis set = -844.52549621
 
 --------------------------------------------------------------
 
                    Orbital Energies (a.u.)
 --------------------------------------------------------------
 
 Alpha MOs
 -- Occupied --
-19.175 -19.167 -19.124 -19.119 -19.112 -10.308 -10.302 -10.241
-10.240 -10.228 -10.221 -10.205 -10.204 -10.178 -10.176 -10.167
-10.162  -1.117  -1.111  -1.059  -1.030  -1.022  -0.831  -0.804
 -0.782  -0.747  -0.725  -0.723  -0.671  -0.643  -0.603  -0.581
 -0.565  -0.558  -0.518  -0.509  -0.504  -0.494  -0.484  -0.481
 -0.477  -0.468  -0.457  -0.437  -0.431  -0.424  -0.421  -0.411
 -0.406  -0.397  -0.393  -0.372  -0.370  -0.365  -0.359  -0.355
 -0.351  -0.348  -0.332  -0.327  -0.317  -0.308  -0.287  -0.276
 -0.268
 -- Virtual --
 -0.015  -0.013  -0.005  -0.001   0.002   0.006   0.013   0.019
  0.028   0.031   0.034   0.038   0.041   0.045   0.048   0.052
  0.058   0.063   0.064   0.073   0.074   0.082   0.088   0.089
  0.096   0.098   0.102   0.104   0.108   0.113   0.114   0.117
  0.118   0.121   0.125   0.130   0.130   0.134   0.137   0.137
  0.142   0.146   0.147   0.151   0.153   0.155   0.157   0.160
  0.162   0.163   0.166   0.168   0.170   0.173   0.175   0.180
  0.183   0.187   0.189   0.195   0.199   0.201   0.204   0.207
  0.211   0.214   0.219   0.220   0.221   0.223   0.227   0.233
  0.239   0.248   0.250   0.255   0.260   0.263   0.267   0.273
  0.284   0.286   0.291   0.300   0.303   0.305   0.309   0.313
  0.318   0.325   0.327   0.331   0.333   0.336   0.340   0.342
  0.349   0.354   0.358   0.361   0.364   0.368   0.371   0.376
  0.383   0.390   0.395   0.397   0.405   0.408   0.413   0.418
  0.427   0.429   0.447   0.448   0.450   0.456   0.463   0.465
  0.480   0.484   0.501   0.510   0.518   0.525   0.531   0.533
  0.541   0.565   0.574   0.579   0.586   0.592   0.599   0.603
  0.610   0.619   0.628   0.632   0.638   0.645   0.650   0.654
  0.659   0.664   0.672   0.677   0.686   0.695   0.697   0.701
  0.708   0.716   0.722   0.725   0.731   0.735   0.744   0.746
  0.754   0.765   0.769   0.779   0.779   0.784   0.796   0.803
  0.815   0.824   0.831   0.842   0.848   0.865   0.879   0.913
  0.920   0.958   0.968   0.983   0.999   1.017   1.030   1.053
  1.058   1.070   1.080   1.095   1.109   1.120   1.152   1.166
  1.172   1.187   1.201   1.213   1.216   1.226   1.241   1.257
  1.262   1.272   1.277   1.292   1.308   1.311   1.315   1.329
  1.344   1.359   1.379   1.383   1.391   1.414   1.424   1.428
  1.440   1.454   1.458   1.472   1.488   1.493   1.496   1.510
  1.524   1.532   1.543   1.553   1.555   1.568   1.571   1.581
  1.585   1.593   1.597   1.604   1.614   1.622   1.639   1.650
  1.654   1.663   1.679   1.690   1.693   1.708   1.715   1.722
  1.727   1.732   1.742   1.742   1.752   1.764   1.771   1.774
  1.790   1.802   1.809   1.812   1.825   1.840   1.851   1.863
  1.879   1.886   1.901   1.915   1.934   1.956   1.963   1.983
  1.996   2.005   2.009   2.029   2.032   2.044   2.055   2.059
  2.094   2.096   2.117   2.127   2.142   2.157   2.164   2.182
  2.193   2.209   2.216   2.237   2.241   2.250   2.266   2.308
  2.311   2.374   2.381   2.411   2.425   2.446   2.451   2.474
  2.479   2.489   2.500   2.509   2.512   2.520   2.523   2.534
  2.542   2.552   2.560   2.570   2.583   2.586   2.601   2.612
  2.616   2.643   2.655   2.662   2.675   2.682   2.693   2.711
  2.732   2.750   2.773   2.778   2.794   2.826   2.842   2.855
  2.867   2.873   2.886   2.890   2.911   2.921   2.944   2.956
  2.994   3.011   3.029   3.033   3.041   3.051   3.066   3.079
  3.085   3.101   3.114   3.126   3.130   3.144   3.165   3.186
  3.204   3.228   3.248   3.249   3.264   3.304   3.335   3.364
  3.378   3.394   3.407   3.424   3.555   3.597   3.623   3.661
  3.678   3.703   3.758   3.781   3.793   3.819   3.827   3.829
  3.840   3.853   3.870   3.947   3.985   4.054   4.080   4.105
  4.125   4.153   4.165   4.171   4.194   4.206   4.288   4.319
  4.446   4.497   5.058   5.067   5.121   5.187   5.242   5.253
  5.285   5.407   5.441   5.533   5.629   5.662   5.695   5.902
  5.906  23.768  23.851  23.860  23.884  23.900  23.933  23.945
 23.960  23.965  23.986  23.990  24.034  49.910  49.947  50.022
 50.053  50.062
 --------------------------------------------------------------
 
          Ground-State Mulliken Net Atomic Charges

     Atom                 Charge (a.u.)
  ----------------------------------------
      1 C                     0.465393
      2 C                     0.509454
      3 C                    -1.005764
      4 C                    -0.744579
      5 O                    -0.000121
      6 O                    -0.149628
      7 O                     0.018054
      8 O                    -0.156190
      9 C                    -0.215339
     10 C                    -0.210105
     11 C                    -0.365781
     12 C                    -0.273147
     13 C                    -0.590936
     14 C                    -0.643369
     15 O                     0.058782
     16 H                     0.279320
     17 H                     0.312144
     18 H                     0.172784
     19 H                     0.179411
     20 H                     0.174213
     21 H                     0.144050
     22 H                     0.166032
     23 H                     0.145703
     24 H                     0.155295
     25 H                     0.177496
     26 H                     0.180203
     27 H                     0.163137
     28 C                     0.045227
     29 H                     0.168852
     30 H                     0.146551
     31 H                     0.197024
     32 C                     0.011497
     33 H                     0.163456
     34 H                     0.162361
     35 H                     0.158521
  ----------------------------------------
  Sum of atomic charges =    -0.000000

 -----------------------------------------------------------------
                    Cartesian Multipole Moments
 -----------------------------------------------------------------
    Charge (ESU x 10^10)
                -0.0000
    Dipole Moment (Debye)
         X      -0.9205      Y      -1.2159      Z      -0.9557
       Tot       1.7998
    Quadrupole Moments (Debye-Ang)
        XX     -95.2869     XY      -3.7345     YY     -96.3208
        XZ       4.3684     YZ       6.0037     ZZ    -105.1090
    Octopole Moments (Debye-Ang^2)
       XXX      40.4561    XXY     -16.6162    XYY       8.7271
       YYY       0.4998    XXZ      -4.4910    XYZ      21.2839
       YYZ      17.1628    XZZ       4.2634    YZZ       2.7185
       ZZZ       5.2922
    Hexadecapole Moments (Debye-Ang^3)
      XXXX   -2166.9135   XXXY     -30.0453   XXYY    -642.0713
      XYYY      31.2654   YYYY   -1706.4305   XXXZ     -30.8293
      XXYZ      22.8629   XYYZ      22.9199   YYYZ     -17.2073
      XXZZ    -514.9839   XYZZ      21.2988   YYZZ    -400.2751
      XZZZ      15.7289   YZZZ     -37.4694   ZZZZ    -697.7510
 -----------------------------------------------------------------
 Calculating analytic gradient of the SCF energy
 Gradient of SCF Energy
            1           2           3           4           5           6
    1   0.0024411  -0.0024640  -0.0019086   0.0016386   0.0011868   0.0002617
    2  -0.0004861  -0.0023833   0.0021827   0.0053025  -0.0012910  -0.0002179
    3  -0.0004742   0.0010091  -0.0018785  -0.0005446   0.0009950   0.0008483
            7           8           9          10          11          12
    1  -0.0002135  -0.0007034  -0.0002928  -0.0003241  -0.0011461   0.0010813
    2  -0.0011384  -0.0025950  -0.0001442  -0.0001062  -0.0005168   0.0001004
    3  -0.0001134   0.0002338   0.0000119  -0.0000849   0.0005905  -0.0004937
[...]
     0.00007375     -0.00002963      0.00010946
    -0.00000961     -0.00024700      0.00015593
     0.00010454     -0.00013869     -0.00005037
     0.00018541     -0.00016040      0.00011687
     0.01304942     -0.00221556     -0.01489693
     0.00096491     -0.00148846     -0.00235657
    -0.00125374      0.00066544      0.00136826
     0.00014057     -0.00023807     -0.00019427
    -0.00817946      0.00827207     -0.09863981
     0.00645427      0.05736511      0.08873160
    -0.00028078      0.00202074     -0.00197810
     0.00004590      0.00097115     -0.00049573
    -0.14012751      0.04443024      0.03706058
    -0.01501983     -0.01754358      0.13915553
    -0.00349049     -0.00251872      0.00496753
    -0.00652814      0.01985750      0.02159096
     0.00003760     -0.00012800     -0.00016786
     0.00052384      0.00123717      0.00058097
    -0.00113090      0.00066736      0.00025991
    -0.00012697      0.00007038      0.00093734
    -0.05738196      0.03804539      0.05502158
     0.62197490      0.09537327     -0.35687434
     0.13933901     -0.54186970     -0.26256053
    -0.07465543     -0.01158253     -0.04065544
    -0.00625953     -0.00332599      0.00838305
     0.08143169      0.00010546     -0.03594106
    -0.00303395     -0.00176732      0.00077664
    -0.00439498      0.04189070     -0.06543087
vibration 90
     0.00177329     -0.00182335      0.02318935
    -0.00342099     -0.03261274     -0.05115857
    -0.00023547      0.00015840      0.00045687
     0.00046023     -0.00057668     -0.00167604
    -0.00004058     -0.00004094     -0.00007907
     0.00003105      0.00001253     -0.00013478
     0.00001797      0.00006573      0.00022932
     0.00003721     -0.00002747      0.00053831
    -0.00047022      0.00016624     -0.00010888
     0.00017066     -0.00034540      0.00003023
     0.00015266      0.00025622     -0.00051592
    -0.01989709      0.00321888      0.02480382
    -0.00395235     -0.00325787      0.00115537
    -0.00028420     -0.00039710      0.00011138
    -0.00004069      0.00016536      0.00013226
    -0.02210879      0.02429209     -0.27317018
     0.04270380      0.38930296      0.60904695
     0.00086956     -0.00451256      0.00414584
    -0.00005468      0.00291202     -0.00148107
     0.21194984     -0.06809675     -0.05659942
     0.02626998      0.03007867     -0.23921348
     0.04988711      0.02398344     -0.03415679
    -0.00621147      0.01614594      0.02172203
     0.00152402     -0.00091851     -0.00321605
     0.00246747      0.00487592      0.00204765
    -0.00207826      0.00120254      0.00057941
     0.00003100      0.00002658      0.00042478
    -0.00136718      0.00055535      0.00228443
     0.02577558      0.00425294     -0.01523749
     0.00201240     -0.00799423     -0.00434171
    -0.01071280     -0.00333306     -0.00813880
     0.02655320      0.01344864     -0.03823352
    -0.36447491      0.00091697      0.16145183
     0.02946024      0.01827945      0.01320627
     0.01877243     -0.18165948      0.28428259
vibration 91
     0.00155945     -0.00139876      0.01484853
    -0.00215008     -0.01997856     -0.03105031
     0.00000932      0.00005663      0.00044369
     0.00024356     -0.00030831     -0.00098624
     0.00005429     -0.00006263     -0.00010119
     0.00000193      0.00001963     -0.00012898
     0.00002540      0.00003944      0.00013070
     0.00001808     -0.00001719      0.00033007
    -0.00025432      0.00039744     -0.00012374
    -0.00011554      0.00035343     -0.00023343
    -0.00118693     -0.00018188      0.00152347
    -0.01303192      0.00236392      0.01445227
     0.01086405     -0.00549800     -0.01650859
     0.00031840     -0.00020365     -0.00036862
    -0.00002383      0.00043566     -0.00022602
    -0.01406807      0.01560802     -0.17895231
     0.02558297      0.23703646      0.37068225
     0.00080343     -0.00438092      0.00415656
     0.00008137     -0.00355796      0.00189111
     0.14272197     -0.04366732     -0.03658364
     0.01520665      0.01539997     -0.13836922
    -0.09793778     -0.04554124      0.06664831
    -0.03389434      0.11090620      0.13112250
     0.00098738     -0.00053260     -0.00204645
     0.00077593      0.00095774      0.00042351
     0.00175691     -0.00083013     -0.00044734
    -0.00029768      0.00022488      0.00137533
     0.00766618     -0.00562930     -0.00719633
    -0.07855564     -0.01204354      0.04535539
    -0.02029481      0.07862129      0.03771100
     0.00688375      0.00067609      0.00357695
    -0.04000876     -0.02090656      0.05994800
     0.55832447     -0.00288563     -0.24810553
    -0.04999638     -0.03178712     -0.02658035
    -0.02960947      0.28566566     -0.44567570
vibration 92
    -0.00369076      0.00388278     -0.04429738
     0.00000729     -0.00176338     -0.00244709
     0.00082116      0.00055754     -0.00097567
     0.00042540     -0.00017969      0.00005413
    -0.00000726     -0.00000217      0.00010190
    -0.00026476     -0.00016149      0.00036580
    -0.00009968      0.00000801      0.00002624
    -0.00005088      0.00003404     -0.00010198
     0.00005750     -0.00017793      0.00014057
     0.00025834      0.00004460      0.00009847
    -0.00124840     -0.00014991      0.00089760
    -0.03346166      0.00604365      0.03587261
    -0.03620630      0.00882446      0.04648806
    -0.00134936      0.00024979      0.00113322
     0.00027558     -0.00018082     -0.00022567
     0.04544711     -0.04559753      0.52225180
     0.00351650      0.01979827      0.02834649
    -0.00032450      0.00188341     -0.00182550
    -0.00015450     -0.00144797      0.00049365
     0.36718772     -0.11729117     -0.09584131
     0.03512827      0.04339142     -0.33275267
     0.35421867      0.16796552     -0.24259877
     0.08061120     -0.27127644     -0.31441980
    -0.00020929      0.00005186      0.00022523
    -0.00001579      0.00014611      0.00005789
    -0.00300554      0.00140496      0.00048667
     0.00012969     -0.00033783     -0.00211310
    -0.00865126      0.00663271      0.00994968
     0.10417196      0.01694173     -0.06131081
     0.02343693     -0.09088102     -0.04349236
    -0.02190846     -0.00556610     -0.01613316
    -0.00617619     -0.00257427      0.01220057
     0.10768359     -0.00219306     -0.04798852
    -0.02630432     -0.01701797     -0.02180915
    -0.00502285      0.05013537     -0.07808180
vibration 93
    -0.00555822      0.00573423     -0.06331419
    -0.00190680     -0.01930658     -0.02936909
     0.00099681      0.00078401     -0.00156420
     0.00045907     -0.00048128     -0.00095241
    -0.00000203      0.00010053      0.00032750
    -0.00036316     -0.00023189      0.00060100
    -0.00006194      0.00003575      0.00019198
     0.00004509      0.00001021      0.00039670
    -0.00030908     -0.00013603      0.00011531
    -0.00010178      0.00046066      0.00034227
    -0.00009142      0.00077174     -0.00107043
     0.01945183     -0.00255003     -0.02769022
     0.01764718     -0.00666526     -0.02468729
     0.00035109     -0.00109675     -0.00040331
    -0.00021475      0.00005429      0.00082121
     0.06344611     -0.06639803      0.75066787
     0.02285175      0.22844718      0.35352678
     0.00022453     -0.00059374      0.00045278
    -0.00021508     -0.00399644      0.00178295
    -0.20429774      0.06565080      0.05413047
    -0.03030132     -0.03513776      0.27845100
    -0.16609195     -0.07911669      0.11476142
    -0.04756747      0.15754074      0.18319528
     0.00107895     -0.00067520     -0.00234193
     0.00172908      0.00364233      0.00153881
     0.00081198     -0.00070697     -0.00040723
     0.00061164     -0.00048563     -0.00507006
     0.00285960     -0.00200117     -0.00258574
    -0.02876783     -0.00470483      0.01714849
    -0.00753941      0.02949959      0.01349008
     0.00135521     -0.00015155      0.00086628
     0.00349535      0.00221212     -0.00438818
    -0.04109137      0.00060353      0.01879416
    -0.00381005     -0.00192830     -0.00418423
     0.00299763     -0.02577980      0.03839161
vibration 94
     0.00012364     -0.00008154      0.00016190
    -0.00006028     -0.00024669     -0.00003930
    -0.00021015      0.00002659      0.00004905
     0.00002308      0.00021642      0.00019539
    -0.00005374      0.00014201     -0.00003161
     0.00004912      0.00006413     -0.00003414
     0.00010547      0.00033362     -0.00008954
    -0.00010205      0.00011596     -0.00006673
    -0.00855186     -0.08365840      0.01333012
     0.02323629     -0.03440946      0.00657692
    -0.00000688     -0.00002066      0.00003995
    -0.00000232     -0.00000137      0.00001398
     0.00010784     -0.00008132     -0.00017409
     0.00000507     -0.00002831     -0.00002862
    -0.00000617      0.00003749     -0.00000862
    -0.00013673      0.00015929     -0.00171179
    -0.00015382      0.00044085      0.00056878
    -0.07220586      0.44736172     -0.44354686
    -0.00340921      0.26848274     -0.14263821
     0.00005817      0.00004017      0.00000265
     0.00001319      0.00001500     -0.00027053
    -0.00091244     -0.00040596      0.00057589
    -0.00039756      0.00139294      0.00164215
    -0.02944000     -0.00272935      0.05339484
     0.20338247      0.54422290      0.23140231
    -0.27608613      0.14533174      0.06458231
     0.00490164     -0.00699034      0.00005506
     0.00010954     -0.00029757     -0.00033305
    -0.00200084     -0.00030224      0.00105550
    -0.00085207      0.00344971      0.00166333
     0.00163763      0.00043735      0.00123112
    -0.00040060     -0.00013998      0.00014990
     0.00379820      0.00002882     -0.00168211
     0.00097423      0.00074368      0.00133977
    -0.00019426      0.00091822     -0.00145033
vibration 95
    -0.00007426      0.00016471      0.00031795
     0.00003525     -0.00010510      0.00003754
     0.00007535     -0.00017242      0.00013222
    -0.00011580      0.00005890     -0.00016285
     0.00013382     -0.00029091     -0.00000447
     0.00011188     -0.00011587     -0.00004253
     0.00004494      0.00017233     -0.00000217
     0.00004122      0.00011442      0.00009636
    -0.00437787     -0.04123082      0.00690460
    -0.04697996      0.06970248     -0.01390005
    -0.00002902      0.00000412     -0.00000427
    -0.00015665      0.00002105      0.00018794
    -0.00012623      0.00003050      0.00015690
    -0.00004158      0.00002369      0.00001690
     0.00001669     -0.00002050     -0.00000044
    -0.00034444      0.00022768     -0.00407150
     0.00000204      0.00004704     -0.00011294
    -0.03567683      0.22119125     -0.21924842
     0.00704914     -0.54449119      0.28924153
     0.00168600     -0.00055724     -0.00045732
     0.00017195      0.00022815     -0.00168554
     0.00125387      0.00056228     -0.00082416
     0.00027616     -0.00098059     -0.00110112
    -0.01253107     -0.00226803      0.02277715
     0.10044068      0.26836508      0.11411554
     0.55913065     -0.29412567     -0.13075018
    -0.01085133      0.01475199      0.00662662
    -0.00008138     -0.00001944      0.00003382
     0.00101267      0.00017965     -0.00060007
     0.00001088     -0.00002457      0.00002644
     0.00003624     -0.00002562      0.00013517
     0.00076526      0.00023509      0.00017954
    -0.00485522     -0.00010049      0.00222224
    -0.00400030     -0.00272439     -0.00439059
     0.00017489      0.00009914     -0.00001637
vibration 96
     0.00004165     -0.00000591     -0.00158421
     0.00002594     -0.00021098     -0.00024866
     0.00010406      0.00002141     -0.00023621
    -0.00001979     -0.00001882     -0.00005011
    -0.00061209      0.00022289      0.00005285
    -0.00000615     -0.00001665      0.00005342
     0.00000564      0.00000284      0.00000604
     0.00001836      0.00001664      0.00002345
    -0.00003794     -0.00009989      0.00008327
    -0.00003999      0.00075217     -0.00095981
    -0.00152752     -0.00011930     -0.00089552
    -0.00124223      0.00062595      0.00160088
    -0.00008070      0.00006627     -0.00002308
     0.00002441     -0.00011589      0.00000115
     0.00015734     -0.00005493      0.00016665
     0.00122385     -0.00130136      0.01869330
     0.00016260      0.00230627      0.00335889
    -0.00010615      0.00072430     -0.00069988
     0.00051300     -0.00847458      0.00429329
     0.01850880     -0.00420538     -0.00404359
     0.00131676      0.00126821     -0.01184376
     0.00091515      0.00019160     -0.00047796
     0.00024227     -0.00030106      0.00033470
     0.00031216     -0.00017858     -0.00056704
     0.00024924      0.00060751      0.00027281
     0.00135355     -0.00083805     -0.00073250
    -0.00150916      0.00086470      0.00817207
     0.00086764      0.00046213      0.00057756
    -0.00274190     -0.00029782      0.00167302
     0.00077010     -0.00227810     -0.00113000
    -0.00840364     -0.00297560     -0.00735442
    -0.07026299     -0.02258280     -0.05304297
     0.25581101     -0.00171513     -0.13407349
     0.60086747      0.39604044      0.57917162
    -0.00350789     -0.12941864      0.19237916
vibration 97
     0.00000346      0.00006014     -0.00035100
     0.00002869     -0.00022543     -0.00073040
    -0.00000061      0.00001100     -0.00004177
     0.00007795     -0.00010124     -0.00025755
    -0.00000744      0.00000171      0.00000617
    -0.00000430     -0.00000595      0.00000521
    -0.00003259      0.00005363      0.00004835
    -0.00048032     -0.00023692      0.00029897
    -0.00008013      0.00026768      0.00033284
     0.00000180      0.00006506     -0.00006766
    -0.00002604      0.00007843     -0.00008732
    -0.00009954     -0.00005346      0.00005309
    -0.00060504     -0.00004551      0.00140780
    -0.00116510     -0.00086153     -0.00055773
     0.00010087      0.00015631      0.00011235
     0.00028755     -0.00034131      0.00396943
     0.00016927      0.00432961      0.00772701
    -0.00002198     -0.00005261      0.00016557
     0.00000740     -0.00068494      0.00032589
     0.00172024     -0.00030852     -0.00049538
     0.00004271      0.00033640      0.00029866
     0.01176030      0.00453883     -0.00635944
     0.00144257     -0.00487398     -0.00584192
     0.00175384     -0.00085415     -0.00324293
    -0.00075402     -0.00214438     -0.00085054
     0.00006971     -0.00001241     -0.00003306
    -0.00006766      0.00005282      0.00045314
    -0.07044431     -0.03572196     -0.04488142
     0.23507425      0.02635894     -0.14855695
    -0.06214603      0.17664993      0.08517489
     0.67804755      0.23247880      0.59755571
    -0.00086503     -0.00026777     -0.00061795
     0.00344136     -0.00004920     -0.00181667
     0.00721149      0.00485318      0.00696706
    -0.00004796     -0.00167716      0.00240226
vibration 98
    -0.00000512      0.00000978     -0.00009849
    -0.00000117     -0.00000071      0.00005616
     0.00002185      0.00002738     -0.00008701
    -0.00090719      0.00003452     -0.00079503
     0.00000315     -0.00000886      0.00003187
    -0.00002456     -0.00001548      0.00003637
    -0.00006861      0.00007097      0.00035218
     0.00028920      0.00000046      0.00043169
     0.02448156     -0.01641836     -0.08973423
    -0.00023712      0.00027147      0.00004873
    -0.00001102      0.00000212     -0.00000522
    -0.00000903      0.00001082     -0.00003209
    -0.00000205     -0.00001816     -0.00000901
    -0.00002732      0.00000539     -0.00000937
     0.00000967     -0.00000513      0.00000761
     0.00016691     -0.00014522      0.00121101
     0.00033923      0.00009372      0.00031234
     0.03985513     -0.25082407      0.21772323
     0.00008956     -0.00180088      0.00095958
     0.00020480     -0.00006432     -0.00005613
    -0.00005983     -0.00005978      0.00045627
     0.00012050      0.00003429     -0.00006316
    -0.00005337      0.00013961      0.00016260
    -0.41311176      0.21378839      0.77201050
     0.08881610      0.23087945      0.07468296
     0.00267140     -0.00127455     -0.00066733
     0.00008999     -0.00000577     -0.00090475
    -0.00033109     -0.00012199     -0.00013457
     0.00168689      0.00020497     -0.00095476
    -0.00020890      0.00035335      0.00017822
     0.00250599      0.00087528      0.00244016
    -0.00005834     -0.00000465     -0.00004539
     0.00035164     -0.00000630     -0.00017494
     0.00038420      0.00028233      0.00038528
     0.00000575     -0.00021819      0.00033130
vibration 99
    -0.00009000     -0.00000155     -0.00022203
    -0.00001702     -0.00001764     -0.00002216
     0.00098335      0.00071612     -0.00014613
     0.00000914      0.00001494     -0.00008697
    -0.00015387     -0.00006576      0.00028903
    -0.00038819     -0.00024230      0.00019487
    -0.00001488     -0.00000761      0.00003063
     0.00000744      0.00000175      0.00005242
     0.00006723      0.00025316     -0.00013353
     0.03111112      0.00324748     -0.08907507
     0.00004354     -0.00001096     -0.00003240
     0.00006693     -0.00001274     -0.00008691
     0.00004818     -0.00000443     -0.00005095
     0.00001683     -0.00000673     -0.00001478
    -0.00001296     -0.00000494      0.00002375
     0.00033791     -0.00027089      0.00348139
     0.00004352      0.00016829      0.00035505
     0.00023164     -0.00168726      0.00154012
     0.01651366     -0.26409312      0.12157009
    -0.00092651      0.00022245      0.00021032
    -0.00006632     -0.00009713      0.00090341
    -0.00053148     -0.00024005      0.00034835
    -0.00007274      0.00029505      0.00033091
    -0.00040714      0.00026266      0.00076683
    -0.00066114     -0.00149871     -0.00079064
    -0.24909737      0.14249335      0.03978456
    -0.13984620      0.07973974      0.89235924
     0.00006635     -0.00000218     -0.00001175
    -0.00056959     -0.00010590      0.00034904
    -0.00003680      0.00026575      0.00013920
    -0.00027025     -0.00014902     -0.00028601
     0.00074215      0.00030810      0.00038548
    -0.00330366      0.00002295      0.00163723
    -0.00611592     -0.00397783     -0.00616647
     0.00021248      0.00032526     -0.00028484
[INT]
    0.418939
    0.213814
    4.184037
    2.314787
    0.340212
    1.637378
    0.423738
    0.053513
    1.120174
    0.550255
    2.159335
    2.468924
    3.603581
    0.818166
    3.867936
    0.825203
   11.202191
    3.177544
    5.606000
   10.353141
    0.086670
    2.092589
   10.580657
   13.764054
    2.163018
    4.601001
    0.862696
    3.694911
    0.309879
    1.927666
    5.791410
   26.927972
    1.501065
    5.372688
    2.220125
   13.943210
   13.427449
   12.538644
   19.940042
    6.662998
    2.651058
    3.655014
    0.807633
   62.036005
   45.788730
   10.625055
   28.782771
   24.815012
   58.958605
    4.420406
    2.113074
  236.391634
    4.408442
   52.909591
   49.167119
    4.479553
   15.579814
  135.952164
   12.550052
   14.766838
  130.424089
   17.798604
   16.624135
    7.137373
   27.552473
   54.305376
   14.917967
   16.687287
   15.935078
   11.075378
    1.199962
    6.102274
    2.460620
    3.393233
    6.271335
    6.149527
    3.147812
   13.901787
    9.549865
  227.168603
  254.629770
   17.818009
   14.462763
   14.127515
   52.656607
   38.653857
   35.183435
    1.324083
   14.934488
    3.082779
    9.711365
   34.246257
   30.383893
   31.779674
    6.576452
    9.272327
    3.482724
   12.859822
   10.491471

======= END OF MOLDEN-FORMATTED INPUT FILE =======


        *************************************************************
        *                                                           *
        *  Thank you very much for using Q-Chem.  Have a nice day.  *
        *                                                           *
        *************************************************************


