mFile = /opt/software/qchem/qchem-5.0.1//bin/mpi/machines
Process 0 of 1 is on vega01.cac.cornell.edu - thread support 0
initial socket setup ...start
initial socket setup ...done 
now start server 0 ... 
localhost 127.0.0
Q-Chem Developer Version! Running on 127.0.0.*
                  Welcome to Q-Chem
     A Quantum Leap Into The Future Of Chemistry


 Q-Chem 5.0, Q-Chem, Inc., Pleasanton, CA (2017)

 Yihan Shao,  Zhengting Gan,  E. Epifanovsky,  A. T. B. Gilbert,  M. Wormit,  
 J. Kussmann,  A. W. Lange,  A. Behn,  Jia Deng,  Xintian Feng,  D. Ghosh,  
 M. Goldey,  P. R. Horn,  L. D. Jacobson,  I. Kaliman,  T. Kus,  A. Landau,  
 Jie Liu,  E. I. Proynov,  R. M. Richard,  R. P. Steele,  E. J. Sundstrom,  
 H. L. Woodcock III,  P. M. Zimmerman,  D. Zuev,  B. Albrecht,  E. Alguire,  
 S. A. Baeppler,  Z. Benda,  Y. A. Bernard,  E. J. Berquist,  K. B. Bravaya,  
 D. Casanova,  Chun-Min Chang,  Yunqing Chen,  A. Chien,  K. D. Closser,  
 M. P. Coons,  S. Dasgupta,  M. Diedenhofen,  Hainam Do,  R. G. Edgar,  
 Po-Tung Fang,  S. Fatehi,  Qingguo Feng,  Qinghui Ge,  A. Ghysels,  
 J. Gomes,  J. Gonthier,  A. Gunina,  M. W. D. Hanson-Heine,  
 P. H. P. Harbach,  A. W. Hauser,  J. E. Herr,  E. G. Hohenstein,  
 Z. C. Holden,  Kerwin Hui,  T.-C. Jagau,  Hyunjun Ji,  B. Kaduk,  
 K. Khistyaev,  Jaehoon Kim,  P. Klunzinger,  K. Koh,  D. Kosenkov,  
 T. Kowalczyk,  C. M. Krauter,  A. Kunitsa,  Ka Un Lao,  A. Laurent,  
 K. V. Lawler,  Joonho Lee,  D. Lefrancois,  S. Lehtola,  D. S. Levine,  
 Yi-Pei Li,  You-Sheng Lin,  Fenglai Liu,  E. Livshits,  A. Luenser,  
 P. Manohar,  E. Mansoor,  S. F. Manzer,  Shan-Ping Mao,  Yuezhi Mao,  
 N. Mardirossian,  A. V. Marenich,  L. A. Martinez-Martinez,  S. A. Maurer,  
 N. J. Mayhall,  S. C. McKenzie,  J.-M. Mewes,  A. F. Morrison,  K. Nanda,  
 T. S. Nguyen-Beck,  R. Olivares-Amaya,  J. A. Parkhill,  T. M. Perrine,  
 F. Plasser,  S. Prager,  A. Prociuk,  D. R. Rehn,  F. Rob,  M. Schneider,  
 N. Sergueev,  S. M. Sharada,  S. Sharma,  D. W. Small,  T. Stauch,  
 T. Stein,  Yu-Chuan Su,  A. J. W. Thom,  T. Tsuchimochi,  L. Vogt,  
 O. Vydrov,  M. A. Watson,  J. Wenzel,  M. de Wergifosse,  T. A. Wesolowski,  
 A. White,  J. Witte,  A. Yamada,  Jun Yang,  K. Yao,  S. Yeganeh,  
 S. R. Yost,  Zhi-Qiang You,  A. Zech,  Igor Ying Zhang,  Xing Zhang,  
 Yan Zhao,  Ying Zhu,  B. R. Brooks,  G. K. L. Chan,  C. J. Cramer,  
 M. S. Gordon,  W. J. Hehre,  A. Klamt,  M. W. Schmidt,  C. D. Sherrill,  
 D. G. Truhlar,  A. Aspuru-Guzik,  R. Baer,  A. T. Bell,  N. A. Besley,  
 Jeng-Da Chai,  A. Dreuw,  B. D. Dunietz,  T. R. Furlani,  Chao-Ping Hsu,  
 Yousung Jung,  Jing Kong,  D. S. Lambrecht,  WanZhen Liang,  C. Ochsenfeld,  
 V. A. Rassolov,  L. V. Slipchenko,  J. E. Subotnik,  T. Van Voorhis,  
 J. M. Herbert,  A. I. Krylov,  P. M. W. Gill,  M. Head-Gordon

 Contributors to earlier versions of Q-Chem not listed above: 
 R. D. Adamson,  B. Austin,  J. Baker,  G. J. O. Beran,  K. Brandhorst,  
 S. T. Brown,  E. F. C. Byrd,  A. K. Chakraborty,  C.-L. Cheng,  
 Siu Hung Chien,  D. M. Chipman,  D. L. Crittenden,  H. Dachsel,  
 R. A. DiStasio Jr.,  R. J. Doerksen,  A. D. Dutoi,  L. Fusti-Molnar,  
 W. A. Goddard III,  A. Golubeva-Zadorozhnaya,  S. R. Gwaltney,  G. Hawkins,  
 A. Heyden,  S. Hirata,  G. Kedziora,  F. J. Keil,  C. Kelley,  Jihan Kim,  
 R. A. King,  R. Z. Khaliullin,  P. P. Korambath,  W. Kurlancheek,  
 A. M. Lee,  M. S. Lee,  S. V. Levchenko,  Ching Yeh Lin,  D. Liotard,  
 R. C. Lochan,  I. Lotan,  P. E. Maslen,  N. Nair,  D. P. O'Neill,  
 D. Neuhauser,  E. Neuscamman,  C. M. Oana,  R. Olson,  B. Peters,  
 R. Peverati,  P. A. Pieniazek,  Y. M. Rhee,  J. Ritchie,  M. A. Rohrdanz,  
 E. Rosta,  N. J. Russ,  H. F. Schaefer III,  N. E. Schultz,  N. Shenvi,  
 A. C. Simmonett,  A. Sodt,  D. Stuck,  K. S. Thanthiriwatte,  V. Vanovschi,  
 Tao Wang,  A. Warshel,  C. F. Williams,  Q. Wu,  X. Xu,  W. Zhang

 Please cite Q-Chem as follows:
 Y. Shao et al., Mol. Phys. 113, 184-215 (2015)
 DOI: 10.1080/00268976.2014.952696

 Q-Chem 5.0.1 for Intel X86 EM64T Linux

 Parts of Q-Chem use Armadillo 5.200.1 (Boston Tea Smuggler).
 http://arma.sourceforge.net/

 Q-Chem begins on Mon Apr 16 01:43:44 2018  

Host: vega01.cac.cornell.edu
0

     Scratch files written to /scratch/jj585/vdw/1001_distance_5.900_11.save//
 Parallel job on  1  processors

Checking the input file for inconsistencies... 	...done.

--------------------------------------------------------------
User input:
--------------------------------------------------------------
$molecule
0  1
--
0  1
C        +0.22270000        +1.04488000        +0.58595000
C        +0.62626000        -0.41353000        +0.99871000
C        -1.18200000        +1.23223000        +0.04377000
C        -0.37457000        -1.51643000        +0.72333000
O        -2.09172000        +0.78832000        +0.93966000
O        -1.47336000        +1.75939000        -0.99882000
O        -0.91364000        -1.42792000        -0.50620000
O        -0.62208000        -2.40877000        +1.49911000
C        -1.86134000        -2.44741000        -0.86560000
C        -3.47068000        +0.87492000        +0.53920000
C        +1.33008000        +1.39974000        -0.43491000
C        +2.63070000        +1.71700000        +0.32855000
C        +3.04336000        +0.29351000        +0.80300000
C        +1.94423000        -0.59299000        +0.15262000
O        +1.62840000        +0.13663000        -1.04376000
H        +0.27811000        +1.68786000        +1.46900000
H        +0.83923000        -0.48042000        +2.06408000
H        -2.68749000        -2.46677000        -0.15296000
H        -3.76076000        +1.91522000        +0.38406000
H        +3.37234000        +2.13782000        -0.35195000
H        +2.48236000        +2.42488000        +1.14651000
H        +4.02182000        +0.00994000        +0.41161000
H        +3.07359000        +0.18738000        +1.88928000
H        -2.21148000        -2.17765000        -1.85937000
H        -1.38062000        -3.42697000        -0.88096000
H        -4.03855000        +0.43623000        +1.35671000
H        -3.63120000        +0.31700000        -0.38495000
H        +1.03270000        +2.19943000        -1.08064000
H        +2.24339000        -1.61496000        +0.04786000
--
0  1
C        +0.25348000        +2.78827000        +6.22241000
C        +0.65704000        +1.32986000        +6.63517000
C        -1.15122000        +2.97562000        +5.68023000
C        -0.34379000        +0.22696000        +6.35979000
O        -2.06094000        +2.53171000        +6.57612000
O        -1.44258000        +3.50278000        +4.63764000
O        -0.88286000        +0.31547000        +5.13026000
O        -0.59130000        -0.66538000        +7.13557000
C        -1.83056000        -0.70402000        +4.77086000
C        -3.43990000        +2.61831000        +6.17566000
C        +1.36086000        +3.14313000        +5.20155000
C        +2.66148000        +3.46039000        +5.96501000
C        +3.07414000        +2.03690000        +6.43946000
C        +1.97501000        +1.15040000        +5.78908000
O        +1.65918000        +1.88002000        +4.59270000
H        +0.30889000        +3.43125000        +7.10546000
H        +0.87001000        +1.26297000        +7.70054000
H        -2.65671000        -0.72338000        +5.48350000
H        -3.72998000        +3.65861000        +6.02052000
H        +3.40312000        +3.88121000        +5.28451000
H        +2.51314000        +4.16827000        +6.78297000
H        +4.05260000        +1.75333000        +6.04807000
H        +3.10437000        +1.93077000        +7.52574000
H        -2.18070000        -0.43426000        +3.77709000
H        -1.34984000        -1.68358000        +4.75550000
H        -4.00777000        +2.17962000        +6.99317000
H        -3.60042000        +2.06039000        +5.25151000
H        +1.06348000        +3.94282000        +4.55582000
H        +2.27417000        +0.12843000        +5.68432000
$end

$rem
JOBTYPE                   SP
METHOD                    B3LYP
DFT_D                     d3_op
BASIS                     6-311++G(d,p)
SYMMETRY                  False
THRESH                    12
SCF_CONVERGENCE           8
MAX_SUB_FILE_NUM          128
MEM_STATIC                400
MEM_TOTAL                 4000
$end
--------------------------------------------------------------
 Adding empirical dispersion correction 
 ----------------------------------------------------------------
 Doing -D3(op) with
 s6 =   1.00000
 s8 =   0.78311
 a1 =   0.30000
 a2 =   4.25000
 n  =  10.00000
 -D3 energy without 3body term =     -0.0682480970 hartrees
 ----------------------------------------------------------------
             Standard Nuclear Orientation (Angstroms)
    I     Atom           X                Y                Z
 ----------------------------------------------------------------
    1      C      -2.1986115708     0.6005505854     0.8584218185
    2      C      -2.2835249108     0.6813486716    -0.7056921842
    3      C      -2.7121277241    -0.6746437661     1.5006225590
    4      C      -2.9624047205    -0.4653103561    -1.4255383632
    5      O      -2.0631217717    -1.7469224990     0.9943863975
    6      O      -3.5282697784    -0.7431779652     2.3832308720
    7      O      -4.1141576643    -0.8341843552    -0.8359863000
    8      O      -2.5460591701    -0.9588583917    -2.4465345450
    9      C      -4.8413395441    -1.9040970880    -1.4630084431
   10      C      -2.4761796323    -3.0316423992     1.4926598514
   11      C      -2.9857253306     1.8639859678     1.2809785449
   12      C      -2.0988413990     3.1040693620     1.0556620325
   13      C      -2.1135392636     3.1930237708    -0.4979099626
   14      C      -3.0766181783     2.0329411864    -0.8769225651
   15      O      -3.9701779410     1.9950985185     0.2471494613
   16      H      -1.1487927967     0.6702972907     1.1572307705
   17      H      -1.2943666765     0.7546044458    -1.1540707175
   18      H      -4.2173357214    -2.7963167688    -1.5359308141
   19      H      -2.2847706584    -3.1074587061     2.5641323934
   20      H      -2.5611700234     3.9832392505     1.5067852555
   21      H      -1.0980343237     2.9941679661     1.4781123760
   22      H      -2.5305015928     4.1418181177    -0.8398364926
   23      H      -1.1266874914     3.0782770197    -0.9508320653
   24      H      -5.7012628964    -2.0825583805    -0.8214239317
   25      H      -5.1634405850    -1.6114423145    -2.4637429457
   26      H      -1.8827843110    -3.7601388311     0.9445514731
   27      H      -3.5409454248    -3.1837995560     1.3076824848
   28      H      -3.3370816805     1.7936056096     2.2891955424
   29      H      -3.5057433233     2.1508536748    -1.8499807849
   30      C       3.6901723197     0.3001620435     0.6534134086
   31      C       3.6052589797     0.3809601298    -0.9107005940
   32      C       3.1766561663    -0.9750323079     1.2956141492
   33      C       2.9263791699    -0.7656988979    -1.6305467730
   34      O       3.8256621187    -2.0473110408     0.7893779877
   35      O       2.3605141120    -1.0435665071     2.1782224622
   36      O       1.7746262261    -1.1345728970    -1.0409947099
   37      O       3.3427247203    -1.2592469336    -2.6515429548
   38      C       1.0474443463    -2.2044856298    -1.6680168529
   39      C       3.4126042581    -3.3320309411     1.2876514416
   40      C       2.9030585598     1.5635974260     1.0759701351
   41      C       3.7899424914     2.8036808202     0.8506536227
   42      C       3.7752446268     2.8926352290    -0.7029183724
   43      C       2.8121657121     1.7325526446    -1.0819309750
   44      O       1.9186059494     1.6947099767     0.0421410515
   45      H       4.7399910937     0.3699087489     0.9522223607
   46      H       4.5944172139     0.4542159040    -1.3590791273
   47      H       1.6714481690    -3.0967053106    -1.7409392239
   48      H       3.6040132320    -3.4078472479     2.3591239836
   49      H       3.3276138670     3.6828507086     1.3017768457
   50      H       4.7907495668     2.6937794242     1.2731039662
   51      H       3.3582822977     3.8414295759    -1.0448449024
   52      H       4.7620963990     2.7778884779    -1.1558404751
   53      H       0.1875209940    -2.3829469223    -1.0264323415
   54      H       0.7253433054    -1.9118308564    -2.6687513555
   55      H       4.0059995794    -4.0605273730     0.7395430633
   56      H       2.3478384656    -3.4841880978     1.1026740750
   57      H       2.5517022099     1.4932170678     2.0841871325
   58      H       2.3830405671     1.8504651330    -2.0549891947
 ----------------------------------------------------------------
 Molecular Point Group                 C1    NOp =  1
 Largest Abelian Subgroup              C1    NOp =  1
 Nuclear Repulsion Energy =  3302.1195867895 hartrees
 There are      114 alpha and      114 beta electrons
 Requested basis set is 6-311++G(d,p)
 There are 320 shells and 856 basis functions

 Total QAlloc Memory Limit   4000 MB
 Mega-Array Size       392 MB
 MEM_STATIC part       400 MB
 A cutoff of  1.0D-12 yielded  35801 shell pairs
 There are    252998 function pairs (    268108 Cartesian)
 Smallest overlap matrix eigenvalue = 7.67E-07
 Linear dependence detected in AO basis
 Number of orthogonalized atomic orbitals = 854
 Maximum deviation from orthogonality = 1.090E-10

 Scale SEOQF with 1.000000e-02/1.000000e-01/1.000000e-01

 Standard Electronic Orientation quadrupole field applied
 Nucleus-field energy     =     0.0000000214 hartrees
 Guess from superposition of atomic densities
 Warning:  Energy on first SCF cycle will be non-variational
 A restricted hybrid HF-DFT SCF calculation will be
 performed using Pulay DIIS extrapolation
 Exchange:     0.2000 Hartree-Fock + 0.0800 Slater + 0.7200 B88
 Correlation:  0.1900 VWN1RPA + 0.8100 LYP
 Using SG-1 standard quadrature grid
 Dispersion:   Grimme D3
 SCF converges when DIIS error is below 1.0E-08
 ---------------------------------------
  Cycle       Energy         DIIS Error
 ---------------------------------------
    1   -1537.8596253850      2.18E-02
    2   -1531.1549637072      2.78E-03
    3   -1530.1896458967      4.75E-03
    4   -1531.6463791647      1.03E-03
    5   -1531.7188292401      3.09E-04
    6   -1531.7245813340      9.54E-05
    7   -1531.7251472676      3.21E-05
    8   -1531.7252112233      1.05E-05
    9   -1531.7252194332      3.35E-06
   10   -1531.7252199839      1.19E-06
   11   -1531.7252198446      2.48E-07
   12   -1531.7252199231      1.19E-07
   13   -1531.7252198807      2.80E-08
   14   -1531.7252198639      1.47E-08
   15   -1531.7252198660      5.36E-09 Convergence criterion met
 ---------------------------------------
 SCF time:  CPU 6806.12 s  wall 6822.17 s
 SCF   energy in the final basis set = -1531.72521987
 Total energy in the final basis set = -1531.72521987
 
 --------------------------------------------------------------
 
                    Orbital Energies (a.u.)
 --------------------------------------------------------------
 
 Alpha MOs
 -- Occupied --
-19.179 -19.173 -19.171 -19.171 -19.144 -19.129 -19.123 -19.116
-19.114 -19.113 -10.313 -10.307 -10.303 -10.303 -10.247 -10.238
-10.235 -10.234 -10.229 -10.228 -10.223 -10.223 -10.211 -10.209
-10.199 -10.197 -10.187 -10.185 -10.174 -10.171  -1.122  -1.116
 -1.114  -1.109  -1.072  -1.058  -1.035  -1.027  -1.026  -1.025
 -0.837  -0.825  -0.790  -0.782  -0.778  -0.771  -0.742  -0.735
 -0.728  -0.725  -0.661  -0.652  -0.614  -0.604  -0.601  -0.588
 -0.582  -0.575  -0.569  -0.562  -0.554  -0.546  -0.523  -0.513
 -0.509  -0.501  -0.500  -0.491  -0.489  -0.486  -0.483  -0.480
 -0.476  -0.474  -0.472  -0.468  -0.465  -0.455  -0.443  -0.433
 -0.429  -0.426  -0.423  -0.420  -0.419  -0.413  -0.400  -0.395
 -0.389  -0.377  -0.377  -0.375  -0.373  -0.371  -0.366  -0.364
 -0.361  -0.360  -0.356  -0.348  -0.341  -0.340  -0.330  -0.327
 -0.322  -0.316  -0.312  -0.310  -0.294  -0.286  -0.285  -0.280
 -0.278  -0.269
 -- Virtual --
 -0.023  -0.016  -0.012  -0.011  -0.006  -0.001   0.002   0.005
  0.006   0.009   0.013   0.016   0.017   0.018   0.024   0.029
  0.030   0.035   0.035   0.040   0.042   0.044   0.045   0.046
  0.049   0.053   0.055   0.064   0.065   0.066   0.069   0.072
  0.077   0.079   0.084   0.088   0.090   0.090   0.094   0.095
  0.098   0.100   0.101   0.104   0.105   0.106   0.108   0.108
  0.112   0.113   0.117   0.117   0.120   0.122   0.123   0.127
  0.128   0.130   0.130   0.133   0.135   0.137   0.138   0.140
  0.143   0.146   0.146   0.147   0.148   0.151   0.152   0.152
  0.156   0.157   0.159   0.159   0.161   0.163   0.166   0.168
  0.169   0.172   0.173   0.174   0.175   0.176   0.180   0.182
  0.185   0.185   0.188   0.189   0.191   0.193   0.196   0.199
  0.201   0.202   0.203   0.206   0.208   0.208   0.214   0.216
  0.218   0.221   0.223   0.224   0.227   0.230   0.232   0.236
  0.238   0.241   0.242   0.245   0.247   0.249   0.254   0.258
  0.259   0.260   0.262   0.265   0.268   0.270   0.274   0.275
  0.277   0.279   0.282   0.282   0.284   0.287   0.292   0.295
  0.296   0.298   0.298   0.304   0.308   0.310   0.313   0.314
  0.315   0.318   0.323   0.326   0.327   0.331   0.335   0.337
  0.340   0.341   0.343   0.345   0.349   0.350   0.352   0.354
  0.357   0.358   0.363   0.364   0.366   0.370   0.372   0.374
  0.377   0.377   0.379   0.384   0.385   0.388   0.389   0.390
  0.395   0.399   0.402   0.404   0.408   0.412   0.414   0.418
  0.419   0.427   0.430   0.436   0.437   0.440   0.442   0.449
  0.452   0.453   0.463   0.467   0.472   0.480   0.483   0.486
  0.489   0.492   0.499   0.507   0.511   0.516   0.518   0.524
  0.527   0.531   0.533   0.539   0.543   0.546   0.549   0.554
  0.559   0.565   0.570   0.572   0.577   0.581   0.588   0.589
  0.597   0.601   0.603   0.609   0.613   0.618   0.623   0.629
  0.633   0.636   0.641   0.644   0.648   0.653   0.656   0.660
  0.664   0.669   0.672   0.675   0.677   0.680   0.681   0.686
  0.687   0.691   0.696   0.698   0.703   0.708   0.713   0.715
  0.718   0.723   0.725   0.733   0.735   0.740   0.741   0.743
  0.749   0.751   0.757   0.762   0.767   0.767   0.769   0.777
  0.779   0.782   0.785   0.791   0.795   0.799   0.806   0.811
  0.814   0.817   0.825   0.830   0.833   0.838   0.844   0.850
  0.853   0.860   0.863   0.866   0.871   0.882   0.894   0.933
  0.939   0.948   0.957   0.966   0.971   0.983   0.995   0.997
  1.005   1.019   1.030   1.042   1.050   1.060   1.070   1.079
  1.085   1.093   1.099   1.116   1.126   1.135   1.140   1.146
  1.149   1.159   1.169   1.174   1.178   1.187   1.189   1.196
  1.204   1.210   1.211   1.215   1.217   1.222   1.230   1.238
  1.247   1.255   1.259   1.264   1.265   1.273   1.277   1.282
  1.285   1.296   1.302   1.313   1.318   1.323   1.324   1.328
  1.339   1.343   1.351   1.359   1.367   1.373   1.377   1.388
  1.398   1.400   1.402   1.408   1.410   1.423   1.433   1.441
  1.447   1.453   1.456   1.469   1.476   1.479   1.485   1.489
  1.491   1.497   1.517   1.523   1.525   1.533   1.538   1.545
  1.547   1.553   1.556   1.566   1.566   1.569   1.574   1.575
  1.578   1.581   1.587   1.592   1.601   1.604   1.615   1.619
  1.625   1.632   1.635   1.637   1.644   1.656   1.661   1.666
  1.667   1.672   1.680   1.685   1.688   1.690   1.696   1.700
  1.705   1.710   1.715   1.719   1.722   1.727   1.732   1.739
  1.745   1.749   1.755   1.761   1.764   1.768   1.776   1.792
  1.800   1.809   1.811   1.819   1.823   1.825   1.836   1.841
  1.843   1.848   1.858   1.863   1.871   1.879   1.889   1.894
  1.897   1.899   1.910   1.924   1.926   1.932   1.937   1.947
  1.952   1.959   1.972   1.980   1.982   1.992   1.996   2.005
  2.016   2.020   2.029   2.031   2.033   2.036   2.054   2.061
  2.068   2.071   2.092   2.101   2.107   2.121   2.123   2.129
  2.142   2.149   2.155   2.157   2.165   2.168   2.173   2.184
  2.185   2.186   2.200   2.207   2.217   2.219   2.223   2.232
  2.246   2.261   2.271   2.276   2.283   2.297   2.306   2.317
  2.344   2.357   2.387   2.403   2.430   2.437   2.447   2.456
  2.462   2.469   2.476   2.482   2.496   2.502   2.511   2.512
  2.516   2.523   2.528   2.530   2.531   2.542   2.547   2.558
  2.562   2.569   2.577   2.586   2.588   2.593   2.602   2.614
  2.627   2.628   2.632   2.650   2.666   2.679   2.684   2.693
  2.711   2.717   2.722   2.730   2.735   2.750   2.757   2.766
  2.777   2.781   2.783   2.798   2.805   2.813   2.826   2.836
  2.843   2.854   2.857   2.862   2.866   2.867   2.872   2.883
  2.885   2.887   2.888   2.894   2.910   2.917   2.920   2.927
  2.932   2.943   2.954   2.971   2.980   2.991   2.999   3.013
  3.020   3.029   3.043   3.046   3.051   3.055   3.060   3.069
  3.080   3.095   3.096   3.099   3.106   3.114   3.132   3.141
  3.148   3.152   3.158   3.166   3.176   3.182   3.190   3.202
  3.218   3.225   3.234   3.243   3.245   3.248   3.261   3.267
  3.273   3.283   3.312   3.329   3.340   3.349   3.355   3.362
  3.385   3.390   3.391   3.405   3.408   3.416   3.429   3.441
  3.590   3.598   3.602   3.604   3.651   3.665   3.689   3.713
  3.721   3.732   3.780   3.785   3.790   3.799   3.839   3.847
  3.864   3.883   3.917   3.922   3.935   3.949   4.033   4.036
  4.048   4.062   4.065   4.071   4.075   4.079   4.091   4.095
  4.125   4.138   4.145   4.154   4.160   4.167   4.174   4.180
  4.221   4.228   4.248   4.255   4.393   4.405   4.488   4.500
  5.059   5.060   5.117   5.129   5.159   5.163   5.192   5.212
  5.216   5.221   5.256   5.266   5.277   5.278   5.411   5.432
  5.436   5.448   5.509   5.530   5.616   5.624   5.644   5.647
  5.659   5.662   5.893   5.894   5.900   5.913  23.837  23.841
 23.851  23.855  23.856  23.871  23.887  23.896  23.901  23.918
 23.932  23.944  23.950  23.956  23.961  23.969  23.974  23.982
 24.056  24.074  49.907  49.923  49.943  49.949  49.979  49.985
 50.035  50.039  50.046  50.051
 --------------------------------------------------------------
 
          Ground-State Mulliken Net Atomic Charges

     Atom                 Charge (a.u.)
  ----------------------------------------
      1 C                    -0.112009
      2 C                     0.767059
      3 C                    -0.609753
      4 C                    -0.744488
      5 O                     0.042063
      6 O                    -0.191005
      7 O                     0.004676
      8 O                    -0.139064
      9 C                    -0.199285
     10 C                    -0.231539
     11 C                    -0.356389
     12 C                    -0.276014
     13 C                    -0.435862
     14 C                    -0.146396
     15 O                    -0.090838
     16 H                     0.212423
     17 H                     0.342137
     18 H                     0.185917
     19 H                     0.184708
     20 H                     0.198570
     21 H                     0.115253
     22 H                     0.191283
     23 H                     0.088948
     24 H                     0.172535
     25 H                     0.175232
     26 H                     0.133703
     27 H                     0.183665
     28 H                     0.284090
     29 H                     0.264494
     30 C                    -0.020002
     31 C                     0.279549
     32 C                    -0.443859
     33 C                    -0.557289
     34 O                     0.009278
     35 O                    -0.136264
     36 O                    -0.017236
     37 O                    -0.153058
     38 C                    -0.299825
     39 C                    -0.169726
     40 C                    -0.203504
     41 C                    -0.607582
     42 C                    -0.447527
     43 C                    -0.096865
     44 O                     0.107500
     45 H                     0.246724
     46 H                     0.286014
     47 H                     0.206309
     48 H                     0.170382
     49 H                     0.184700
     50 H                     0.134251
     51 H                     0.180597
     52 H                     0.130914
     53 H                     0.127520
     54 H                     0.200572
     55 H                     0.166891
     56 H                     0.182293
     57 H                     0.269006
     58 H                     0.256124
  ----------------------------------------
  Sum of atomic charges =     0.000000

 -----------------------------------------------------------------
                    Cartesian Multipole Moments
 -----------------------------------------------------------------
    Charge (ESU x 10^10)
                 0.0000
    Dipole Moment (Debye)
         X       3.1548      Y      -0.0136      Z       0.5942
       Tot       3.2103
    Quadrupole Moments (Debye-Ang)
        XX    -177.5812     XY      14.1000     YY    -153.1461
        XZ      17.6128     YZ      -6.6320     ZZ    -193.2675
    Octopole Moments (Debye-Ang^2)
       XXX      66.6359    XXY     -31.2883    XYY      -2.1643
       YYY     -88.0419    XXZ     -10.4205    XYZ     -22.3798
       YYZ      16.9920    XZZ     -12.1581    YZZ      25.6714
       ZZZ      21.6696
    Hexadecapole Moments (Debye-Ang^3)
      XXXX  -10221.2950   XXXY     411.8890   XXYY   -2233.0419
      XYYY     -51.3295   YYYY   -3971.3612   XXXZ     487.4918
      XXYZ     -64.5058   XYYZ      43.7228   YYYZ     -68.0939
      XXZZ   -2233.1462   XYZZ       7.2586   YYZZ   -1037.2147
      XZZZ     118.2190   YZZZ     -51.4223   ZZZZ   -2430.7355
 -----------------------------------------------------------------
Archival summary:
1\1\vega01.cac.cornell.edu\SP\ProcedureUnspecified\BasisUnspecified\102028\jj585\MonApr1603:37:292018MonApr1603:37:292018\0\\#,ProcedureUnspecified,BasisUnspecified,\\0,1\O\C,1,1.34543\O,2,1.20804,1,123.598\C,1,1.43759,2,116.484,3,1.88648,0\H,4,1.08763,1,105.353,2,177.393,0\H,4,1.09122,1,110.39,2,57.5626,0\H,4,1.09127,1,110.468,2,-63.158,0\C,2,1.51456,1,112.521,3,177.156,0\H,8,1.08851,2,105.218,1,169.467,0\C,8,1.5685,2,117.337,1,44.9607,0\H,10,1.09374,8,108.73,2,123.22,0\C,10,1.51731,8,116.554,2,4.55568,0\O,12,1.20407,10,125.979,8,-126.895,0\O,12,1.35176,10,110.223,8,56.6764,0\C,14,1.43854,12,116.158,10,-178.482,0\H,15,1.08777,14,105.482,12,177.492,0\H,15,1.09107,14,110.6,12,-62.8398,0\H,15,1.09137,14,110.239,12,57.9539,0\C,10,1.54738,8,101.696,2,-119.387,0\H,19,1.07,10,111.755,8,159.179,0\O,19,1.43358,10,103.124,8,32.1918,0\C,21,1.43646,19,98.0224,10,-55.9256,0\H,22,1.07,21,117.714,19,-178.733,0\C,19,1.54115,10,108.926,8,-76.1436,0\H,24,1.09096,19,110.128,10,-170.072,0\H,24,1.09186,19,112.95,10,-49.1929,0\C,22,1.55466,21,102.371,19,-54.4128,0\H,27,1.09132,22,109.614,21,-87.4148,0\H,27,1.09187,22,112.355,21,152.676,0\O,5,3.09089,4,158.065,1,28.8292,0\C,30,1.35176,5,139.26,4,17.5297,0\O,31,1.20407,30,123.697,5,-174.787,0\C,30,1.43854,5,104.582,4,-162.265,0\H,33,1.08777,30,105.482,5,-2.65651,0\H,33,1.09107,30,110.6,5,117.011,0\H,33,1.09137,30,110.239,5,-122.195,0\C,31,1.51731,30,110.223,5,1.73891,0\H,37,1.09374,31,105.237,30,-63.8664,0\C,37,1.54738,31,113.483,30,174.335,0\H,39,1.07,37,111.755,31,33.1865,0\O,39,1.43358,37,103.124,31,-93.8005,0\C,41,1.43646,39,98.0224,37,-55.9256,0\H,42,1.07,41,117.714,39,-178.733,0\C,39,1.54115,37,108.926,31,157.864,0\H,44,1.09096,39,110.128,37,-170.072,0\H,44,1.09186,39,112.95,37,-49.1929,0\C,42,1.55466,41,102.371,39,-54.4128,0\H,47,1.09132,42,109.614,41,-87.4148,0\H,47,1.09187,42,112.355,41,152.676,0\C,37,1.5685,31,116.554,30,56.6764,0\H,50,1.08851,37,111.41,31,-116.783,0\C,50,1.51456,37,117.337,31,4.55568,0\O,52,1.20804,50,123.816,37,-137.891,0\O,52,1.34543,50,112.521,37,44.9607,0\C,54,1.43759,52,116.484,50,179.042,0\H,55,1.08763,54,105.353,52,177.393,0\H,55,1.09122,54,110.39,52,57.5626,0\H,55,1.09127,54,110.468,52,-63.158,0\\\@

 Total job time:  6824.59s(wall), 6808.36s(cpu) 
 Mon Apr 16 03:37:29 2018

        *************************************************************
        *                                                           *
        *  Thank you very much for using Q-Chem.  Have a nice day.  *
        *                                                           *
        *************************************************************


0 sent ACK to 0 
now end server 0 ... 
