mFile = /opt/software/qchem/qchem-5.0.1//bin/mpi/machines
Process 0 of 1 is on vega01.cac.cornell.edu - thread support 0
initial socket setup ...start
initial socket setup ...done 
now start server 0 ... 
localhost 127.0.0
Q-Chem Developer Version! Running on 127.0.0.*
                  Welcome to Q-Chem
     A Quantum Leap Into The Future Of Chemistry


 Q-Chem 5.0, Q-Chem, Inc., Pleasanton, CA (2017)

 Yihan Shao,  Zhengting Gan,  E. Epifanovsky,  A. T. B. Gilbert,  M. Wormit,  
 J. Kussmann,  A. W. Lange,  A. Behn,  Jia Deng,  Xintian Feng,  D. Ghosh,  
 M. Goldey,  P. R. Horn,  L. D. Jacobson,  I. Kaliman,  T. Kus,  A. Landau,  
 Jie Liu,  E. I. Proynov,  R. M. Richard,  R. P. Steele,  E. J. Sundstrom,  
 H. L. Woodcock III,  P. M. Zimmerman,  D. Zuev,  B. Albrecht,  E. Alguire,  
 S. A. Baeppler,  Z. Benda,  Y. A. Bernard,  E. J. Berquist,  K. B. Bravaya,  
 D. Casanova,  Chun-Min Chang,  Yunqing Chen,  A. Chien,  K. D. Closser,  
 M. P. Coons,  S. Dasgupta,  M. Diedenhofen,  Hainam Do,  R. G. Edgar,  
 Po-Tung Fang,  S. Fatehi,  Qingguo Feng,  Qinghui Ge,  A. Ghysels,  
 J. Gomes,  J. Gonthier,  A. Gunina,  M. W. D. Hanson-Heine,  
 P. H. P. Harbach,  A. W. Hauser,  J. E. Herr,  E. G. Hohenstein,  
 Z. C. Holden,  Kerwin Hui,  T.-C. Jagau,  Hyunjun Ji,  B. Kaduk,  
 K. Khistyaev,  Jaehoon Kim,  P. Klunzinger,  K. Koh,  D. Kosenkov,  
 T. Kowalczyk,  C. M. Krauter,  A. Kunitsa,  Ka Un Lao,  A. Laurent,  
 K. V. Lawler,  Joonho Lee,  D. Lefrancois,  S. Lehtola,  D. S. Levine,  
 Yi-Pei Li,  You-Sheng Lin,  Fenglai Liu,  E. Livshits,  A. Luenser,  
 P. Manohar,  E. Mansoor,  S. F. Manzer,  Shan-Ping Mao,  Yuezhi Mao,  
 N. Mardirossian,  A. V. Marenich,  L. A. Martinez-Martinez,  S. A. Maurer,  
 N. J. Mayhall,  S. C. McKenzie,  J.-M. Mewes,  A. F. Morrison,  K. Nanda,  
 T. S. Nguyen-Beck,  R. Olivares-Amaya,  J. A. Parkhill,  T. M. Perrine,  
 F. Plasser,  S. Prager,  A. Prociuk,  D. R. Rehn,  F. Rob,  M. Schneider,  
 N. Sergueev,  S. M. Sharada,  S. Sharma,  D. W. Small,  T. Stauch,  
 T. Stein,  Yu-Chuan Su,  A. J. W. Thom,  T. Tsuchimochi,  L. Vogt,  
 O. Vydrov,  M. A. Watson,  J. Wenzel,  M. de Wergifosse,  T. A. Wesolowski,  
 A. White,  J. Witte,  A. Yamada,  Jun Yang,  K. Yao,  S. Yeganeh,  
 S. R. Yost,  Zhi-Qiang You,  A. Zech,  Igor Ying Zhang,  Xing Zhang,  
 Yan Zhao,  Ying Zhu,  B. R. Brooks,  G. K. L. Chan,  C. J. Cramer,  
 M. S. Gordon,  W. J. Hehre,  A. Klamt,  M. W. Schmidt,  C. D. Sherrill,  
 D. G. Truhlar,  A. Aspuru-Guzik,  R. Baer,  A. T. Bell,  N. A. Besley,  
 Jeng-Da Chai,  A. Dreuw,  B. D. Dunietz,  T. R. Furlani,  Chao-Ping Hsu,  
 Yousung Jung,  Jing Kong,  D. S. Lambrecht,  WanZhen Liang,  C. Ochsenfeld,  
 V. A. Rassolov,  L. V. Slipchenko,  J. E. Subotnik,  T. Van Voorhis,  
 J. M. Herbert,  A. I. Krylov,  P. M. W. Gill,  M. Head-Gordon

 Contributors to earlier versions of Q-Chem not listed above: 
 R. D. Adamson,  B. Austin,  J. Baker,  G. J. O. Beran,  K. Brandhorst,  
 S. T. Brown,  E. F. C. Byrd,  A. K. Chakraborty,  C.-L. Cheng,  
 Siu Hung Chien,  D. M. Chipman,  D. L. Crittenden,  H. Dachsel,  
 R. A. DiStasio Jr.,  R. J. Doerksen,  A. D. Dutoi,  L. Fusti-Molnar,  
 W. A. Goddard III,  A. Golubeva-Zadorozhnaya,  S. R. Gwaltney,  G. Hawkins,  
 A. Heyden,  S. Hirata,  G. Kedziora,  F. J. Keil,  C. Kelley,  Jihan Kim,  
 R. A. King,  R. Z. Khaliullin,  P. P. Korambath,  W. Kurlancheek,  
 A. M. Lee,  M. S. Lee,  S. V. Levchenko,  Ching Yeh Lin,  D. Liotard,  
 R. C. Lochan,  I. Lotan,  P. E. Maslen,  N. Nair,  D. P. O'Neill,  
 D. Neuhauser,  E. Neuscamman,  C. M. Oana,  R. Olson,  B. Peters,  
 R. Peverati,  P. A. Pieniazek,  Y. M. Rhee,  J. Ritchie,  M. A. Rohrdanz,  
 E. Rosta,  N. J. Russ,  H. F. Schaefer III,  N. E. Schultz,  N. Shenvi,  
 A. C. Simmonett,  A. Sodt,  D. Stuck,  K. S. Thanthiriwatte,  V. Vanovschi,  
 Tao Wang,  A. Warshel,  C. F. Williams,  Q. Wu,  X. Xu,  W. Zhang

 Please cite Q-Chem as follows:
 Y. Shao et al., Mol. Phys. 113, 184-215 (2015)
 DOI: 10.1080/00268976.2014.952696

 Q-Chem 5.0.1 for Intel X86 EM64T Linux

 Parts of Q-Chem use Armadillo 5.200.1 (Boston Tea Smuggler).
 http://arma.sourceforge.net/

 Q-Chem begins on Mon Apr 16 17:55:37 2018  

Host: vega01.cac.cornell.edu
0

     Scratch files written to /scratch/jj585/vdw/1101_distance_5.900_11.save//
 Parallel job on  1  processors

Checking the input file for inconsistencies... 	...done.

--------------------------------------------------------------
User input:
--------------------------------------------------------------
$molecule
0  1
--
0  1
C        +0.22270000        +1.04488000        +0.58595000
C        +0.62626000        -0.41353000        +0.99871000
C        -1.18200000        +1.23223000        +0.04377000
C        -0.37457000        -1.51643000        +0.72333000
O        -2.09172000        +0.78832000        +0.93966000
O        -1.47336000        +1.75939000        -0.99882000
O        -0.91364000        -1.42792000        -0.50620000
O        -0.62208000        -2.40877000        +1.49911000
C        -1.86134000        -2.44741000        -0.86560000
C        -3.47068000        +0.87492000        +0.53920000
C        +1.33008000        +1.39974000        -0.43491000
C        +2.63070000        +1.71700000        +0.32855000
C        +3.04336000        +0.29351000        +0.80300000
C        +1.94423000        -0.59299000        +0.15262000
O        +1.62840000        +0.13663000        -1.04376000
H        +0.27811000        +1.68786000        +1.46900000
H        +0.83923000        -0.48042000        +2.06408000
H        -2.68749000        -2.46677000        -0.15296000
H        -3.76076000        +1.91522000        +0.38406000
H        +3.37234000        +2.13782000        -0.35195000
H        +2.48236000        +2.42488000        +1.14651000
H        +4.02182000        +0.00994000        +0.41161000
H        +3.07359000        +0.18738000        +1.88928000
H        -2.21148000        -2.17765000        -1.85937000
H        -1.38062000        -3.42697000        -0.88096000
H        -4.03855000        +0.43623000        +1.35671000
H        -3.63120000        +0.31700000        -0.38495000
C        +2.35450000        -2.01267000        -0.16812000
H        +3.26311000        -2.00678000        -0.77366000
H        +2.54990000        -2.57059000        +0.75079000
H        +1.57335000        -2.52896000        -0.72872000
H        +1.03270000        +2.19943000        -1.08064000
--
0  1
C        +0.25348000        +2.78827000        +6.22241000
C        +0.65704000        +1.32986000        +6.63517000
C        -1.15122000        +2.97562000        +5.68023000
C        -0.34379000        +0.22696000        +6.35979000
O        -2.06094000        +2.53171000        +6.57612000
O        -1.44258000        +3.50278000        +4.63764000
O        -0.88286000        +0.31547000        +5.13026000
O        -0.59130000        -0.66538000        +7.13557000
C        -1.83056000        -0.70402000        +4.77086000
C        -3.43990000        +2.61831000        +6.17566000
C        +1.36086000        +3.14313000        +5.20155000
C        +2.66148000        +3.46039000        +5.96501000
C        +3.07414000        +2.03690000        +6.43946000
C        +1.97501000        +1.15040000        +5.78908000
O        +1.65918000        +1.88002000        +4.59270000
H        +0.30889000        +3.43125000        +7.10546000
H        +0.87001000        +1.26297000        +7.70054000
H        -2.65671000        -0.72338000        +5.48350000
H        -3.72998000        +3.65861000        +6.02052000
H        +3.40312000        +3.88121000        +5.28451000
H        +2.51314000        +4.16827000        +6.78297000
H        +4.05260000        +1.75333000        +6.04807000
H        +3.10437000        +1.93077000        +7.52574000
H        -2.18070000        -0.43426000        +3.77709000
H        -1.34984000        -1.68358000        +4.75550000
H        -4.00777000        +2.17962000        +6.99317000
H        -3.60042000        +2.06039000        +5.25151000
C        +2.38528000        -0.26928000        +5.46834000
H        +3.29389000        -0.26339000        +4.86280000
H        +2.58068000        -0.82720000        +6.38725000
H        +1.60413000        -0.78557000        +4.90774000
H        +1.06348000        +3.94282000        +4.55582000
$end

$rem
JOBTYPE                   SP
METHOD                    B3LYP
DFT_D                     d3_op
BASIS                     6-311++G(d,p)
SYMMETRY                  False
THRESH                    12
SCF_CONVERGENCE           8
MAX_SUB_FILE_NUM          128
MEM_STATIC                400
MEM_TOTAL                 4000
$end
--------------------------------------------------------------
 Adding empirical dispersion correction 
 ----------------------------------------------------------------
 Doing -D3(op) with
 s6 =   1.00000
 s8 =   0.78311
 a1 =   0.30000
 a2 =   4.25000
 n  =  10.00000
 -D3 energy without 3body term =     -0.0805590610 hartrees
 ----------------------------------------------------------------
             Standard Nuclear Orientation (Angstroms)
    I     Atom           X                Y                Z
 ----------------------------------------------------------------
    1      C      -2.1260550822     0.2064379682     1.1120994331
    2      C      -2.2416313448     0.5640703828    -0.4107046918
    3      C      -2.5913424387    -1.1787536341     1.5207474059
    4      C      -2.9005865567    -0.4553464960    -1.3164919182
    5      O      -1.9214035567    -2.1218989688     0.8215162347
    6      O      -3.3890370968    -1.4301158708     2.3869358852
    7      O      -4.0304819352    -0.9598859561    -0.7883339184
    8      O      -2.4889872935    -0.7442969204    -2.4148817319
    9      C      -4.7382083817    -1.9220179317    -1.5883894468
   10      C      -2.2886334466    -3.4874751411     1.0856040586
   11      C      -2.9409802455     1.3482480007     1.7651982399
   12      C      -2.0939661679     2.6357303084     1.7555068325
   13      C      -2.1394074411     3.0016835560     0.2436443488
   14      C      -3.0758265903     1.8989902789    -0.3256972579
   15      O      -3.9473814653     1.6320311157     0.7845026983
   16      H      -1.0733900858     0.2541673368     1.4051679639
   17      H      -1.2632652926     0.7475141050    -0.8511499196
   18      H      -4.0905073646    -2.7667036756    -1.8286888189
   19      H      -2.0757130687    -3.7484265852     2.1233941012
   20      H      -2.5728426447     3.4047295838     2.3633859705
   21      H      -1.0829292039     2.4830887611     2.1384718792
   22      H      -2.5893300601     3.9829528866     0.0834501347
   23      H      -1.1580817305     3.0010171562    -0.2350842526
   24      H      -5.5809111042    -2.2395577478    -0.9784977543
   25      H      -5.0866288960    -1.4646444378    -2.5159012116
   26      H      -1.6848123305    -4.0868151797     0.4077844432
   27      H      -3.3518251260    -3.6371405459     0.8898533534
   28      C      -3.8650871640     2.2833899243    -1.5569533572
   29      H      -4.4158050342     3.2073677075    -1.3691758304
   30      H      -3.1955607161     2.4413424505    -2.4058566553
   31      H      -4.5830937985     1.5049962653    -1.8207578891
   32      H      -3.2718196936     1.0870398820     2.7486725770
   33      C       3.7641940339     0.1318914361     0.7812738050
   34      C       3.6486177714     0.4895238507    -0.7415303199
   35      C       3.2989066775    -1.2533001662     1.1899217778
   36      C       2.9896625595    -0.5298930281    -1.6473175463
   37      O       3.9688455595    -2.1964455009     0.4906906066
   38      O       2.5012120193    -1.5046624029     2.0561102571
   39      O       1.8597671810    -1.0344324882    -1.1191595465
   40      O       3.4012618227    -0.8188434525    -2.7457073600
   41      C       1.1520407345    -1.9965644638    -1.9192150750
   42      C       3.6016156696    -3.5620216732     0.7547784305
   43      C       2.9492688707     1.2737014686     1.4343726118
   44      C       3.7962829483     2.5611837763     1.4246812043
   45      C       3.7508416750     2.9271370239    -0.0871812793
   46      C       2.8144225259     1.8244437468    -0.6565228860
   47      O       1.9428676508     1.5574845835     0.4536770701
   48      H       4.8168590304     0.1796208047     1.0743423357
   49      H       4.6269838235     0.6729675729    -1.1819755477
   50      H       1.7997417516    -2.8412502077    -2.1595144470
   51      H       3.8145360475    -3.8229731173     1.7925684731
   52      H       3.3174064715     3.3301830517     2.0325603424
   53      H       4.8073199123     2.4085422290     1.8076462511
   54      H       3.3009190561     3.9084063545    -0.2473754935
   55      H       4.7321673856     2.9264706241    -0.5659098808
   56      H       0.3093380119    -2.3141042799    -1.3093233824
   57      H       0.8036202201    -1.5391909699    -2.8467268398
   58      H       4.2054367857    -4.1613617118     0.0769588151
   59      H       2.5384239901    -3.7116870780     0.5590277252
   60      C       2.0251619521     2.2088433922    -1.8877789854
   61      H       1.4744440820     3.1328211753    -1.7000014585
   62      H       2.6946884000     2.3667959184    -2.7366822835
   63      H       1.3071553177     1.4304497332    -2.1515835173
   64      H       2.6184294225     1.0124933499     2.4178469488
 ----------------------------------------------------------------
 Molecular Point Group                 C1    NOp =  1
 Largest Abelian Subgroup              C1    NOp =  1
 Nuclear Repulsion Energy =  3731.1558702469 hartrees
 There are      122 alpha and      122 beta electrons
 Requested basis set is 6-311++G(d,p)
 There are 352 shells and 928 basis functions

 Total QAlloc Memory Limit   4000 MB
 Mega-Array Size       392 MB
 MEM_STATIC part       400 MB
 A cutoff of  1.0D-12 yielded  43243 shell pairs
 There are    295953 function pairs (    313367 Cartesian)
 Smallest overlap matrix eigenvalue = 5.21E-07
 Linear dependence detected in AO basis
 Number of orthogonalized atomic orbitals = 926
 Maximum deviation from orthogonality = 1.785E-10

 Scale SEOQF with 1.000000e-02/1.000000e-01/1.000000e-01

 Standard Electronic Orientation quadrupole field applied
 Nucleus-field energy     =     0.0000000197 hartrees
 Guess from superposition of atomic densities
 Warning:  Energy on first SCF cycle will be non-variational
 A restricted hybrid HF-DFT SCF calculation will be
 performed using Pulay DIIS extrapolation
 Exchange:     0.2000 Hartree-Fock + 0.0800 Slater + 0.7200 B88
 Correlation:  0.1900 VWN1RPA + 0.8100 LYP
 Using SG-1 standard quadrature grid
 Dispersion:   Grimme D3
 SCF converges when DIIS error is below 1.0E-08
 ---------------------------------------
  Cycle       Energy         DIIS Error
 ---------------------------------------
    1   -1616.9265465899      2.08E-02
    2   -1609.7595995456      2.69E-03
    3   -1608.8064312433      4.44E-03
    4   -1610.3082323250      1.04E-03
    5   -1610.3967376637      2.66E-04
    6   -1610.4014142460      1.06E-04
    7   -1610.4022689342      2.60E-05
    8   -1610.4023130892      1.12E-05
    9   -1610.4023241287      3.01E-06
   10   -1610.4023250018      1.15E-06
   11   -1610.4023246492      2.61E-07
   12   -1610.4023248141      1.06E-07
   13   -1610.4023247632      2.96E-08
   14   -1610.4023247482      1.43E-08
   15   -1610.4023247515      5.43E-09 Convergence criterion met
 ---------------------------------------
 SCF time:  CPU 7038.84 s  wall 7055.09 s
 SCF   energy in the final basis set = -1610.40232475
 Total energy in the final basis set = -1610.40232475
 
 --------------------------------------------------------------
 
                    Orbital Energies (a.u.)
 --------------------------------------------------------------
 
 Alpha MOs
 -- Occupied --
-19.177 -19.172 -19.171 -19.170 -19.138 -19.124 -19.122 -19.116
-19.114 -19.113 -10.312 -10.306 -10.303 -10.303 -10.250 -10.239
-10.234 -10.234 -10.229 -10.229 -10.224 -10.221 -10.209 -10.207
-10.197 -10.196 -10.184 -10.183 -10.175 -10.172 -10.170 -10.167
 -1.121  -1.116  -1.113  -1.109  -1.070  -1.057  -1.033  -1.027
 -1.026  -1.025  -0.836  -0.825  -0.800  -0.790  -0.788  -0.777
 -0.747  -0.742  -0.729  -0.725  -0.701  -0.692  -0.658  -0.649
 -0.609  -0.600  -0.594  -0.584  -0.569  -0.566  -0.565  -0.556
 -0.537  -0.528  -0.520  -0.513  -0.512  -0.505  -0.495  -0.492
 -0.486  -0.485  -0.485  -0.479  -0.476  -0.473  -0.473  -0.468
 -0.464  -0.455  -0.446  -0.438  -0.435  -0.429  -0.426  -0.420
 -0.418  -0.412  -0.408  -0.400  -0.397  -0.394  -0.394  -0.385
 -0.384  -0.375  -0.374  -0.372  -0.370  -0.365  -0.364  -0.358
 -0.356  -0.354  -0.348  -0.344  -0.338  -0.336  -0.327  -0.325
 -0.321  -0.316  -0.312  -0.310  -0.292  -0.285  -0.284  -0.279
 -0.277  -0.267
 -- Virtual --
 -0.023  -0.015  -0.012  -0.011  -0.006   0.000   0.000   0.005
  0.006   0.010   0.013   0.016   0.017   0.017   0.024   0.029
  0.032   0.033   0.036   0.038   0.042   0.043   0.044   0.047
  0.049   0.052   0.053   0.057   0.061   0.064   0.065   0.068
  0.070   0.075   0.076   0.077   0.082   0.087   0.090   0.091
  0.091   0.095   0.097   0.098   0.101   0.103   0.104   0.105
  0.108   0.110   0.112   0.114   0.117   0.118   0.119   0.120
  0.122   0.124   0.127   0.128   0.130   0.131   0.134   0.135
  0.135   0.137   0.139   0.140   0.142   0.145   0.146   0.146
  0.148   0.148   0.151   0.152   0.154   0.155   0.158   0.158
  0.160   0.163   0.164   0.165   0.167   0.170   0.171   0.174
  0.175   0.177   0.179   0.179   0.182   0.183   0.185   0.187
  0.188   0.189   0.190   0.192   0.195   0.197   0.199   0.202
  0.204   0.207   0.207   0.211   0.212   0.213   0.214   0.217
  0.219   0.220   0.221   0.225   0.225   0.228   0.229   0.234
  0.236   0.237   0.240   0.242   0.244   0.246   0.248   0.250
  0.252   0.254   0.258   0.261   0.263   0.269   0.269   0.271
  0.274   0.274   0.277   0.279   0.281   0.282   0.286   0.289
  0.292   0.295   0.296   0.297   0.298   0.301   0.304   0.305
  0.307   0.309   0.313   0.313   0.317   0.317   0.319   0.320
  0.325   0.328   0.332   0.334   0.337   0.342   0.344   0.348
  0.350   0.351   0.354   0.355   0.357   0.357   0.361   0.364
  0.366   0.368   0.371   0.372   0.376   0.377   0.379   0.380
  0.382   0.386   0.387   0.390   0.393   0.396   0.399   0.402
  0.404   0.407   0.410   0.411   0.413   0.420   0.423   0.425
  0.428   0.431   0.436   0.439   0.442   0.447   0.450   0.451
  0.453   0.456   0.462   0.471   0.475   0.478   0.484   0.485
  0.488   0.493   0.496   0.508   0.511   0.514   0.517   0.523
  0.527   0.529   0.530   0.539   0.541   0.546   0.550   0.556
  0.560   0.564   0.566   0.568   0.571   0.573   0.582   0.584
  0.589   0.593   0.600   0.601   0.603   0.607   0.611   0.616
  0.618   0.622   0.627   0.630   0.636   0.637   0.642   0.648
  0.652   0.653   0.657   0.658   0.667   0.668   0.672   0.673
  0.675   0.679   0.681   0.684   0.686   0.694   0.697   0.701
  0.702   0.705   0.708   0.708   0.713   0.715   0.722   0.724
  0.726   0.728   0.731   0.736   0.741   0.746   0.750   0.751
  0.755   0.757   0.761   0.764   0.770   0.773   0.778   0.780
  0.784   0.792   0.795   0.798   0.800   0.801   0.804   0.814
  0.819   0.823   0.828   0.833   0.836   0.839   0.845   0.850
  0.855   0.859   0.862   0.865   0.872   0.878   0.889   0.893
  0.896   0.905   0.925   0.944   0.951   0.956   0.966   0.975
  0.982   0.993   1.005   1.014   1.025   1.033   1.052   1.060
  1.068   1.073   1.075   1.086   1.090   1.099   1.105   1.115
  1.129   1.142   1.145   1.152   1.154   1.160   1.163   1.173
  1.182   1.185   1.190   1.201   1.202   1.209   1.215   1.217
  1.225   1.230   1.232   1.237   1.247   1.250   1.255   1.262
  1.265   1.270   1.277   1.283   1.287   1.292   1.295   1.303
  1.307   1.313   1.318   1.328   1.330   1.337   1.338   1.348
  1.353   1.359   1.373   1.376   1.385   1.391   1.397   1.402
  1.409   1.411   1.421   1.424   1.428   1.438   1.442   1.448
  1.458   1.464   1.472   1.477   1.481   1.482   1.488   1.490
  1.496   1.502   1.510   1.521   1.531   1.533   1.540   1.545
  1.549   1.552   1.561   1.564   1.570   1.571   1.577   1.579
  1.583   1.584   1.589   1.591   1.599   1.601   1.605   1.606
  1.612   1.620   1.624   1.626   1.631   1.637   1.639   1.644
  1.650   1.661   1.664   1.668   1.673   1.676   1.680   1.686
  1.692   1.698   1.701   1.703   1.708   1.709   1.711   1.720
  1.721   1.723   1.729   1.735   1.737   1.743   1.744   1.750
  1.760   1.761   1.768   1.777   1.783   1.784   1.789   1.800
  1.810   1.817   1.817   1.825   1.827   1.831   1.840   1.843
  1.844   1.852   1.860   1.862   1.871   1.877   1.879   1.895
  1.900   1.906   1.908   1.917   1.922   1.931   1.936   1.945
  1.955   1.957   1.964   1.980   1.990   1.997   1.997   2.000
  2.009   2.011   2.028   2.035   2.036   2.041   2.051   2.059
  2.062   2.071   2.076   2.080   2.084   2.096   2.119   2.122
  2.129   2.131   2.136   2.143   2.148   2.153   2.156   2.157
  2.162   2.170   2.174   2.180   2.185   2.191   2.206   2.212
  2.223   2.233   2.236   2.242   2.250   2.261   2.263   2.277
  2.298   2.306   2.321   2.331   2.342   2.357   2.376   2.387
  2.400   2.408   2.427   2.436   2.449   2.458   2.465   2.471
  2.472   2.482   2.487   2.494   2.507   2.512   2.515   2.519
  2.523   2.527   2.529   2.535   2.538   2.544   2.547   2.551
  2.556   2.568   2.579   2.585   2.592   2.597   2.603   2.610
  2.612   2.621   2.627   2.636   2.640   2.646   2.651   2.659
  2.667   2.686   2.693   2.697   2.702   2.724   2.728   2.730
  2.735   2.747   2.759   2.768   2.777   2.785   2.787   2.797
  2.814   2.829   2.831   2.836   2.843   2.845   2.852   2.858
  2.863   2.874   2.878   2.881   2.887   2.887   2.893   2.895
  2.902   2.916   2.919   2.923   2.935   2.939   2.954   2.962
  2.972   2.978   2.984   2.992   3.007   3.018   3.032   3.041
  3.041   3.050   3.053   3.057   3.061   3.077   3.078   3.088
  3.092   3.098   3.108   3.110   3.121   3.123   3.132   3.138
  3.147   3.152   3.161   3.177   3.177   3.193   3.198   3.206
  3.222   3.228   3.238   3.241   3.248   3.252   3.264   3.272
  3.275   3.283   3.306   3.324   3.351   3.357   3.360   3.369
  3.374   3.386   3.394   3.406   3.408   3.414   3.437   3.452
  3.588   3.594   3.595   3.603   3.611   3.616   3.667   3.686
  3.699   3.721   3.738   3.749   3.782   3.787   3.793   3.803
  3.826   3.828   3.831   3.838   3.845   3.854   3.867   3.889
  3.938   3.951   3.962   3.972   4.051   4.061   4.077   4.078
  4.080   4.089   4.096   4.103   4.135   4.142   4.144   4.152
  4.156   4.161   4.181   4.192   4.226   4.235   4.260   4.265
  4.266   4.277   4.436   4.448   4.501   4.511   5.070   5.074
  5.127   5.141   5.179   5.191   5.209   5.224   5.232   5.239
  5.272   5.276   5.291   5.296   5.415   5.439   5.445   5.460
  5.529   5.558   5.629   5.634   5.648   5.655   5.675   5.681
  5.899   5.904   5.910   5.927  23.802  23.805  23.846  23.851
 23.860  23.875  23.898  23.908  23.914  23.928  23.934  23.948
 23.954  23.960  23.974  23.979  23.983  23.987  23.990  24.001
 24.061  24.078  49.912  49.929  49.949  49.959  49.998  50.001
 50.042  50.053  50.055  50.062
 --------------------------------------------------------------
 
          Ground-State Mulliken Net Atomic Charges

     Atom                 Charge (a.u.)
  ----------------------------------------
      1 C                    -0.061393
      2 C                     0.715885
      3 C                    -0.742460
      4 C                    -0.808604
      5 O                     0.042093
      6 O                    -0.182813
      7 O                     0.037036
      8 O                    -0.098725
      9 C                    -0.177831
     10 C                    -0.230672
     11 C                    -0.202562
     12 C                    -0.413459
     13 C                    -0.309981
     14 C                    -0.310682
     15 O                    -0.005424
     16 H                     0.239381
     17 H                     0.303901
     18 H                     0.193635
     19 H                     0.185363
     20 H                     0.196426
     21 H                     0.121065
     22 H                     0.184078
     23 H                     0.075473
     24 H                     0.178351
     25 H                     0.175758
     26 H                     0.133086
     27 H                     0.182950
     28 C                    -0.246656
     29 H                     0.182727
     30 H                     0.159601
     31 H                     0.180672
     32 H                     0.290709
     33 C                    -0.006277
     34 C                     0.504675
     35 C                    -0.572719
     36 C                    -0.867240
     37 O                     0.005603
     38 O                    -0.119071
     39 O                     0.034679
     40 O                    -0.104918
     41 C                    -0.282282
     42 C                    -0.163575
     43 C                    -0.188651
     44 C                    -0.632097
     45 C                    -0.323765
     46 C                    -0.298462
     47 O                     0.182309
     48 H                     0.248642
     49 H                     0.285184
     50 H                     0.206848
     51 H                     0.171416
     52 H                     0.179358
     53 H                     0.136729
     54 H                     0.168209
     55 H                     0.147371
     56 H                     0.130336
     57 H                     0.205510
     58 H                     0.165730
     59 H                     0.179827
     60 C                    -0.219095
     61 H                     0.191519
     62 H                     0.187909
     63 H                     0.186623
     64 H                     0.272746
  ----------------------------------------
  Sum of atomic charges =     0.000000

 -----------------------------------------------------------------
                    Cartesian Multipole Moments
 -----------------------------------------------------------------
    Charge (ESU x 10^10)
                 0.0000
    Dipole Moment (Debye)
         X       2.8155      Y       0.0611      Z       0.1807
       Tot       2.8220
    Quadrupole Moments (Debye-Ang)
        XX    -189.8787     XY       8.7211     YY    -164.6383
        XZ      19.9785     YZ       0.8323     ZZ    -207.9227
    Octopole Moments (Debye-Ang^2)
       XXX      60.3261    XXY     -25.7948    XYY       3.0572
       YYY    -106.4271    XXZ     -15.5852    XYZ     -21.3000
       YYZ      -5.6822    XZZ     -12.7811    YZZ      22.9999
       ZZZ      31.7920
    Hexadecapole Moments (Debye-Ang^3)
      XXXX  -10977.3624   XXXY     267.7007   XXYY   -2384.6009
      XYYY     -76.1594   YYYY   -4295.7561   XXXZ     550.2349
      XXYZ       3.0901   XYYZ      33.6017   YYYZ     -35.4138
      XXZZ   -2461.3270   XYZZ       0.6505   YYZZ   -1196.6938
      XZZZ     106.4146   YZZZ      16.5951   ZZZZ   -2822.4945
 -----------------------------------------------------------------
Archival summary:
1\1\vega01.cac.cornell.edu\SP\ProcedureUnspecified\BasisUnspecified\102232\jj585\MonApr1619:53:142018MonApr1619:53:142018\0\\#,ProcedureUnspecified,BasisUnspecified,\\0,1\O\C,1,1.34543\O,2,1.20804,1,123.598\C,1,1.43759,2,116.484,3,1.88648,0\H,4,1.08763,1,105.353,2,177.393,0\H,4,1.09122,1,110.39,2,57.5626,0\H,4,1.09127,1,110.468,2,-63.158,0\C,2,1.51456,1,112.521,3,177.156,0\H,8,1.08851,2,105.218,1,169.467,0\C,8,1.5685,2,117.337,1,44.9607,0\H,10,1.09374,8,108.73,2,123.22,0\C,10,1.51731,8,116.554,2,4.55568,0\O,12,1.20407,10,125.979,8,-126.895,0\O,12,1.35176,10,110.223,8,56.6764,0\C,14,1.43854,12,116.158,10,-178.482,0\H,15,1.08777,14,105.482,12,177.492,0\H,15,1.09107,14,110.6,12,-62.8398,0\H,15,1.09137,14,110.239,12,57.9539,0\C,10,1.54738,8,101.696,2,-119.387,0\H,19,1.07,10,111.755,8,159.179,0\O,19,1.43358,10,103.124,8,32.1918,0\C,21,1.43646,19,98.0224,10,-55.9256,0\C,22,1.51218,21,111.091,19,-178.393,0\H,23,1.09134,22,111.033,21,-57.0184,0\H,23,1.09192,22,109.775,21,62.6469,0\H,23,1.09264,22,110.458,21,-177.522,0\C,19,1.54115,10,108.926,8,-76.1436,0\H,27,1.09096,19,110.128,10,-170.072,0\H,27,1.09186,19,112.95,10,-49.1929,0\C,22,1.55466,21,102.371,19,-54.4128,0\H,30,1.09132,22,109.614,21,-87.4148,0\H,30,1.09187,22,112.355,21,152.676,0\H,24,2.96051,23,129.019,22,74.8856,0\C,33,1.08851,24,175.562,23,76.5791,0\C,34,1.51456,33,105.218,24,96.6199,0\O,35,1.20804,34,123.816,33,-13.3842,0\O,35,1.34543,34,112.521,33,169.467,0\C,37,1.43759,35,116.484,34,179.042,0\H,38,1.08763,37,105.353,35,177.393,0\H,38,1.09122,37,110.39,35,57.5626,0\H,38,1.09127,37,110.468,35,-63.158,0\C,34,1.5685,33,111.41,24,-135.221,0\H,42,1.09374,34,108.73,33,1.88124,0\C,42,1.51731,34,116.554,33,-116.783,0\O,44,1.20407,42,125.979,34,-126.895,0\O,44,1.35176,42,110.223,34,56.6764,0\C,46,1.43854,44,116.158,42,-178.482,0\H,47,1.08777,46,105.482,44,177.492,0\H,47,1.09107,46,110.6,44,-62.8398,0\H,47,1.09137,46,110.239,44,57.9539,0\C,42,1.54738,34,101.696,33,119.274,0\H,51,1.07,42,111.755,34,159.179,0\O,51,1.43358,42,103.124,34,32.1918,0\C,53,1.43646,51,98.0224,42,-55.9256,0\C,54,1.51218,53,111.091,51,-178.393,0\H,55,1.09134,54,111.033,53,-57.0184,0\H,55,1.09192,54,109.775,53,62.6469,0\H,55,1.09264,54,110.458,53,-177.522,0\C,51,1.54115,42,108.926,34,-76.1436,0\H,59,1.09096,51,110.128,42,-170.072,0\H,59,1.09186,51,112.95,42,-49.1929,0\C,54,1.55466,53,102.371,51,-54.4128,0\H,62,1.09132,54,109.614,53,-87.4148,0\H,62,1.09187,54,112.355,53,152.676,0\\\@

 Total job time:  7057.60s(wall), 7041.27s(cpu) 
 Mon Apr 16 19:53:14 2018

        *************************************************************
        *                                                           *
        *  Thank you very much for using Q-Chem.  Have a nice day.  *
        *                                                           *
        *************************************************************


0 sent ACK to 0 
now end server 0 ... 
