
    -----------------------------------------------------------------------
          Psi4: An Open-Source Ab Initio Electronic Structure Package
                               Psi4 1.1 release

                         Git: Rev {HEAD} add49b9 


    R. M. Parrish, L. A. Burns, D. G. A. Smith, A. C. Simmonett,
    A. E. DePrince III, E. G. Hohenstein, U. Bozkaya, A. Yu. Sokolov,
    R. Di Remigio, R. M. Richard, J. F. Gonthier, A. M. James,
    H. R. McAlexander, A. Kumar, M. Saitow, X. Wang, B. P. Pritchard,
    P. Verma, H. F. Schaefer III, K. Patkowski, R. A. King, E. F. Valeev,
    F. A. Evangelista, J. M. Turney, T. D. Crawford, and C. D. Sherrill,
    J. Chem. Theory Comput. in press (2017).
    (doi: 10.1021/acs.jctc.7b00174)

    -----------------------------------------------------------------------


    Psi4 started on: Tuesday, 17 October 2017 09:20PM

    Process ID: 251334
    PSIDATADIR: /home/fs01/kl848/yes/share/psi4
    Memory:     500.0 MiB
    Threads:    48
    
  ==> Input File <==

--------------------------------------------------------------------------
memory 750000 mb

molecule mol {
0 1
C     -0.87988499     -1.02637752     -0.07975710
O     -1.30214786     -2.10620490      0.61844750
O     -1.36520780     -0.68704030     -1.12969804
C     -2.36919945     -2.86378722      0.01859748
H     -2.06562220     -3.24310204     -0.95853059
H     -2.56364860     -3.68499911      0.70499401
H     -3.25844919     -2.24278644     -0.09889950
--
0 1
   C      1.69742646     -2.23361335     -0.64560501
   H      2.67228210     -2.41560366     -1.10259082
   H      1.54056144     -2.96850311      0.14753725
   H      0.93170288     -2.37340578     -1.41104915
--
0 1
  C      0.40570619      1.16662355      0.46957989
  C      0.30338881     -0.38770356      0.61195067
  C     -0.77252757      1.85816982     -0.19438280
  O     -1.90206025      1.63074677      0.51232944
  O     -0.71805356      2.56931067     -1.16341524
  C     -3.11903111      2.13131397     -0.07161675
  C      1.73103700      1.32230606     -0.31372333
  C      2.91151465      1.09400515      0.65024687
  C      2.81616528     -0.44367484      0.86938547
  C      1.64973601     -0.82969771     -0.08464756
  O      1.76611279      0.14400391     -1.13046715
  H      0.48329607      1.60940349      1.46622062
  H      0.28852215     -0.69966743      1.65458368
  H     -3.06951320      3.21382575     -0.19605495
  H      3.84960200      1.36610198      0.16428667
  H      2.82661803      1.67390428      1.57178585
  H      3.73104841     -0.94934682      0.55606189
  H      2.61424857     -0.72465918      1.90497145
  H     -3.90889854      1.86147511      0.62632838
  H     -3.28295561      1.65870553     -1.04117887
  H      1.77472506      2.20703948     -0.94196221

symmetry c1
no_reorient
no_com
}

set {
basis jun-cc-pvdz
scf_type df
guess sad
freeze_core true
}

energy('fisapt0')
--------------------------------------------------------------------------

  Memory set to 698.492 GiB by Python driver.

*** tstart() called on vega02.cac.cornell.edu
*** at Tue Oct 17 21:20:14 2017

   => Loading Basis Set <=

    Name: JUN-CC-PVDZ
    Role: ORBITAL
    Keyword: BASIS
    atoms 1, 4, 8, 12-14, 17-21 entry C          line   157 file /home/fs01/kl848/yes/share/psi4/basis/jun-cc-pvdz.gbs 
    atoms 2-3, 15-16, 22        entry O          line   225 file /home/fs01/kl848/yes/share/psi4/basis/jun-cc-pvdz.gbs 
    atoms 5-7, 9-11, 23-32      entry H          line    35 file /home/fs01/kl848/yes/share/psi4/basis/jun-cc-pvdz.gbs 


         ---------------------------------------------------------
                                   SCF
            by Justin Turney, Rob Parrish, and Andy Simmonett
                              RHF Reference
                       48 Threads, 715255 MiB Core
         ---------------------------------------------------------

  ==> Geometry <==

    Molecular point group: c1
    Full point group: C1

    Geometry (in Angstrom), charge = 0, multiplicity = 1:

       Center              X                  Y                   Z               Mass       
    ------------   -----------------  -----------------  -----------------  -----------------
           C         -0.879884990000    -1.026377520000    -0.079757100000    12.000000000000
           O         -1.302147860000    -2.106204900000     0.618447500000    15.994914619560
           O         -1.365207800000    -0.687040300000    -1.129698040000    15.994914619560
           C         -2.369199450000    -2.863787220000     0.018597480000    12.000000000000
           H         -2.065622200000    -3.243102040000    -0.958530590000     1.007825032070
           H         -2.563648600000    -3.684999110000     0.704994010000     1.007825032070
           H         -3.258449190000    -2.242786440000    -0.098899500000     1.007825032070
           C          1.697426460000    -2.233613350000    -0.645605010000    12.000000000000
           H          2.672282100000    -2.415603660000    -1.102590820000     1.007825032070
           H          1.540561440000    -2.968503110000     0.147537250000     1.007825032070
           H          0.931702880000    -2.373405780000    -1.411049150000     1.007825032070
           C          0.405706190000     1.166623550000     0.469579890000    12.000000000000
           C          0.303388810000    -0.387703560000     0.611950670000    12.000000000000
           C         -0.772527570000     1.858169820000    -0.194382800000    12.000000000000
           O         -1.902060250000     1.630746770000     0.512329440000    15.994914619560
           O         -0.718053560000     2.569310670000    -1.163415240000    15.994914619560
           C         -3.119031110000     2.131313970000    -0.071616750000    12.000000000000
           C          1.731037000000     1.322306060000    -0.313723330000    12.000000000000
           C          2.911514650000     1.094005150000     0.650246870000    12.000000000000
           C          2.816165280000    -0.443674840000     0.869385470000    12.000000000000
           C          1.649736010000    -0.829697710000    -0.084647560000    12.000000000000
           O          1.766112790000     0.144003910000    -1.130467150000    15.994914619560
           H          0.483296070000     1.609403490000     1.466220620000     1.007825032070
           H          0.288522150000    -0.699667430000     1.654583680000     1.007825032070
           H         -3.069513200000     3.213825750000    -0.196054950000     1.007825032070
           H          3.849602000000     1.366101980000     0.164286670000     1.007825032070
           H          2.826618030000     1.673904280000     1.571785850000     1.007825032070
           H          3.731048410000    -0.949346820000     0.556061890000     1.007825032070
           H          2.614248570000    -0.724659180000     1.904971450000     1.007825032070
           H         -3.908898540000     1.861475110000     0.626328380000     1.007825032070
           H         -3.282955610000     1.658705530000    -1.041178870000     1.007825032070
           H          1.774725060000     2.207039480000    -0.941962210000     1.007825032070

  Running in c1 symmetry.

  Rotational constants: A =      0.02246  B =      0.01839  C =      0.01177 [cm^-1]
  Rotational constants: A =    673.44647  B =    551.26025  C =    352.75218 [MHz]
  Nuclear repulsion = 1253.528998929491991

  Charge       = 0
  Multiplicity = 1
  Electrons    = 122
  Nalpha       = 61
  Nbeta        = 61

  ==> Algorithm <==

  SCF Algorithm Type is DF.
  DIIS enabled.
  MOM disabled.
  Fractional occupation disabled.
  Guess Type is SAD.
  Energy threshold   = 1.00e-08
  Density threshold  = 1.00e-08
  Integral threshold = 0.00e+00

  ==> Primary Basis <==

  Basis Set: JUN-CC-PVDZ
    Blend: JUN-CC-PVDZ
    Number of shells: 176
    Number of basis function: 368
    Number of Cartesian functions: 384
    Spherical Harmonics?: true
    Max angular momentum: 2

   => Loading Basis Set <=

    Name: (JUN-CC-PVDZ AUX)
    Role: JKFIT
    Keyword: DF_BASIS_SCF
    atoms 1, 4, 8, 12-14, 17-21 entry C          line   145 file /home/fs01/kl848/yes/share/psi4/basis/jun-cc-pvdz-jkfit.gbs 
    atoms 2-3, 15-16, 22        entry O          line   257 file /home/fs01/kl848/yes/share/psi4/basis/jun-cc-pvdz-jkfit.gbs 
    atoms 5-7, 9-11, 23-32      entry H          line    69 file /home/fs01/kl848/yes/share/psi4/basis/jun-cc-pvdz-jkfit.gbs 

  ==> Pre-Iterations <==

   -------------------------------------------------------
    Irrep   Nso     Nmo     Nalpha   Nbeta   Ndocc  Nsocc
   -------------------------------------------------------
     A        368     368       0       0       0       0
   -------------------------------------------------------
    Total     368     368      61      61      61       0
   -------------------------------------------------------

  ==> Integral Setup <==

  ==> DFJK: Density-Fitted J/K Matrices <==

    J tasked:                  Yes
    K tasked:                  Yes
    wK tasked:                  No
    OpenMP threads:             48
    Integrals threads:          48
    Memory (MB):            536441
    Algorithm:                Core
    Integral Cache:           NONE
    Schwarz Cutoff:          1E-12
    Fitting Condition:       1E-12

   => Auxiliary Basis Set <=

  Basis Set: (JUN-CC-PVDZ AUX)
    Blend: JUN-CC-PVDZ-JKFIT
    Number of shells: 576
    Number of basis function: 1632
    Number of Cartesian functions: 1856
    Spherical Harmonics?: true
    Max angular momentum: 3

  Minimum eigenvalue in the overlap matrix is 8.8523300887E-06.
  Using Symmetric Orthogonalization.

  SCF Guess: Superposition of Atomic Densities via on-the-fly atomic UHF.

  ==> Iterations <==

                           Total Energy        Delta E     RMS |[F,P]|

   @DF-RHF iter   0:  -807.28013605147862   -8.07280e+02   8.57659e-02 
   @DF-RHF iter   1:  -799.72909899078945    7.55104e+00   1.21625e-02 
   @DF-RHF iter   2:  -800.12379676905562   -3.94698e-01   1.03023e-02 DIIS
   @DF-RHF iter   3:  -800.24949640622378   -1.25700e-01   1.83571e-03 DIIS
   @DF-RHF iter   4:  -800.26904249768063   -1.95461e-02   8.16411e-04 DIIS
   @DF-RHF iter   5:  -800.27134633540038   -2.30384e-03   2.42959e-04 DIIS
   @DF-RHF iter   6:  -800.27171821484660   -3.71879e-04   1.01477e-04 DIIS
   @DF-RHF iter   7:  -800.27178854129647   -7.03264e-05   4.49028e-05 DIIS
   @DF-RHF iter   8:  -800.27179727198086   -8.73068e-06   1.29101e-05 DIIS
   @DF-RHF iter   9:  -800.27179830704426   -1.03506e-06   4.09141e-06 DIIS
   @DF-RHF iter  10:  -800.27179843167448   -1.24630e-07   1.67590e-06 DIIS
   @DF-RHF iter  11:  -800.27179845561534   -2.39409e-08   6.87646e-07 DIIS
   @DF-RHF iter  12:  -800.27179846015792   -4.54258e-09   3.09479e-07 DIIS
   @DF-RHF iter  13:  -800.27179846113256   -9.74637e-10   1.26662e-07 DIIS
   @DF-RHF iter  14:  -800.27179846131912   -1.86560e-10   6.81716e-08 DIIS
   @DF-RHF iter  15:  -800.27179846134391   -2.47837e-11   1.57871e-08 DIIS
   @DF-RHF iter  16:  -800.27179846134754   -3.63798e-12   8.23405e-09 DIIS

  ==> Post-Iterations <==

    Orbital Energies (a.u.)
    -----------------------

    Doubly Occupied:                                                      

       1A    -20.614248     2A    -20.603757     3A    -20.563624  
       4A    -20.556175     5A    -20.549656     6A    -11.391812  
       7A    -11.385548     8A    -11.306306     9A    -11.298414  
      10A    -11.288341    11A    -11.288275    12A    -11.266043  
      13A    -11.263529    14A    -11.240750    15A    -11.238558  
      16A    -11.232368    17A     -1.469334    18A     -1.458815  
      19A     -1.402765    20A     -1.367950    21A     -1.360347  
      22A     -1.114207    23A     -1.063360    24A     -1.050192  
      25A     -0.994274    26A     -0.966086    27A     -0.937395  
      28A     -0.882869    29A     -0.817896    30A     -0.799348  
      31A     -0.763455    32A     -0.759687    33A     -0.722630  
      34A     -0.698091    35A     -0.690186    36A     -0.680206  
      37A     -0.667046    38A     -0.666719    39A     -0.662495  
      40A     -0.649776    41A     -0.627832    42A     -0.595708  
      43A     -0.585852    44A     -0.581030    45A     -0.573572  
      46A     -0.549705    47A     -0.543997    48A     -0.534710  
      49A     -0.531516    50A     -0.523599    51A     -0.520079  
      52A     -0.507003    53A     -0.499960    54A     -0.492908  
      55A     -0.473889    56A     -0.468647    57A     -0.465672  
      58A     -0.455907    59A     -0.448199    60A     -0.434728  
      61A     -0.422748  

    Virtual:                                                              

      62A      0.048415    63A      0.054969    64A      0.058043  
      65A      0.067712    66A      0.071850    67A      0.076727  
      68A      0.088138    69A      0.091876    70A      0.095323  
      71A      0.099643    72A      0.110638    73A      0.113685  
      74A      0.117302    75A      0.126048    76A      0.128501  
      77A      0.135558    78A      0.140771    79A      0.145990  
      80A      0.149444    81A      0.157607    82A      0.164268  
      83A      0.170321    84A      0.176734    85A      0.179838  
      86A      0.182903    87A      0.192624    88A      0.194914  
      89A      0.197965    90A      0.199456    91A      0.206042  
      92A      0.209447    93A      0.219277    94A      0.227383  
      95A      0.229111    96A      0.234145    97A      0.236680  
      98A      0.246533    99A      0.253046   100A      0.255594  
     101A      0.259968   102A      0.265438   103A      0.268016  
     104A      0.272764   105A      0.286113   106A      0.286396  
     107A      0.299306   108A      0.304681   109A      0.306759  
     110A      0.314859   111A      0.321244   112A      0.323936  
     113A      0.335503   114A      0.337620   115A      0.346924  
     116A      0.348889   117A      0.350790   118A      0.359135  
     119A      0.366318   120A      0.372006   121A      0.377810  
     122A      0.381803   123A      0.387130   124A      0.389823  
     125A      0.398158   126A      0.399285   127A      0.401126  
     128A      0.402490   129A      0.414273   130A      0.418630  
     131A      0.420917   132A      0.432454   133A      0.435305  
     134A      0.438391   135A      0.440974   136A      0.447825  
     137A      0.452354   138A      0.464075   139A      0.470662  
     140A      0.475321   141A      0.489995   142A      0.498995  
     143A      0.502095   144A      0.506304   145A      0.514940  
     146A      0.521345   147A      0.536697   148A      0.542249  
     149A      0.548451   150A      0.551730   151A      0.557894  
     152A      0.578119   153A      0.595498   154A      0.596409  
     155A      0.616310   156A      0.622170   157A      0.642546  
     158A      0.647568   159A      0.697821   160A      0.733723  
     161A      0.757823   162A      0.766125   163A      0.781904  
     164A      0.783416   165A      0.802340   166A      0.807327  
     167A      0.819663   168A      0.824809   169A      0.856260  
     170A      0.860675   171A      0.872500   172A      0.884220  
     173A      0.893548   174A      0.904340   175A      0.907585  
     176A      0.914718   177A      0.917260   178A      0.921469  
     179A      0.925895   180A      0.933397   181A      0.934921  
     182A      0.945066   183A      0.949157   184A      0.955153  
     185A      0.962907   186A      0.967047   187A      0.972531  
     188A      0.980722   189A      0.986525   190A      0.988570  
     191A      0.994937   192A      1.000881   193A      1.009490  
     194A      1.023408   195A      1.034342   196A      1.042578  
     197A      1.060627   198A      1.063034   199A      1.078444  
     200A      1.082796   201A      1.092229   202A      1.103865  
     203A      1.109694   204A      1.125867   205A      1.131948  
     206A      1.140553   207A      1.161657   208A      1.180501  
     209A      1.234739   210A      1.239367   211A      1.261570  
     212A      1.271329   213A      1.279189   214A      1.309208  
     215A      1.334505   216A      1.347873   217A      1.375747  
     218A      1.385362   219A      1.422367   220A      1.441402  
     221A      1.446737   222A      1.476225   223A      1.491063  
     224A      1.494389   225A      1.503048   226A      1.518786  
     227A      1.527975   228A      1.534353   229A      1.553077  
     230A      1.558837   231A      1.579515   232A      1.595706  
     233A      1.601018   234A      1.608571   235A      1.625531  
     236A      1.626098   237A      1.640055   238A      1.651403  
     239A      1.656171   240A      1.670425   241A      1.680880  
     242A      1.681453   243A      1.688652   244A      1.702215  
     245A      1.710242   246A      1.725827   247A      1.736853  
     248A      1.754643   249A      1.772840   250A      1.782883  
     251A      1.804682   252A      1.814616   253A      1.838214  
     254A      1.843019   255A      1.866331   256A      1.869275  
     257A      1.880939   258A      1.901533   259A      1.908101  
     260A      1.912697   261A      1.920931   262A      1.938520  
     263A      1.949277   264A      1.957611   265A      1.961315  
     266A      1.964485   267A      1.986043   268A      1.995443  
     269A      2.002034   270A      2.010801   271A      2.017304  
     272A      2.029832   273A      2.031084   274A      2.035729  
     275A      2.045027   276A      2.055138   277A      2.067353  
     278A      2.078463   279A      2.091579   280A      2.099810  
     281A      2.103187   282A      2.110428   283A      2.129518  
     284A      2.156296   285A      2.161972   286A      2.163535  
     287A      2.177005   288A      2.185009   289A      2.188673  
     290A      2.214453   291A      2.236222   292A      2.237516  
     293A      2.254823   294A      2.280108   295A      2.294380  
     296A      2.297014   297A      2.313951   298A      2.316356  
     299A      2.343582   300A      2.372288   301A      2.386661  
     302A      2.387578   303A      2.391619   304A      2.405932  
     305A      2.409984   306A      2.425426   307A      2.435589  
     308A      2.443813   309A      2.459291   310A      2.472625  
     311A      2.479666   312A      2.511973   313A      2.540702  
     314A      2.567046   315A      2.589401   316A      2.595407  
     317A      2.620224   318A      2.649475   319A      2.664071  
     320A      2.706689   321A      2.740915   322A      2.746384  
     323A      2.767308   324A      2.775091   325A      2.784300  
     326A      2.806535   327A      2.812763   328A      2.826751  
     329A      2.848310   330A      2.863983   331A      2.867358  
     332A      2.873415   333A      2.882549   334A      2.894595  
     335A      2.907503   336A      2.925183   337A      2.953094  
     338A      2.970440   339A      2.982723   340A      3.006988  
     341A      3.018599   342A      3.059047   343A      3.069267  
     344A      3.113047   345A      3.136284   346A      3.184987  
     347A      3.259460   348A      3.265289   349A      3.303129  
     350A      3.309101   351A      3.364476   352A      3.395326  
     353A      3.398860   354A      3.430894   355A      3.472291  
     356A      3.524992   357A      3.571905   358A      3.591928  
     359A      3.666011   360A      3.691076   361A      3.704942  
     362A      3.781751   363A      3.791708   364A      3.860576  
     365A      3.957656   366A      3.959889   367A      4.094498  
     368A      4.101510  

    Final Occupation by Irrep:
              A 
    DOCC [    61 ]

  Energy converged.

  @DF-RHF Final Energy:  -800.27179846134754

   => Energetics <=

    Nuclear Repulsion Energy =           1253.5289989294919906
    One-Electron Energy =               -3586.4620092532459239
    Two-Electron Energy =                1532.6612118624063896
    DFT Exchange-Correlation Energy =       0.0000000000000000
    Empirical Dispersion Energy =           0.0000000000000000
    PCM Polarization Energy =               0.0000000000000000
    EFP Energy =                            0.0000000000000000
    Total Energy =                       -800.2717984613475437



Properties will be evaluated at   0.000000,   0.000000,   0.000000 Bohr

Properties computed using the SCF density matrix

  Nuclear Dipole Moment: (a.u.)
     X:     1.2069      Y:    10.2429      Z:   -14.9586

  Electronic Dipole Moment: (a.u.)
     X:    -1.2407      Y:   -11.1076      Z:    16.6213

  Dipole Moment: (a.u.)
     X:    -0.0339      Y:    -0.8647      Z:     1.6627     Total:     1.8744

  Dipole Moment: (Debye)
     X:    -0.0861      Y:    -2.1978      Z:     4.2261     Total:     4.7642


*** tstop() called on vega02.cac.cornell.edu at Tue Oct 17 21:20:50 2017
Module time:
	user time   =     701.20 seconds =      11.69 minutes
	system time =       6.28 seconds =       0.10 minutes
	total time  =         36 seconds =       0.60 minutes
Total time:
	user time   =     701.20 seconds =      11.69 minutes
	system time =       6.28 seconds =       0.10 minutes
	total time  =         36 seconds =       0.60 minutes
   => Loading Basis Set <=

    Name: (JUN-CC-PVDZ AUX)
    Role: JKFIT
    Keyword: DF_BASIS_SCF
    atoms 1, 4, 8, 12-14, 17-21 entry C          line   145 file /home/fs01/kl848/yes/share/psi4/basis/jun-cc-pvdz-jkfit.gbs 
    atoms 2-3, 15-16, 22        entry O          line   257 file /home/fs01/kl848/yes/share/psi4/basis/jun-cc-pvdz-jkfit.gbs 
    atoms 5-7, 9-11, 23-32      entry H          line    69 file /home/fs01/kl848/yes/share/psi4/basis/jun-cc-pvdz-jkfit.gbs 

   => Loading Basis Set <=

    Name: (JUN-CC-PVDZ AUX)
    Role: RIFIT
    Keyword: DF_BASIS_SAPT
    atoms 1, 4, 8, 12-14, 17-21 entry C          line    99 file /home/fs01/kl848/yes/share/psi4/basis/jun-cc-pvdz-ri.gbs 
    atoms 2-3, 15-16, 22        entry O          line   187 file /home/fs01/kl848/yes/share/psi4/basis/jun-cc-pvdz-ri.gbs 
    atoms 5-7, 9-11, 23-32      entry H          line    29 file /home/fs01/kl848/yes/share/psi4/basis/jun-cc-pvdz-ri.gbs 

   => Loading Basis Set <=

    Name: CC-PVTZ-MINAO
    Role: ORBITAL
    Keyword: BASIS
    atoms 1, 4, 8, 12-14, 17-21 entry C          line   130 file /home/fs01/kl848/yes/share/psi4/basis/cc-pvtz-minao.gbs 
    atoms 2-3, 15-16, 22        entry O          line   190 file /home/fs01/kl848/yes/share/psi4/basis/cc-pvtz-minao.gbs 
    atoms 5-7, 9-11, 23-32      entry H          line    19 file /home/fs01/kl848/yes/share/psi4/basis/cc-pvtz-minao.gbs 


*** tstart() called on vega02.cac.cornell.edu
*** at Tue Oct 17 21:20:52 2017

	 --------------------------------------------
	                    FISAPT0                  
	                  Rob Parrish                
	 --------------------------------------------

    Do F-SAPT =         Yes
    Do Plot   =          No
    Memory    =      78.580 [GD]

  ==> Localization (IBO) <==

  ==> IBO Localizer 2 <==

    MinAO Basis = CC-PVTZ-MINAO
    Use Ghosts  =       FALSE
    Use Stars   =       FALSE
    Condition   =   1.000E-07
    Power       =           4
    Convergence =   1.000E-12
    Maxiter     =        1000

    @IBO Iter:                   Metric       Gradient
    @IBO    1:   1.9962008519974872E+00   2.359306E+00
    @IBO    2:   2.2313387280635522E+00   2.543744E+00
    @IBO    3:   2.3235709703325385E+00   1.002933E+00
    @IBO    4:   2.3324701184310914E+00   5.538042E-02
    @IBO    5:   2.3325109163400630E+00   1.117506E-03
    @IBO    6:   2.3325109348787194E+00   4.137322E-05
    @IBO    7:   2.3325109348982140E+00   1.686123E-06
    @IBO    8:   2.3325109348982425E+00   6.298021E-08
    @IBO    9:   2.3325109348982420E+00   2.364904E-09
    @IBO   10:   2.3325109348982420E+00   8.745247E-11
    @IBO   11:   2.3325109348982425E+00   3.413696E-12
    @IBO   12:   2.3325109348982425E+00   1.390135E-13

    IBO Localizer 2 converged.

  ==> Partitioning <==

   => Atomic Partitioning <= 

    Monomer A:   7 atoms
    Monomer B:   4 atoms
    Monomer C:  21 atoms

   => Link Bond Identification <=

    Link Bond Selection = AUTOMATIC

    Charge Completeness = 0.800

    Total Link Bonds = 2

    --------------------------
    N     Orb Type Aind1 Aind2
    --------------------------
    1      26   BC     8    21
    2      28   AC     1    13
    --------------------------

   => Link Bond Assignment <=

    Link Bond Assignment      = C

   => Partition Summary <=

    Monomer A:  0 charge,  30 protons,  30 electrons,  15 docc
    Monomer B:  0 charge,   8 protons,   8 electrons,   4 docc
    Monomer C:  0 charge,  84 protons,  84 electrons,  42 docc

  ==> Overlap Integrals <==

  ==> Kinetic Integrals <==

  ==> Nuclear Integrals <==

    Nuclear Repulsion Tot:   1.2535289989294929E+03 [Eh]

  ==> Coulomb Integrals <==

  ==> DFJK: Density-Fitted J/K Matrices <==

    J tasked:                  Yes
    K tasked:                  Yes
    wK tasked:                  No
    OpenMP threads:             48
    Integrals threads:          48
    Memory (MB):            643730
    Algorithm:                Core
    Integral Cache:           NONE
    Schwarz Cutoff:          1E-12
    Fitting Condition:       1E-12

   => Auxiliary Basis Set <=

  Basis Set: (JUN-CC-PVDZ AUX)
    Blend: JUN-CC-PVDZ-JKFIT
    Number of shells: 576
    Number of basis function: 1632
    Number of Cartesian functions: 1856
    Spherical Harmonics?: true
    Max angular momentum: 3

  ==> Relaxed SCF Equations <==

  ==> SCF A: <==

    Maxiter =          50
    E Tol   =   1.000E-06
    D Tol   =   1.000E-08

    Max DIIS Vectors = 5

    Iter   N:                        E          dE         |D|
    Iter   1:  -2.2428875702971342E+02  -2.243E+02   3.066E-03 
    Iter   2:  -2.2429595625266882E+02  -7.199E-03   1.913E-04 DIIS
    Iter   3:  -2.2429614209562644E+02  -1.858E-04   6.184E-05 DIIS
    Iter   4:  -2.2429615147674616E+02  -9.381E-06   3.721E-05 DIIS
    Iter   5:  -2.2429615314652833E+02  -1.670E-06   4.962E-06 DIIS
    Iter   6:  -2.2429615321132638E+02  -6.480E-08   1.901E-06 DIIS
    Iter   7:  -2.2429615322084220E+02  -9.516E-09   5.160E-07 DIIS
    Iter   8:  -2.2429615322186919E+02  -1.027E-09   1.466E-07 DIIS
    Iter   9:  -2.2429615322198697E+02  -1.178E-10   8.196E-08 DIIS
    Iter  10:  -2.2429615322200416E+02  -1.720E-11   2.911E-08 DIIS
    Iter  11:  -2.2429615322200635E+02  -2.188E-12   1.300E-08 DIIS
    Iter  12:  -2.2429615322200644E+02  -8.527E-14   5.205E-09 DIIS

    FISAPTSCF Converged.

    Final SCF Energy:  -2.2429615322200644E+02 [Eh]

   => Occupied Orbital Energies <=

       1  -20.612730     2  -20.550755     3  -11.387829  
       4  -11.298553     5   -1.441546     6   -1.360816  
       7   -0.965270     8   -0.769844     9   -0.672002  
      10   -0.666953    11   -0.625593    12   -0.545347  
      13   -0.540643    14   -0.476835    15   -0.465044  

   => Virtual Orbital Energies <=

      16    0.007879    17    0.053402    18    0.058022  
      19    0.064529    20    0.068866    21    0.076386  
      22    0.088044    23    0.090237    24    0.091826  
      25    0.098116    26    0.100246    27    0.108126  
      28    0.111901    29    0.117081    30    0.126815  
      31    0.130598    32    0.137384    33    0.143222  
      34    0.147778    35    0.152854    36    0.162766  
      37    0.166930    38    0.170378    39    0.176968  
      40    0.183278    41    0.188390    42    0.194674  
      43    0.197296    44    0.201368    45    0.206344  
      46    0.211086    47    0.213589    48    0.222532  
      49    0.225414    50    0.232119    51    0.234725  
      52    0.240771    53    0.250124    54    0.254032  
      55    0.256724    56    0.264498    57    0.273111  
      58    0.277291    59    0.289314    60    0.291820  
      61    0.301971    62    0.305835    63    0.307469  
      64    0.313042    65    0.318174    66    0.329201  
      67    0.334045    68    0.338622    69    0.341947  
      70    0.351362    71    0.357821    72    0.365495  
      73    0.369779    74    0.375449    75    0.380073  
      76    0.383825    77    0.388411    78    0.393816  
      79    0.401307    80    0.403804    81    0.407588  
      82    0.412929    83    0.419286    84    0.422387  
      85    0.428830    86    0.431624    87    0.437419  
      88    0.444191    89    0.446278    90    0.451240  
      91    0.462865    92    0.468217    93    0.470390  
      94    0.477891    95    0.497361    96    0.507336  
      97    0.508685    98    0.514537    99    0.524859  
     100    0.535232   101    0.540507   102    0.546603  
     103    0.550849   104    0.563677   105    0.573829  
     106    0.582513   107    0.593091   108    0.611052  
     109    0.621552   110    0.627385   111    0.639737  
     112    0.650189   113    0.653888   114    0.664493  
     115    0.676811   116    0.723915   117    0.753005  
     118    0.778299   119    0.789219   120    0.796582  
     121    0.816419   122    0.824045   123    0.833827  
     124    0.862046   125    0.882681   126    0.887518  
     127    0.895118   128    0.908745   129    0.911021  
     130    0.914604   131    0.920741   132    0.927109  
     133    0.936125   134    0.945138   135    0.950350  
     136    0.951238   137    0.958574   138    0.964843  
     139    0.973062   140    0.977649   141    0.986482  
     142    0.994867   143    1.002094   144    1.014659  
     145    1.020366   146    1.025397   147    1.033510  
     148    1.045989   149    1.058555   150    1.076299  
     151    1.081451   152    1.095567   153    1.104466  
     154    1.118480   155    1.128397   156    1.132323  
     157    1.145114   158    1.170166   159    1.196538  
     160    1.236230   161    1.245860   162    1.259329  
     163    1.277876   164    1.302835   165    1.334480  
     166    1.348591   167    1.360842   168    1.382646  
     169    1.396771   170    1.427638   171    1.446081  
     172    1.456043   173    1.479845   174    1.481944  
     175    1.499048   176    1.502919   177    1.517778  
     178    1.539222   179    1.542595   180    1.554154  
     181    1.557959   182    1.568456   183    1.578921  
     184    1.594921   185    1.609644   186    1.619051  
     187    1.626790   188    1.637038   189    1.655860  
     190    1.658989   191    1.672072   192    1.674181  
     193    1.687190   194    1.694738   195    1.706744  
     196    1.710293   197    1.718851   198    1.724362  
     199    1.748939   200    1.760024   201    1.787445  
     202    1.801513   203    1.804355   204    1.820197  
     205    1.828929   206    1.848496   207    1.868856  
     208    1.871732   209    1.891146   210    1.901544  
     211    1.920793   212    1.928929   213    1.930482  
     214    1.944124   215    1.948767   216    1.961919  
     217    1.970226   218    1.973690   219    1.990745  
     220    1.998643   221    2.009619   222    2.016877  
     223    2.025713   224    2.029777   225    2.036067  
     226    2.041790   227    2.053618   228    2.055841  
     229    2.072181   230    2.081889   231    2.090196  
     232    2.093743   233    2.113064   234    2.122141  
     235    2.142097   236    2.152783   237    2.168083  
     238    2.180300   239    2.194664   240    2.212492  
     241    2.220072   242    2.229180   243    2.236530  
     244    2.259381   245    2.270628   246    2.285386  
     247    2.304460   248    2.308053   249    2.314064  
     250    2.338240   251    2.357933   252    2.381036  
     253    2.387459   254    2.398073   255    2.406472  
     256    2.413190   257    2.422937   258    2.430330  
     259    2.445518   260    2.454850   261    2.462406  
     262    2.474446   263    2.493603   264    2.530797  
     265    2.533959   266    2.552262   267    2.566564  
     268    2.593390   269    2.608035   270    2.634967  
     271    2.640235   272    2.663493   273    2.696590  
     274    2.711201   275    2.732215   276    2.763485  
     277    2.773577   278    2.794931   279    2.808864  
     280    2.811456   281    2.818747   282    2.827078  
     283    2.859675   284    2.866468   285    2.875530  
     286    2.887917   287    2.905980   288    2.912311  
     289    2.958547   290    2.969823   291    2.992249  
     292    3.004640   293    3.021298   294    3.045200  
     295    3.066256   296    3.081502   297    3.087183  
     298    3.121177   299    3.145759   300    3.200285  
     301    3.263117   302    3.269745   303    3.307462  
     304    3.314010   305    3.377700   306    3.403049  
     307    3.422626   308    3.454549   309    3.495993  
     310    3.557820   311    3.586759   312    3.598596  
     313    3.677443   314    3.696179   315    3.721385  
     316    3.782886   317    3.797350   318    3.877200  
     319    3.900721   320    3.962908   321    3.974063  
     322    4.100868   323    4.107546   324    4.533221  
     325    4.536620   326   13.284966  

  ==> SCF B: <==

    Maxiter =          50
    E Tol   =   1.000E-06
    D Tol   =   1.000E-08

    Max DIIS Vectors = 5

    Iter   N:                        E          dE         |D|
    Iter   1:  -3.6224160178171985E+01  -3.622E+01   1.646E-03 
    Iter   2:  -3.6226186307264626E+01  -2.026E-03   1.364E-04 DIIS
    Iter   3:  -3.6226227687933751E+01  -4.138E-05   2.562E-05 DIIS
    Iter   4:  -3.6226229756507315E+01  -2.069E-06   5.681E-06 DIIS
    Iter   5:  -3.6226229887611005E+01  -1.311E-07   1.303E-06 DIIS
    Iter   6:  -3.6226229893794176E+01  -6.183E-09   2.147E-07 DIIS
    Iter   7:  -3.6226229893948755E+01  -1.546E-10   2.699E-08 DIIS
    Iter   8:  -3.6226229893951050E+01  -2.295E-12   3.611E-09 DIIS

    FISAPTSCF Converged.

    Final SCF Energy:  -3.6226229893951050E+01 [Eh]

   => Occupied Orbital Energies <=

       1  -11.223138     2   -0.839782     3   -0.551920  
       4   -0.547106  

   => Virtual Orbital Energies <=

       5    0.028757     6    0.054516     7    0.059759  
       8    0.065981     9    0.069808    10    0.076333  
      11    0.079909    12    0.086520    13    0.090920  
      14    0.094927    15    0.104269    16    0.109814  
      17    0.113837    18    0.120992    19    0.127014  
      20    0.132177    21    0.136830    22    0.140707  
      23    0.144325    24    0.151145    25    0.156173  
      26    0.167224    27    0.169715    28    0.178755  
      29    0.181123    30    0.184575    31    0.190866  
      32    0.196503    33    0.199516    34    0.201147  
      35    0.201871    36    0.215626    37    0.223212  
      38    0.230665    39    0.236375    40    0.238929  
      41    0.242071    42    0.251900    43    0.257704  
      44    0.259262    45    0.264822    46    0.271607  
      47    0.276375    48    0.284680    49    0.286351  
      50    0.293243    51    0.300912    52    0.310916  
      53    0.315187    54    0.319258    55    0.324140  
      56    0.332545    57    0.334709    58    0.341489  
      59    0.347312    60    0.354238    61    0.359790  
      62    0.363862    63    0.366456    64    0.372640  
      65    0.380535    66    0.388819    67    0.390530  
      68    0.393496    69    0.399463    70    0.406346  
      71    0.412171    72    0.417548    73    0.420531  
      74    0.423426    75    0.427600    76    0.441551  
      77    0.444224    78    0.446871    79    0.458964  
      80    0.463273    81    0.467269    82    0.477046  
      83    0.488157    84    0.494358    85    0.504378  
      86    0.510931    87    0.520626    88    0.524118  
      89    0.539038    90    0.551913    91    0.556714  
      92    0.561767    93    0.577093    94    0.591063  
      95    0.599067    96    0.606170    97    0.608320  
      98    0.618642    99    0.629956   100    0.641838  
     101    0.645561   102    0.648677   103    0.702703  
     104    0.707194   105    0.727541   106    0.767443  
     107    0.775785   108    0.790967   109    0.807167  
     110    0.824039   111    0.830531   112    0.851457  
     113    0.859866   114    0.883686   115    0.890653  
     116    0.901615   117    0.907424   118    0.920993  
     119    0.921055   120    0.926356   121    0.929746  
     122    0.935534   123    0.940829   124    0.952471  
     125    0.956594   126    0.961466   127    0.967462  
     128    0.984543   129    0.989849   130    0.994301  
     131    1.008547   132    1.012465   133    1.018433  
     134    1.022467   135    1.031890   136    1.047940  
     137    1.059523   138    1.062265   139    1.071689  
     140    1.077199   141    1.091369   142    1.102297  
     143    1.109080   144    1.120639   145    1.125772  
     146    1.139564   147    1.161652   148    1.164859  
     149    1.176444   150    1.190820   151    1.224520  
     152    1.234492   153    1.255852   154    1.296802  
     155    1.328610   156    1.343000   157    1.362532  
     158    1.368492   159    1.409433   160    1.424728  
     161    1.452323   162    1.485745   163    1.498690  
     164    1.505965   165    1.529781   166    1.535945  
     167    1.545507   168    1.548954   169    1.563267  
     170    1.566284   171    1.575751   172    1.599065  
     173    1.625709   174    1.633442   175    1.639323  
     176    1.646595   177    1.665813   178    1.673997  
     179    1.687983   180    1.700862   181    1.708833  
     182    1.721989   183    1.727651   184    1.762691  
     185    1.775096   186    1.779086   187    1.797515  
     188    1.804127   189    1.821640   190    1.829899  
     191    1.835580   192    1.856124   193    1.868517  
     194    1.893538   195    1.898193   196    1.908756  
     197    1.926017   198    1.942981   199    1.948604  
     200    1.960086   201    1.966532   202    1.977616  
     203    1.990894   204    1.999817   205    2.008244  
     206    2.019604   207    2.028396   208    2.032941  
     209    2.036442   210    2.060258   211    2.063230  
     212    2.075040   213    2.080535   214    2.096060  
     215    2.106827   216    2.112027   217    2.127865  
     218    2.131409   219    2.146656   220    2.158544  
     221    2.164887   222    2.174487   223    2.176745  
     224    2.199098   225    2.207932   226    2.213841  
     227    2.231477   228    2.240222   229    2.261720  
     230    2.289439   231    2.293530   232    2.307202  
     233    2.321871   234    2.326337   235    2.341272  
     236    2.351164   237    2.354356   238    2.379527  
     239    2.390791   240    2.406972   241    2.412339  
     242    2.415746   243    2.419651   244    2.445964  
     245    2.447544   246    2.467411   247    2.482646  
     248    2.500973   249    2.535088   250    2.545594  
     251    2.570316   252    2.584861   253    2.612878  
     254    2.625650   255    2.642967   256    2.653774  
     257    2.666108   258    2.675468   259    2.687625  
     260    2.703293   261    2.742520   262    2.768779  
     263    2.775154   264    2.787237   265    2.801420  
     266    2.814371   267    2.842664   268    2.860899  
     269    2.866198   270    2.869086   271    2.872997  
     272    2.884409   273    2.898538   274    2.907819  
     275    2.920366   276    2.934264   277    2.946970  
     278    2.974738   279    2.993335   280    3.000191  
     281    3.017692   282    3.059955   283    3.070652  
     284    3.084106   285    3.136283   286    3.206786  
     287    3.268727   288    3.303660   289    3.338254  
     290    3.400081   291    3.418954   292    3.447997  
     293    3.538754   294    3.580009   295    3.626894  
     296    3.647966   297    3.695546   298    3.710423  
     299    3.789219   300    3.820075   301    3.881827  
     302    3.953561   303    3.959478   304    4.087257  
     305    4.172580   306    4.203788   307    4.440199  
     308    4.509900   309    4.544685   310    4.760814  
     311    4.939616   312    5.040676   313    5.063620  
     314    5.211139   315    5.319125   316    5.535837  
     317    5.620068   318    5.722681   319    5.868159  
     320    6.097159   321    6.327037   322    6.712047  
     323   13.371240   324   18.424817   325   33.424103  
     326   33.474813  

  ==> Frozen Core <==


    ------------------
    Range      A     B
    ------------------
    nbf      368   368
    nmo      326   326
    nocc      15     4
    nvir     311   322
    nfocc      4     1
    naocc     11     3
    navir    311   322
    nfvir      0     0
    ------------------

  ==> Unification <==

  ==> dHF <==

    E ABC(HF) =  -8.0027179846134754E+02 [Eh]
    E AC(0)   =  -7.6010891748344943E+02 [Eh]
    E BC(0)   =  -5.7221389567241101E+02 [Eh]
    E A(0)    =  -2.1265323885412917E+02 [Eh]
    E B(0)    =  -2.5034119139324190E+01 [Eh]
    E AC(HF)  =  -7.6010152129115590E+02 [Eh]
    E BC(HF)  =  -5.7221182595663311E+02 [Eh]
    E AB(HF)  =  -2.3765912429439916E+02 [Eh]
    E A(HF)   =  -2.1263890486015882E+02 [Eh]
    E B(HF)   =  -2.5020839299021844E+01 [Eh]
    E C       =  -5.3204092892166125E+02 [Eh]
    E HF      =   1.0085772851653019E-02 [Eh]

  ==> Electrostatics <==

    Elst10,r            =     0.008017234511 [Eh]

  ==> Exchange <==

    Exch10(S^2)         =     0.003135889134 [Eh]
    Exch10              =     0.003140508796 [Eh]

  ==> Induction <==

    Ind20,u (A<-B)      =    -0.000319204287 [Eh]
    Ind20,u (B<-A)      =    -0.001074027780 [Eh]
    Ind20,u             =    -0.001393232067 [Eh]
    Exch-Ind20,u (A<-B) =     0.000097790933 [Eh]
    Exch-Ind20,u (B<-A) =     0.000495793858 [Eh]
    Exch-Ind20,u        =     0.000593584791 [Eh]

  ==> CPHF Iterations <==

    Maxiter     =          50
    Convergence =   1.000E-08

    -----------------------------------------
    Iter   Monomer A    Monomer B    Time [s]
    -----------------------------------------
    1      2.567E-01    1.650E-01           1
    2      7.942E-02    2.936E-02           2
    3      2.600E-02    4.767E-03           3
    4      9.857E-03    6.576E-04           3
    5      3.575E-03    9.007E-05           4
    6      1.176E-03    1.290E-05           5
    7      4.018E-04    1.790E-06           6
    8      1.375E-04    2.314E-07           7
    9      3.654E-05    2.521E-08           8
    10     1.208E-05    2.465E-09*          9
    11     3.551E-06    2.465E-09*          9
    12     1.101E-06    2.465E-09*         10
    13     3.037E-07    2.465E-09*         10
    14     7.099E-08    2.465E-09*         11
    15     1.532E-08    2.465E-09*         11
    16     4.497E-09*   2.465E-09*         12
    -----------------------------------------

    Ind20,r (A<-B)      =    -0.000363256843 [Eh]
    Ind20,r (B<-A)      =    -0.001261503645 [Eh]
    Ind20,r             =    -0.001624760488 [Eh]
    Exch-Ind20,r (A<-B) =     0.000124429932 [Eh]
    Exch-Ind20,r (B<-A) =     0.000620595403 [Eh]
    Exch-Ind20,r        =     0.000745025335 [Eh]

  ==> F-SAPT Localization (IBO) <==

  Local Orbitals for Monomer A:

  ==> IBO Localizer 2 <==

    MinAO Basis = CC-PVTZ-MINAO
    Use Ghosts  =       FALSE
    Use Stars   =       FALSE
    Condition   =   1.000E-07
    Power       =           4
    Convergence =   1.000E-12
    Maxiter     =        1000

    @IBO Iter:                   Metric       Gradient
    @IBO    1:   1.4807813254299100E+00   1.670962E+00
    @IBO    2:   1.6770910771715009E+00   9.392880E-01
    @IBO    3:   1.7093583710029130E+00   3.521265E-01
    @IBO    4:   1.7109166427674909E+00   5.612078E-03
    @IBO    5:   1.7109175908444247E+00   2.387907E-04
    @IBO    6:   1.7109175915367323E+00   3.831942E-06
    @IBO    7:   1.7109175915369663E+00   9.505968E-08
    @IBO    8:   1.7109175915369668E+00   2.033903E-09
    @IBO    9:   1.7109175915369665E+00   4.809122E-11
    @IBO   10:   1.7109175915369665E+00   1.376855E-12
    @IBO   11:   1.7109175915369665E+00   4.833168E-14

    IBO Localizer 2 converged.

  Local Orbitals for Monomer B:

  ==> IBO Localizer 2 <==

    MinAO Basis = CC-PVTZ-MINAO
    Use Ghosts  =       FALSE
    Use Stars   =       FALSE
    Condition   =   1.000E-07
    Power       =           4
    Convergence =   1.000E-12
    Maxiter     =        1000

    @IBO Iter:                   Metric       Gradient
    @IBO    1:   1.0645347525278284E+00   1.850424E-02
    @IBO    2:   1.0834167570403046E+00   3.492395E-03
    @IBO    3:   1.0834252362472745E+00   1.271779E-06
    @IBO    4:   1.0834252362483978E+00   1.501660E-10
    @IBO    5:   1.0834252362483980E+00   4.347370E-14

    IBO Localizer 2 converged.

  ==> F-SAPT Electrostatics <==

  ==> DFERI: Density Fitted 3-Index Tensors <==

    Schwarz cutoff =   0.000E+00
    J cutoff       =   1.000E-12
    Mem (GB)       =         628

   => Auxiliary Basis <=

  Basis Set: (JUN-CC-PVDZ AUX)
    Blend: JUN-CC-PVDZ-JKFIT
    Number of shells: 576
    Number of basis function: 1632
    Number of Cartesian functions: 1856
    Spherical Harmonics?: true
    Max angular momentum: 3

    Elst10,r            =     0.008017234130 [Eh]

  ==> F-SAPT Exchange <==

  ==> DFERI: Density Fitted 3-Index Tensors <==

    Schwarz cutoff =   0.000E+00
    J cutoff       =   1.000E-12
    Mem (GB)       =         628

   => Auxiliary Basis <=

  Basis Set: (JUN-CC-PVDZ AUX)
    Blend: JUN-CC-PVDZ-JKFIT
    Number of shells: 576
    Number of basis function: 1632
    Number of Cartesian functions: 1856
    Spherical Harmonics?: true
    Max angular momentum: 3

    Exch10(S^2)         =     0.003135889134 [Eh]

    Scaling F-SAPT Exch10(S^2) by   1.001E+00 to match Exch10

  ==> F-SAPT Induction <==

  ==> DFERI: Density Fitted 3-Index Tensors <==

    Schwarz cutoff =   0.000E+00
    J cutoff       =   1.000E-12
    Mem (GB)       =         628

   => Auxiliary Basis <=

  Basis Set: (JUN-CC-PVDZ AUX)
    Blend: JUN-CC-PVDZ-JKFIT
    Number of shells: 576
    Number of basis function: 1632
    Number of Cartesian functions: 1856
    Spherical Harmonics?: true
    Max angular momentum: 3

    Ind20,u (A<-B)      =    -0.000319204287 [Eh]
    Ind20,u (B<-A)      =    -0.001074027781 [Eh]
    Ind20,u             =    -0.001393232068 [Eh]
    Exch-Ind20,u (A<-B) =     0.000097790933 [Eh]
    Exch-Ind20,u (B<-A) =     0.000495793858 [Eh]
    Exch-Ind20,u        =     0.000593584791 [Eh]

    Scaling for delta HF        =   1.219E+00
    Scaling for response (A<-B) =   1.079E+00
    Scaling for response (B<-A) =   1.108E+00
    Scaling for total (A<-B)    =   1.314E+00
    Scaling for total (B<-A)    =   1.351E+00

  ==> F-SAPT Dispersion <==

  ==> DFERI: Density Fitted 3-Index Tensors <==

    Schwarz cutoff =   0.000E+00
    J cutoff       =   1.000E-12
    Mem (GB)       =         628

   => Auxiliary Basis <=

  Basis Set: (JUN-CC-PVDZ AUX)
    Blend: JUN-CC-PVDZ-RI
    Number of shells: 432
    Number of basis function: 1264
    Number of Cartesian functions: 1456
    Spherical Harmonics?: true
    Max angular momentum: 3

    Disp20              =    -0.002576104998 [Eh]
    Exch-Disp20         =     0.000249410700 [Eh]

  ==> F-SAPT Output <==

    F-SAPT Data Filepath = fsapt/

  ==> Results <==


    SAPT Results  
  --------------------------------------------------------------------------------------------------------
    Electrostatics                  8.01723451 [mEh]       5.03089082 [kcal/mol]      21.04924921 [kJ/mol]
      Elst10,r                      8.01723451 [mEh]       5.03089082 [kcal/mol]      21.04924921 [kJ/mol]

    Exchange                        3.14050880 [mEh]       1.97069910 [kcal/mol]       8.24540584 [kJ/mol]
      Exch10                        3.14050880 [mEh]       1.97069910 [kcal/mol]       8.24540584 [kJ/mol]
      Exch10(S^2)                   3.13588913 [mEh]       1.96780022 [kcal/mol]       8.23327692 [kJ/mol]

    Induction                      -1.07197046 [mEh]      -0.67267164 [kcal/mol]      -2.81445843 [kJ/mol]
      Ind20,r                      -1.62476049 [mEh]      -1.01955264 [kcal/mol]      -4.26580866 [kJ/mol]
      Exch-Ind20,r                  0.74502534 [mEh]       0.46751048 [kcal/mol]       1.95606402 [kJ/mol]
      delta HF,r (2)               -0.19223530 [mEh]      -0.12062948 [kcal/mol]      -0.50471379 [kJ/mol]
      Induction (A<-B)             -0.29101417 [mEh]      -0.18261415 [kcal/mol]      -0.76405770 [kJ/mol]
      Induction (B<-A)             -0.78095629 [mEh]      -0.49005749 [kcal/mol]      -2.05040074 [kJ/mol]

    Dispersion                     -2.32669430 [mEh]      -1.46002278 [kcal/mol]      -6.10873588 [kJ/mol]
      Disp20                       -2.57610500 [mEh]      -1.61653036 [kcal/mol]      -6.76356367 [kJ/mol]
      Exch-Disp20                   0.24941070 [mEh]       0.15650758 [kcal/mol]       0.65482779 [kJ/mol]

  Total HF                         10.08577285 [mEh]       6.32891828 [kcal/mol]      26.48019662 [kJ/mol]
  Total SAPT0                       7.75907855 [mEh]       4.86889550 [kcal/mol]      20.37146074 [kJ/mol]

  --------------------------------------------------------------------------------------------------------
    Han Solo: This is *not* gonna work.
    Luke Skywalker: Why didn't you say so before?
    Han Solo: I *did* say so before.

*** tstop() called on vega02.cac.cornell.edu at Tue Oct 17 21:22:08 2017
Module time:
	user time   =    1838.82 seconds =      30.65 minutes
	system time =      11.16 seconds =       0.19 minutes
	total time  =         76 seconds =       1.27 minutes
Total time:
	user time   =    2540.64 seconds =      42.34 minutes
	system time =      17.44 seconds =       0.29 minutes
	total time  =        114 seconds =       1.90 minutes

*** Psi4 exiting successfully. Buy a developer a beer!
