mFile = /opt/software/qchem/qchem-5.0.1//bin/mpi/machines
Process 0 of 1 is on vega02.cac.cornell.edu - thread support 0
initial socket setup ...start
initial socket setup ...done 
now start server 0 ... 
vega02.cac.cornell.edu 10.84.3
Q-Chem Developer Version! Running on 10.84.3.*
                  Welcome to Q-Chem
     A Quantum Leap Into The Future Of Chemistry


 Q-Chem 5.0, Q-Chem, Inc., Pleasanton, CA (2017)

 Yihan Shao,  Zhengting Gan,  E. Epifanovsky,  A. T. B. Gilbert,  M. Wormit,  
 J. Kussmann,  A. W. Lange,  A. Behn,  Jia Deng,  Xintian Feng,  D. Ghosh,  
 M. Goldey,  P. R. Horn,  L. D. Jacobson,  I. Kaliman,  T. Kus,  A. Landau,  
 Jie Liu,  E. I. Proynov,  R. M. Richard,  R. P. Steele,  E. J. Sundstrom,  
 H. L. Woodcock III,  P. M. Zimmerman,  D. Zuev,  B. Albrecht,  E. Alguire,  
 S. A. Baeppler,  Z. Benda,  Y. A. Bernard,  E. J. Berquist,  K. B. Bravaya,  
 D. Casanova,  Chun-Min Chang,  Yunqing Chen,  A. Chien,  K. D. Closser,  
 M. P. Coons,  S. Dasgupta,  M. Diedenhofen,  Hainam Do,  R. G. Edgar,  
 Po-Tung Fang,  S. Fatehi,  Qingguo Feng,  Qinghui Ge,  A. Ghysels,  
 J. Gomes,  J. Gonthier,  A. Gunina,  M. W. D. Hanson-Heine,  
 P. H. P. Harbach,  A. W. Hauser,  J. E. Herr,  E. G. Hohenstein,  
 Z. C. Holden,  Kerwin Hui,  T.-C. Jagau,  Hyunjun Ji,  B. Kaduk,  
 K. Khistyaev,  Jaehoon Kim,  P. Klunzinger,  K. Koh,  D. Kosenkov,  
 T. Kowalczyk,  C. M. Krauter,  A. Kunitsa,  Ka Un Lao,  A. Laurent,  
 K. V. Lawler,  Joonho Lee,  D. Lefrancois,  S. Lehtola,  D. S. Levine,  
 Yi-Pei Li,  You-Sheng Lin,  Fenglai Liu,  E. Livshits,  A. Luenser,  
 P. Manohar,  E. Mansoor,  S. F. Manzer,  Shan-Ping Mao,  Yuezhi Mao,  
 N. Mardirossian,  A. V. Marenich,  L. A. Martinez-Martinez,  S. A. Maurer,  
 N. J. Mayhall,  S. C. McKenzie,  J.-M. Mewes,  A. F. Morrison,  K. Nanda,  
 T. S. Nguyen-Beck,  R. Olivares-Amaya,  J. A. Parkhill,  T. M. Perrine,  
 F. Plasser,  S. Prager,  A. Prociuk,  D. R. Rehn,  F. Rob,  M. Schneider,  
 N. Sergueev,  S. M. Sharada,  S. Sharma,  D. W. Small,  T. Stauch,  
 T. Stein,  Yu-Chuan Su,  A. J. W. Thom,  T. Tsuchimochi,  L. Vogt,  
 O. Vydrov,  M. A. Watson,  J. Wenzel,  M. de Wergifosse,  T. A. Wesolowski,  
 A. White,  J. Witte,  A. Yamada,  Jun Yang,  K. Yao,  S. Yeganeh,  
 S. R. Yost,  Zhi-Qiang You,  A. Zech,  Igor Ying Zhang,  Xing Zhang,  
 Yan Zhao,  Ying Zhu,  B. R. Brooks,  G. K. L. Chan,  C. J. Cramer,  
 M. S. Gordon,  W. J. Hehre,  A. Klamt,  M. W. Schmidt,  C. D. Sherrill,  
 D. G. Truhlar,  A. Aspuru-Guzik,  R. Baer,  A. T. Bell,  N. A. Besley,  
 Jeng-Da Chai,  A. Dreuw,  B. D. Dunietz,  T. R. Furlani,  Chao-Ping Hsu,  
 Yousung Jung,  Jing Kong,  D. S. Lambrecht,  WanZhen Liang,  C. Ochsenfeld,  
 V. A. Rassolov,  L. V. Slipchenko,  J. E. Subotnik,  T. Van Voorhis,  
 J. M. Herbert,  A. I. Krylov,  P. M. W. Gill,  M. Head-Gordon

 Contributors to earlier versions of Q-Chem not listed above: 
 R. D. Adamson,  B. Austin,  J. Baker,  G. J. O. Beran,  K. Brandhorst,  
 S. T. Brown,  E. F. C. Byrd,  A. K. Chakraborty,  C.-L. Cheng,  
 Siu Hung Chien,  D. M. Chipman,  D. L. Crittenden,  H. Dachsel,  
 R. A. DiStasio Jr.,  R. J. Doerksen,  A. D. Dutoi,  L. Fusti-Molnar,  
 W. A. Goddard III,  A. Golubeva-Zadorozhnaya,  S. R. Gwaltney,  G. Hawkins,  
 A. Heyden,  S. Hirata,  G. Kedziora,  F. J. Keil,  C. Kelley,  Jihan Kim,  
 R. A. King,  R. Z. Khaliullin,  P. P. Korambath,  W. Kurlancheek,  
 A. M. Lee,  M. S. Lee,  S. V. Levchenko,  Ching Yeh Lin,  D. Liotard,  
 R. C. Lochan,  I. Lotan,  P. E. Maslen,  N. Nair,  D. P. O'Neill,  
 D. Neuhauser,  E. Neuscamman,  C. M. Oana,  R. Olson,  B. Peters,  
 R. Peverati,  P. A. Pieniazek,  Y. M. Rhee,  J. Ritchie,  M. A. Rohrdanz,  
 E. Rosta,  N. J. Russ,  H. F. Schaefer III,  N. E. Schultz,  N. Shenvi,  
 A. C. Simmonett,  A. Sodt,  D. Stuck,  K. S. Thanthiriwatte,  V. Vanovschi,  
 Tao Wang,  A. Warshel,  C. F. Williams,  Q. Wu,  X. Xu,  W. Zhang

 Please cite Q-Chem as follows:
 Y. Shao et al., Mol. Phys. 113, 184-215 (2015)
 DOI: 10.1080/00268976.2014.952696

 Q-Chem 5.0.1 for Intel X86 EM64T Linux

 Parts of Q-Chem use Armadillo 5.200.1 (Boston Tea Smuggler).
 http://arma.sourceforge.net/

 Q-Chem begins on Wed Apr 18 16:06:40 2018  

Host: vega02.cac.cornell.edu
0

     Scratch files written to /scratch/jj585/vdw/benzene_distance_3.900_01.save//
 Parallel job on  1  processors

Checking the input file for inconsistencies... 	...done.

--------------------------------------------------------------
User input:
--------------------------------------------------------------
$molecule
0  1
C        +0.00000000        +1.39198000        +3.90000000
C        +1.20549000        +0.69599000        +3.90000000
C        +1.20549000        -0.69599000        +3.90000000
C        +0.00000000        -1.39198000        +3.90000000
C        -1.20549000        -0.69599000        +3.90000000
C        -1.20549000        +0.69599000        +3.90000000
H        +0.00000000        +2.47223000        +3.90000000
H        +2.14101000        +1.23612000        +3.90000000
H        +2.14101000        -1.23612000        +3.90000000
H        +0.00000000        -2.47223000        +3.90000000
H        -2.14101000        -1.23612000        +3.90000000
H        -2.14101000        +1.23612000        +3.90000000
@C        +0.00000000        +1.39198000        +0.00000000
@C        +1.20549000        +0.69599000        +0.00000000
@C        +1.20549000        -0.69599000        +0.00000000
@C        +0.00000000        -1.39198000        +0.00000000
@C        -1.20549000        -0.69599000        +0.00000000
@C        -1.20549000        +0.69599000        +0.00000000
@H        +0.00000000        +2.47223000        +0.00000000
@H        +2.14101000        +1.23612000        +0.00000000
@H        +2.14101000        -1.23612000        +0.00000000
@H        +0.00000000        -2.47223000        +0.00000000
@H        -2.14101000        -1.23612000        +0.00000000
@H        -2.14101000        +1.23612000        +0.00000000
$end

$rem
JOBTYPE                   SP
METHOD                    B3LYP
DFT_D                     d3_op
BASIS                     6-311++G(d,p)
SYMMETRY                  False
THRESH                    12
SCF_CONVERGENCE           8
MAX_SUB_FILE_NUM          128
MEM_STATIC                400
MEM_TOTAL                 4000
$end
--------------------------------------------------------------
 Adding empirical dispersion correction 
 ----------------------------------------------------------------
 Doing -D3(op) with
 s6 =   1.00000
 s8 =   0.78311
 a1 =   0.30000
 a2 =   4.25000
 n  =  10.00000
 -D3 energy without 3body term =     -0.0081861633 hartrees
 ----------------------------------------------------------------
             Standard Nuclear Orientation (Angstroms)
    I     Atom           X                Y                Z
 ----------------------------------------------------------------
    1      C       0.0000000000     1.3919800000     3.9000000000
    2      C       1.2054900000     0.6959900000     3.9000000000
    3      C       1.2054900000    -0.6959900000     3.9000000000
    4      C       0.0000000000    -1.3919800000     3.9000000000
    5      C      -1.2054900000    -0.6959900000     3.9000000000
    6      C      -1.2054900000     0.6959900000     3.9000000000
    7      H       0.0000000000     2.4722300000     3.9000000000
    8      H       2.1410100000     1.2361200000     3.9000000000
    9      H       2.1410100000    -1.2361200000     3.9000000000
   10      H       0.0000000000    -2.4722300000     3.9000000000
   11      H      -2.1410100000    -1.2361200000     3.9000000000
   12      H      -2.1410100000     1.2361200000     3.9000000000
   13      GH      0.0000000000     1.3919800000     0.0000000000
   14      GH      1.2054900000     0.6959900000     0.0000000000
   15      GH      1.2054900000    -0.6959900000     0.0000000000
   16      GH      0.0000000000    -1.3919800000     0.0000000000
   17      GH     -1.2054900000    -0.6959900000     0.0000000000
   18      GH     -1.2054900000     0.6959900000     0.0000000000
   19      GH      0.0000000000     2.4722300000     0.0000000000
   20      GH      2.1410100000     1.2361200000     0.0000000000
   21      GH      2.1410100000    -1.2361200000     0.0000000000
   22      GH      0.0000000000    -2.4722300000     0.0000000000
   23      GH     -2.1410100000    -1.2361200000     0.0000000000
   24      GH     -2.1410100000     1.2361200000     0.0000000000
 ----------------------------------------------------------------
 Nuclear Repulsion Energy =   203.9449308443 hartrees
 There are       21 alpha and       21 beta electrons
 Requested basis set is 6-311++G(d,p)
 There are 132 shells and 348 basis functions

 Total QAlloc Memory Limit   4000 MB
 Mega-Array Size       392 MB
 MEM_STATIC part       400 MB
 A cutoff of  1.0D-12 yielded   7662 shell pairs
 There are     55038 function pairs (     58980 Cartesian)
 
 -------------------------------------------------------
 OpenMP Integral Computing Module                       
 Release: version 1.0, May 2013, Q-Chem Inc. Pittsburgh 
 -------------------------------------------------------
 Integral Job Info:
 Integral job number is                      11
 Integral operator is                         1
 short-range coefficients                     0
 long-range coefficients              100000000
 Omega coefficients                           0
 if combine SR and LR in K                    0
 Integral screening is                        0
 Integral computing path is                   2
 max size of driver memory is            800000
 size of driver memory is                593474
 size of scratch memory is              2361544
 max col of scratch BK array               1296
 max len of scratch array in speh3          155
 max len of scratch index in speh4           18
 max int batch size is                      520
 min int batch size is                       52
 fixed nKL is                                52
 max L of basis functions is                  2
 order of int derivative is                   0
 number of shells is                        132
 number of basis is                         360
 number of cartesian basis is               360
 number of contracted shell pairs          7662
 number of primitive shell pairs          17358
 maxK2 (contraction) of shell pair           36
 max number of K2 of shell pair               1
 max number of CS2 of shell pair           1404
 max number of PS2 of shell pair           2376
 mem total for path MDJ                  103576
 -------------------------------------------------------
 Smallest overlap matrix eigenvalue = 1.82E-07
 Linear dependence detected in AO basis
 Number of orthogonalized atomic orbitals = 346
 Maximum deviation from orthogonality = 2.110E-11

 Scale SEOQF with 1.000000e-01/1.000000e-01/1.000000e-01

 Standard Electronic Orientation quadrupole field applied
 Nucleus-field energy     =    -0.0000000627 hartrees
 Guess from superposition of atomic densities
 Warning:  Energy on first SCF cycle will be non-variational

 Q-Chem warning in module /opt/software/qchem/qchem-5.0.1/libgen/Atomic_PolEc.C, line 58:

 No atomic polarizability available.


 Q-Chem warning in module /opt/software/qchem/qchem-5.0.1/libgen/Atomic_PolEc.C, line 73:

 No atomic polarizability available.


 Q-Chem warning in module /opt/software/qchem/qchem-5.0.1/libgen/Atomic_PolEc.C, line 58:

 No atomic polarizability available.


 Q-Chem warning in module /opt/software/qchem/qchem-5.0.1/libgen/Atomic_PolEc.C, line 73:

 No atomic polarizability available.


 Q-Chem warning in module /opt/software/qchem/qchem-5.0.1/libgen/Atomic_PolEc.C, line 58:

 No atomic polarizability available.


 Q-Chem warning in module /opt/software/qchem/qchem-5.0.1/libgen/Atomic_PolEc.C, line 73:

 No atomic polarizability available.


 Q-Chem warning in module /opt/software/qchem/qchem-5.0.1/libgen/Atomic_PolEc.C, line 58:

 No atomic polarizability available.


 Q-Chem warning in module /opt/software/qchem/qchem-5.0.1/libgen/Atomic_PolEc.C, line 73:

 No atomic polarizability available.


 Q-Chem warning in module /opt/software/qchem/qchem-5.0.1/libgen/Atomic_PolEc.C, line 58:

 No atomic polarizability available.


 Q-Chem warning in module /opt/software/qchem/qchem-5.0.1/libgen/Atomic_PolEc.C, line 73:

 No atomic polarizability available.


 Q-Chem warning in module /opt/software/qchem/qchem-5.0.1/libgen/Atomic_PolEc.C, line 58:

 No atomic polarizability available.


 Q-Chem warning in module /opt/software/qchem/qchem-5.0.1/libgen/Atomic_PolEc.C, line 73:

 No atomic polarizability available.


 Q-Chem warning in module /opt/software/qchem/qchem-5.0.1/libgen/Atomic_PolEc.C, line 58:

 No atomic polarizability available.


 Q-Chem warning in module /opt/software/qchem/qchem-5.0.1/libgen/Atomic_PolEc.C, line 73:

 No atomic polarizability available.


 Q-Chem warning in module /opt/software/qchem/qchem-5.0.1/libgen/Atomic_PolEc.C, line 58:

 No atomic polarizability available.


 Q-Chem warning in module /opt/software/qchem/qchem-5.0.1/libgen/Atomic_PolEc.C, line 73:

 No atomic polarizability available.


 Q-Chem warning in module /opt/software/qchem/qchem-5.0.1/libgen/Atomic_PolEc.C, line 58:

 No atomic polarizability available.


 Q-Chem warning in module /opt/software/qchem/qchem-5.0.1/libgen/Atomic_PolEc.C, line 73:

 No atomic polarizability available.


 Q-Chem warning in module /opt/software/qchem/qchem-5.0.1/libgen/Atomic_PolEc.C, line 58:

 No atomic polarizability available.


 Q-Chem warning in module /opt/software/qchem/qchem-5.0.1/libgen/Atomic_PolEc.C, line 73:

 No atomic polarizability available.


 Q-Chem warning in module /opt/software/qchem/qchem-5.0.1/libgen/Atomic_PolEc.C, line 58:

 No atomic polarizability available.


 Q-Chem warning in module /opt/software/qchem/qchem-5.0.1/libgen/Atomic_PolEc.C, line 73:

 No atomic polarizability available.


 Q-Chem warning in module /opt/software/qchem/qchem-5.0.1/libgen/Atomic_PolEc.C, line 58:

 No atomic polarizability available.


 Q-Chem warning in module /opt/software/qchem/qchem-5.0.1/libgen/Atomic_PolEc.C, line 73:

 No atomic polarizability available.

 A restricted hybrid HF-DFT SCF calculation will be
 performed using Pulay DIIS extrapolation
 Exchange:     0.2000 Hartree-Fock + 0.0800 Slater + 0.7200 B88
 Correlation:  0.1900 VWN1RPA + 0.8100 LYP
 Using SG-1 standard quadrature grid
 Dispersion:   Grimme D3
 SCF converges when DIIS error is below 1.0E-08
 using 4 threads for integral computing
 -------------------------------------------------------
 OpenMP Integral computing Module                
 Release: version 1.0, May 2013, Q-Chem Inc. Pittsburgh 
 -------------------------------------------------------
 -------------------------------------------------------
 OpenMP BLAS3 based DFT computing Module                
 Release: version 1.0, May 2013, Q-Chem Inc. Pittsburgh 
 -------------------------------------------------------
 ---------------------------------------
  Cycle       Energy         DIIS Error
 ---------------------------------------
    1    -233.6359539469      2.44E-02
    2    -232.1995265922      2.66E-03
    3    -232.1625080602      3.11E-03
    4    -232.3189964583      2.12E-04
    5    -232.3195627236      3.01E-05
    6    -232.3195755781      2.01E-06
    7    -232.3195756499      4.68E-07
    8    -232.3195756529      1.44E-07
    9    -232.3195756532      3.27E-08
   10    -232.3195756532      6.17E-09 Convergence criterion met
 ---------------------------------------
 SCF time:  CPU 203.66 s  wall 51.11 s
 SCF   energy in the final basis set = -232.31957565
 Total energy in the final basis set = -232.31957565
 
 --------------------------------------------------------------
 
                    Orbital Energies (a.u.)
 --------------------------------------------------------------
 
 Alpha MOs
 -- Occupied --
-10.178 -10.178 -10.178 -10.177 -10.177 -10.177  -0.861  -0.752
 -0.752  -0.609  -0.609  -0.531  -0.467  -0.454  -0.428  -0.428
 -0.374  -0.351  -0.351  -0.260  -0.260
 -- Virtual --
 -0.017  -0.017  -0.008   0.009   0.009   0.022   0.032   0.032
  0.042   0.042   0.059   0.063   0.068   0.069   0.077   0.094
  0.097   0.098   0.100   0.100   0.109   0.109   0.117   0.117
  0.119   0.132   0.132   0.132   0.146   0.147   0.149   0.149
  0.158   0.158   0.166   0.166   0.168   0.173   0.174   0.197
  0.197   0.198   0.198   0.207   0.210   0.210   0.211   0.219
  0.219   0.220   0.245   0.254   0.254   0.254   0.263   0.270
  0.270   0.270   0.270   0.289   0.289   0.296   0.296   0.313
  0.329   0.329   0.337   0.362   0.363   0.364   0.366   0.366
  0.380   0.409   0.411   0.412   0.433   0.433   0.434   0.453
  0.463   0.464   0.505   0.506   0.506   0.540   0.552   0.555
  0.563   0.563   0.569   0.590   0.590   0.611   0.616   0.617
  0.617   0.623   0.623   0.626   0.626   0.663   0.663   0.698
  0.713   0.713   0.728   0.736   0.736   0.740   0.750   0.750
  0.758   0.758   0.787   0.811   0.832   0.832   0.841   0.872
  0.881   0.881   0.893   0.893   0.929   0.929   0.934   0.935
  0.935   0.968   1.012   1.032   1.032   1.104   1.104   1.108
  1.113   1.145   1.145   1.167   1.172   1.173   1.197   1.197
  1.303   1.340   1.385   1.421   1.421   1.435   1.466   1.515
  1.515   1.516   1.526   1.526   1.543   1.546   1.546   1.581
  1.581   1.584   1.662   1.662   1.678   1.678   1.716   1.716
  1.735   1.738   1.738   1.742   1.745   1.745   1.789   1.789
  1.796   1.808   1.844   1.844   1.853   1.887   1.892   1.892
  1.941   1.941   1.958   1.965   1.970   1.970   1.976   1.976
  2.016   2.027   2.027   2.034   2.034   2.048   2.048   2.090
  2.090   2.228   2.245   2.286   2.295   2.311   2.332   2.347
  2.375   2.375   2.403   2.403   2.430   2.430   2.448   2.476
  2.476   2.476   2.498   2.498   2.558   2.568   2.568   2.589
  2.589   2.634   2.634   2.669   2.700   2.735   2.747   2.766
  2.766   2.773   2.773   2.777   2.831   2.831   2.891   2.891
  2.918   2.918   2.919   2.967   2.967   2.992   2.992   2.995
  2.995   3.009   3.091   3.111   3.197   3.197   3.300   3.300
  3.371   3.375   3.384   3.384   3.420   3.509   3.509   3.517
  3.533   3.533   3.536   3.540   3.589   3.589   3.700   3.727
  3.727   3.956   4.005   4.005   4.032   4.032   4.093   4.163
  4.163   4.550   4.847   4.869   4.876   4.876   5.097   5.097
  5.586   7.040   7.109   7.109   7.199   7.199   7.343   7.681
  7.748   7.748   7.771   7.799   7.799   7.958   7.958   7.971
  7.971   8.273   8.888   9.607  10.188  10.189  10.247  10.247
 10.314  23.614  23.991  23.991  24.104  24.104  24.213  69.940
 70.194  70.196  70.223  70.226  70.271
 --------------------------------------------------------------
 
          Ground-State Mulliken Net Atomic Charges

     Atom                 Charge (a.u.)
  ----------------------------------------
      1 C                    -0.166242
      2 C                    -0.164288
      3 C                    -0.164288
      4 C                    -0.166242
      5 C                    -0.164288
      6 C                    -0.164288
      7 H                     0.158099
      8 H                     0.157998
      9 H                     0.157998
     10 H                     0.158099
     11 H                     0.157998
     12 H                     0.157998
     13 GH                    0.002387
     14 GH                    0.003497
     15 GH                    0.003497
     16 GH                    0.002387
     17 GH                    0.003497
     18 GH                    0.003497
     19 GH                    0.003752
     20 GH                    0.003795
     21 GH                    0.003795
     22 GH                    0.003752
     23 GH                    0.003795
     24 GH                    0.003795
  ----------------------------------------
  Sum of atomic charges =    -0.000000

 -----------------------------------------------------------------
                    Cartesian Multipole Moments
 -----------------------------------------------------------------
    Charge (ESU x 10^10)
                 0.0000
    Dipole Moment (Debye)
         X      -0.0000      Y       0.0000      Z      -0.0010
       Tot       0.0010
    Quadrupole Moments (Debye-Ang)
        XX     -32.1980     XY      -0.0000     YY     -32.2011
        XZ      -0.0000     YZ       0.0000     ZZ     -40.2001
    Octopole Moments (Debye-Ang^2)
       XXX       0.0000    XXY       0.0000    XYY      -0.0000
       YYY       0.0000    XXZ    -125.5766    XYZ      -0.0000
       YYZ    -125.5909    XZZ      -0.0000    YZZ      -0.0000
       ZZZ    -470.2515
    Hexadecapole Moments (Debye-Ang^3)
      XXXX    -275.7187   XXXY       0.0000   XXYY     -91.9108
      XYYY      -0.0000   YYYY    -275.7389   XXXZ       0.0000
      XXYZ       0.0000   XYYZ      -0.0000   YYYZ       0.0000
      XXZZ    -554.7614   XYZZ      -0.0000   YYZZ    -554.8358
      XZZZ      -0.0000   YZZZ      -0.0000   ZZZZ   -3717.6137
 -----------------------------------------------------------------
Archival summary:
1\1\vega02.cac.cornell.edu\SP\ProcedureUnspecified\BasisUnspecified\66h12\jj585\WedApr1816:07:322018WedApr1816:07:322018\0\\#,ProcedureUnspecified,BasisUnspecified,\\0,1\C\H,1,1.08025\C,1,1.39198,2,120\H,3,1.08025,1,120,2,-0,0\C,1,1.39198,2,120,3,-180,0\H,5,1.08025,1,120,2,-0,0\C,3,1.39198,1,120,2,-180,0\H,7,1.08025,3,120,1,-180,0\C,7,1.39198,3,120,1,-0,0\H,9,1.08025,7,120,3,-180,0\C,9,1.39198,7,120,3,-0,0\H,11,1.08025,9,120,7,-180,0\Gh,4,3.9,3,90,1,90,0\Gh,13,1.08025,4,90,3,-0,0\Gh,14,1.39198,13,120,4,-90,0\Gh,15,1.08025,14,120,13,-0,0\Gh,15,1.39198,14,120,13,-180,0\Gh,17,1.08025,15,120,14,-180,0\Gh,14,1.39198,13,120,4,90,0\Gh,19,1.08025,14,120,13,-0,0\Gh,19,1.39198,14,120,13,-180,0\Gh,21,1.08025,19,120,14,-180,0\Gh,21,1.39198,19,120,14,-0,0\Gh,23,1.08025,21,120,19,-180,0\\\@

 Total job time:  51.81s(wall), 205.77s(cpu) 
 Wed Apr 18 16:07:32 2018

        *************************************************************
        *                                                           *
        *  Thank you very much for using Q-Chem.  Have a nice day.  *
        *                                                           *
        *************************************************************


0 sent ACK to 0 
now end server 0 ... 
