mFile = /opt/software/qchem/qchem-5.0.1//bin/mpi/machines
Process 0 of 1 is on vega02.cac.cornell.edu - thread support 0
initial socket setup ...start
initial socket setup ...done 
now start server 0 ... 
vega02.cac.cornell.edu 10.84.3
Q-Chem Developer Version! Running on 10.84.3.*
                  Welcome to Q-Chem
     A Quantum Leap Into The Future Of Chemistry


 Q-Chem 5.0, Q-Chem, Inc., Pleasanton, CA (2017)

 Yihan Shao,  Zhengting Gan,  E. Epifanovsky,  A. T. B. Gilbert,  M. Wormit,  
 J. Kussmann,  A. W. Lange,  A. Behn,  Jia Deng,  Xintian Feng,  D. Ghosh,  
 M. Goldey,  P. R. Horn,  L. D. Jacobson,  I. Kaliman,  T. Kus,  A. Landau,  
 Jie Liu,  E. I. Proynov,  R. M. Richard,  R. P. Steele,  E. J. Sundstrom,  
 H. L. Woodcock III,  P. M. Zimmerman,  D. Zuev,  B. Albrecht,  E. Alguire,  
 S. A. Baeppler,  Z. Benda,  Y. A. Bernard,  E. J. Berquist,  K. B. Bravaya,  
 D. Casanova,  Chun-Min Chang,  Yunqing Chen,  A. Chien,  K. D. Closser,  
 M. P. Coons,  S. Dasgupta,  M. Diedenhofen,  Hainam Do,  R. G. Edgar,  
 Po-Tung Fang,  S. Fatehi,  Qingguo Feng,  Qinghui Ge,  A. Ghysels,  
 J. Gomes,  J. Gonthier,  A. Gunina,  M. W. D. Hanson-Heine,  
 P. H. P. Harbach,  A. W. Hauser,  J. E. Herr,  E. G. Hohenstein,  
 Z. C. Holden,  Kerwin Hui,  T.-C. Jagau,  Hyunjun Ji,  B. Kaduk,  
 K. Khistyaev,  Jaehoon Kim,  P. Klunzinger,  K. Koh,  D. Kosenkov,  
 T. Kowalczyk,  C. M. Krauter,  A. Kunitsa,  Ka Un Lao,  A. Laurent,  
 K. V. Lawler,  Joonho Lee,  D. Lefrancois,  S. Lehtola,  D. S. Levine,  
 Yi-Pei Li,  You-Sheng Lin,  Fenglai Liu,  E. Livshits,  A. Luenser,  
 P. Manohar,  E. Mansoor,  S. F. Manzer,  Shan-Ping Mao,  Yuezhi Mao,  
 N. Mardirossian,  A. V. Marenich,  L. A. Martinez-Martinez,  S. A. Maurer,  
 N. J. Mayhall,  S. C. McKenzie,  J.-M. Mewes,  A. F. Morrison,  K. Nanda,  
 T. S. Nguyen-Beck,  R. Olivares-Amaya,  J. A. Parkhill,  T. M. Perrine,  
 F. Plasser,  S. Prager,  A. Prociuk,  D. R. Rehn,  F. Rob,  M. Schneider,  
 N. Sergueev,  S. M. Sharada,  S. Sharma,  D. W. Small,  T. Stauch,  
 T. Stein,  Yu-Chuan Su,  A. J. W. Thom,  T. Tsuchimochi,  L. Vogt,  
 O. Vydrov,  M. A. Watson,  J. Wenzel,  M. de Wergifosse,  T. A. Wesolowski,  
 A. White,  J. Witte,  A. Yamada,  Jun Yang,  K. Yao,  S. Yeganeh,  
 S. R. Yost,  Zhi-Qiang You,  A. Zech,  Igor Ying Zhang,  Xing Zhang,  
 Yan Zhao,  Ying Zhu,  B. R. Brooks,  G. K. L. Chan,  C. J. Cramer,  
 M. S. Gordon,  W. J. Hehre,  A. Klamt,  M. W. Schmidt,  C. D. Sherrill,  
 D. G. Truhlar,  A. Aspuru-Guzik,  R. Baer,  A. T. Bell,  N. A. Besley,  
 Jeng-Da Chai,  A. Dreuw,  B. D. Dunietz,  T. R. Furlani,  Chao-Ping Hsu,  
 Yousung Jung,  Jing Kong,  D. S. Lambrecht,  WanZhen Liang,  C. Ochsenfeld,  
 V. A. Rassolov,  L. V. Slipchenko,  J. E. Subotnik,  T. Van Voorhis,  
 J. M. Herbert,  A. I. Krylov,  P. M. W. Gill,  M. Head-Gordon

 Contributors to earlier versions of Q-Chem not listed above: 
 R. D. Adamson,  B. Austin,  J. Baker,  G. J. O. Beran,  K. Brandhorst,  
 S. T. Brown,  E. F. C. Byrd,  A. K. Chakraborty,  C.-L. Cheng,  
 Siu Hung Chien,  D. M. Chipman,  D. L. Crittenden,  H. Dachsel,  
 R. A. DiStasio Jr.,  R. J. Doerksen,  A. D. Dutoi,  L. Fusti-Molnar,  
 W. A. Goddard III,  A. Golubeva-Zadorozhnaya,  S. R. Gwaltney,  G. Hawkins,  
 A. Heyden,  S. Hirata,  G. Kedziora,  F. J. Keil,  C. Kelley,  Jihan Kim,  
 R. A. King,  R. Z. Khaliullin,  P. P. Korambath,  W. Kurlancheek,  
 A. M. Lee,  M. S. Lee,  S. V. Levchenko,  Ching Yeh Lin,  D. Liotard,  
 R. C. Lochan,  I. Lotan,  P. E. Maslen,  N. Nair,  D. P. O'Neill,  
 D. Neuhauser,  E. Neuscamman,  C. M. Oana,  R. Olson,  B. Peters,  
 R. Peverati,  P. A. Pieniazek,  Y. M. Rhee,  J. Ritchie,  M. A. Rohrdanz,  
 E. Rosta,  N. J. Russ,  H. F. Schaefer III,  N. E. Schultz,  N. Shenvi,  
 A. C. Simmonett,  A. Sodt,  D. Stuck,  K. S. Thanthiriwatte,  V. Vanovschi,  
 Tao Wang,  A. Warshel,  C. F. Williams,  Q. Wu,  X. Xu,  W. Zhang

 Please cite Q-Chem as follows:
 Y. Shao et al., Mol. Phys. 113, 184-215 (2015)
 DOI: 10.1080/00268976.2014.952696

 Q-Chem 5.0.1 for Intel X86 EM64T Linux

 Parts of Q-Chem use Armadillo 5.200.1 (Boston Tea Smuggler).
 http://arma.sourceforge.net/

 Q-Chem begins on Wed Apr 18 16:07:31 2018  

Host: vega02.cac.cornell.edu
0

     Scratch files written to /scratch/jj585/vdw/benzene_distance_4.200_11.save//
 Parallel job on  1  processors

Checking the input file for inconsistencies... 	...done.

--------------------------------------------------------------
User input:
--------------------------------------------------------------
$molecule
0  1
--
0  1
C        +0.00000000        +1.39198000        +0.00000000
C        +1.20549000        +0.69599000        +0.00000000
C        +1.20549000        -0.69599000        +0.00000000
C        +0.00000000        -1.39198000        +0.00000000
C        -1.20549000        -0.69599000        +0.00000000
C        -1.20549000        +0.69599000        +0.00000000
H        +0.00000000        +2.47223000        +0.00000000
H        +2.14101000        +1.23612000        +0.00000000
H        +2.14101000        -1.23612000        +0.00000000
H        +0.00000000        -2.47223000        +0.00000000
H        -2.14101000        -1.23612000        +0.00000000
H        -2.14101000        +1.23612000        +0.00000000
--
0  1
C        +0.00000000        +1.39198000        +4.20000000
C        +1.20549000        +0.69599000        +4.20000000
C        +1.20549000        -0.69599000        +4.20000000
C        +0.00000000        -1.39198000        +4.20000000
C        -1.20549000        -0.69599000        +4.20000000
C        -1.20549000        +0.69599000        +4.20000000
H        +0.00000000        +2.47223000        +4.20000000
H        +2.14101000        +1.23612000        +4.20000000
H        +2.14101000        -1.23612000        +4.20000000
H        +0.00000000        -2.47223000        +4.20000000
H        -2.14101000        -1.23612000        +4.20000000
H        -2.14101000        +1.23612000        +4.20000000
$end

$rem
JOBTYPE                   SP
METHOD                    B3LYP
DFT_D                     d3_op
BASIS                     6-311++G(d,p)
SYMMETRY                  False
THRESH                    12
SCF_CONVERGENCE           8
MAX_SUB_FILE_NUM          128
MEM_STATIC                400
MEM_TOTAL                 4000
$end
--------------------------------------------------------------
 Adding empirical dispersion correction 
 ----------------------------------------------------------------
 Doing -D3(op) with
 s6 =   1.00000
 s8 =   0.78311
 a1 =   0.30000
 a2 =   4.25000
 n  =  10.00000
 -D3 energy without 3body term =     -0.0205959656 hartrees
 ----------------------------------------------------------------
             Standard Nuclear Orientation (Angstroms)
    I     Atom           X                Y                Z
 ----------------------------------------------------------------
    1      C      -2.1000000000     1.3919800000     0.0000000000
    2      C      -2.1000000000     0.6959900000    -1.2054900000
    3      C      -2.1000000000    -0.6959900000    -1.2054900000
    4      C      -2.1000000000    -1.3919800000     0.0000000000
    5      C      -2.1000000000    -0.6959900000     1.2054900000
    6      C      -2.1000000000     0.6959900000     1.2054900000
    7      H      -2.1000000000     2.4722300000     0.0000000000
    8      H      -2.1000000000     1.2361200000    -2.1410100000
    9      H      -2.1000000000    -1.2361200000    -2.1410100000
   10      H      -2.1000000000    -2.4722300000    -0.0000000000
   11      H      -2.1000000000    -1.2361200000     2.1410100000
   12      H      -2.1000000000     1.2361200000     2.1410100000
   13      C       2.1000000000     1.3919800000     0.0000000000
   14      C       2.1000000000     0.6959900000    -1.2054900000
   15      C       2.1000000000    -0.6959900000    -1.2054900000
   16      C       2.1000000000    -1.3919800000    -0.0000000000
   17      C       2.1000000000    -0.6959900000     1.2054900000
   18      C       2.1000000000     0.6959900000     1.2054900000
   19      H       2.1000000000     2.4722300000     0.0000000000
   20      H       2.1000000000     1.2361200000    -2.1410100000
   21      H       2.1000000000    -1.2361200000    -2.1410100000
   22      H       2.1000000000    -2.4722300000    -0.0000000000
   23      H       2.1000000000    -1.2361200000     2.1410100000
   24      H       2.1000000000     1.2361200000     2.1410100000
 ----------------------------------------------------------------
 Molecular Point Group                 D2h   NOp =  8
 Largest Abelian Subgroup              D2h   NOp =  8
 Nuclear Repulsion Energy =   605.9978488699 hartrees
 There are       42 alpha and       42 beta electrons
 Requested basis set is 6-311++G(d,p)
 There are 132 shells and 348 basis functions

 Total QAlloc Memory Limit   4000 MB
 Mega-Array Size       392 MB
 MEM_STATIC part       400 MB
 A cutoff of  1.0D-12 yielded   7500 shell pairs
 There are     53580 function pairs (     57336 Cartesian)
 
 -------------------------------------------------------
 OpenMP Integral Computing Module                       
 Release: version 1.0, May 2013, Q-Chem Inc. Pittsburgh 
 -------------------------------------------------------
 Integral Job Info:
 Integral job number is                      11
 Integral operator is                         1
 short-range coefficients                     0
 long-range coefficients              100000000
 Omega coefficients                           0
 if combine SR and LR in K                    0
 Integral screening is                        0
 Integral computing path is                   2
 max size of driver memory is            800000
 size of driver memory is                593474
 size of scratch memory is              2361544
 max col of scratch BK array               1296
 max len of scratch array in speh3          155
 max len of scratch index in speh4           18
 max int batch size is                      520
 min int batch size is                       52
 fixed nKL is                                52
 max L of basis functions is                  2
 order of int derivative is                   0
 number of shells is                        132
 number of basis is                         360
 number of cartesian basis is               360
 number of contracted shell pairs          7500
 number of primitive shell pairs          17040
 maxK2 (contraction) of shell pair           36
 max number of K2 of shell pair               1
 max number of CS2 of shell pair           1356
 max number of PS2 of shell pair           2376
 mem total for path MDJ                   98584
 -------------------------------------------------------
 Smallest overlap matrix eigenvalue = 2.46E-07
 Linear dependence detected in AO basis
 Number of orthogonalized atomic orbitals = 346
 Maximum deviation from orthogonality = 2.816E-11

 Scale SEOQF with 1.000000e-01/1.000000e-01/1.000000e-01

 Standard Electronic Orientation quadrupole field applied
 Nucleus-field energy     =     0.0000000094 hartrees
 Guess from superposition of atomic densities
 Warning:  Energy on first SCF cycle will be non-variational
 A restricted hybrid HF-DFT SCF calculation will be
 performed using Pulay DIIS extrapolation
 Exchange:     0.2000 Hartree-Fock + 0.0800 Slater + 0.7200 B88
 Correlation:  0.1900 VWN1RPA + 0.8100 LYP
 Using SG-1 standard quadrature grid
 Dispersion:   Grimme D3
 SCF converges when DIIS error is below 1.0E-08
 using 4 threads for integral computing
 -------------------------------------------------------
 OpenMP Integral computing Module                
 Release: version 1.0, May 2013, Q-Chem Inc. Pittsburgh 
 -------------------------------------------------------
 -------------------------------------------------------
 OpenMP BLAS3 based DFT computing Module                
 Release: version 1.0, May 2013, Q-Chem Inc. Pittsburgh 
 -------------------------------------------------------
 ---------------------------------------
  Cycle       Energy         DIIS Error
 ---------------------------------------
    1    -467.2764751569      3.46E-02
    2    -464.3970730078      3.79E-03
    3    -464.3095008849      4.53E-03
    4    -464.6392714705      3.22E-04
    5    -464.6405677925      5.46E-05
    6    -464.6406062163      1.83E-05
    7    -464.6406111634      1.80E-06
    8    -464.6406112178      1.36E-07
    9    -464.6406112180      4.31E-08
   10    -464.6406112180      1.16E-08
   11    -464.6406112180      2.30E-10 Convergence criterion met
 ---------------------------------------
 SCF time:  CPU 230.13 s  wall 57.74 s
 SCF   energy in the final basis set = -464.64061122
 Total energy in the final basis set = -464.64061122
 
 --------------------------------------------------------------
             Orbital Energies (a.u.) and Symmetries
 --------------------------------------------------------------
 
 Alpha MOs, Restricted
 -- Occupied --                  
-10.173 -10.173 -10.173 -10.173 -10.173 -10.173 -10.172 -10.172
  1 Ag    1 B3u   1 B2u   1 B1g   1 B2g   1 B1u   2 B3u   2 Ag                 
-10.172 -10.172 -10.172 -10.172  -0.856  -0.856  -0.748  -0.748
  1 Au    1 B3g   2 B1g   2 B2u   3 Ag    3 B3u   2 B1u   3 B2u                
 -0.747  -0.747  -0.605  -0.605  -0.604  -0.604  -0.527  -0.526
  2 B2g   3 B1g   2 B3g   4 Ag    2 Au    4 B3u   5 Ag    5 B3u                
 -0.463  -0.462  -0.449  -0.449  -0.424  -0.424  -0.424  -0.424
  4 B2u   4 B1g   3 B1u   3 B2g   4 B1u   5 B2u   4 B2g   5 B1g                
 -0.374  -0.363  -0.347  -0.347  -0.346  -0.346  -0.260  -0.260
  6 Ag    6 B3u   3 B3g   7 Ag    3 Au    7 B3u   6 B2u   5 B1u                
 -0.250  -0.250
  6 B1g   5 B2g                                                                
 -- Virtual --                   
 -0.019  -0.019  -0.011  -0.005  -0.005   0.005   0.005   0.008
  4 B3g   8 Ag    9 Ag    4 Au    8 B3u   7 B2u   6 B1u   9 B3u                
  0.026   0.026   0.026   0.026   0.050   0.050   0.057   0.063
  7 B1g   6 B2g   5 B3g  10 Ag    5 Au   10 B3u   8 B2u  11 Ag                 
  0.073   0.078   0.091   0.095   0.097   0.097   0.112   0.112
 11 B3u   8 B1g   7 B1u  12 Ag    9 B2u   8 B1u   6 B3g   9 B1u                
  0.112   0.113   0.115   0.122   0.122   0.122   0.123   0.124
 10 B2u  13 Ag    7 B2g  14 Ag   11 B2u   9 B1g   8 B2g  12 B3u                
  0.131   0.132   0.133   0.133   0.147   0.147   0.148   0.151
  6 Au   13 B3u  10 B1g   9 B2g   7 B3g  15 Ag   11 B1g   8 B3g                
  0.151   0.166   0.166   0.168   0.168   0.173   0.179   0.184
 16 Ag    7 Au   14 B3u  12 B2u  10 B1u  13 B2u  12 B1g   8 Au                 
  0.185   0.194   0.194   0.210   0.214   0.214   0.235   0.238
 15 B3u  11 B1u  14 B2u  15 B2u  10 B2g  13 B1g  16 B3u  14 B1g                
  0.242   0.250   0.250   0.256   0.268   0.285   0.285   0.285
 17 Ag    9 B3g  18 Ag   10 B3g  17 B3u   9 Au   16 B2u  12 B1u                
  0.286   0.286   0.289   0.289   0.295   0.295   0.300   0.301
 10 Au   18 B3u  15 B1g  11 B2g  19 Ag   11 B3g  16 B1g  12 B2g                
  0.316   0.346   0.346   0.353   0.360   0.360   0.365   0.365
 17 B2u  19 B3u  11 Au   17 B1g  20 Ag   12 B3g  18 B2u  13 B1u                
  0.378   0.378   0.381   0.381   0.450   0.464   0.487   0.503
 13 B2g  18 B1g  12 Au   20 B3u  14 B1u  14 B2g  21 Ag   21 B3u                
  0.537   0.547   0.553   0.554   0.554   0.557   0.567   0.570
 22 Ag   19 B2u  13 B3g  20 B2u  15 B1u  13 Au   19 B1g  22 B3u                
  0.585   0.585   0.621   0.621   0.625   0.625   0.630   0.630
 14 B3g  23 Ag   21 B2u  16 B1u  20 B1g  15 B2g  15 B3g  24 Ag                 
  0.638   0.638   0.645   0.645   0.653   0.671   0.671   0.716
 21 B1g  16 B2g  14 Au   23 B3u  22 B2u  15 Au   24 B3u  25 Ag                 
  0.717   0.718   0.719   0.719   0.736   0.736   0.744   0.744
 22 B1g  23 B2u  16 B3g  26 Ag   24 B2u  17 B1u  16 Au   25 B3u                
  0.749   0.749   0.758   0.792   0.806   0.833   0.836   0.836
 23 B1g  17 B2g  26 B3u  27 B3u  24 B1g  25 B2u  26 B2u  18 B1u                
  0.854   0.861   0.870   0.870   0.872   0.882   0.890   0.890
 25 B1g  27 Ag   26 B1g  18 B2g  17 B3g  17 Au   18 Au   28 B3u                
  0.903   0.903   0.918   0.918   0.959   0.968   0.968   0.986
 18 B3g  28 Ag   27 B1g  19 B2g  29 Ag   27 B2u  19 B1u  29 B3u                
  0.992   0.992   1.017   1.017   1.067   1.067   1.078   1.078
 30 Ag   19 B3g  20 B1u  20 B2g  19 Au   30 B3u  21 B1u  28 B2u                
  1.136   1.136   1.144   1.144   1.153   1.153   1.267   1.318
 28 B1g  21 B2g  20 B3g  31 Ag   20 Au   31 B3u  29 B2u  32 Ag                 
  1.324   1.384   1.454   1.472   1.525   1.525   1.536   1.536
 32 B3u  29 B1g  22 B1u  22 B2g  23 B1u  30 B2u  23 B2g  30 B1g                
  1.536   1.538   1.545   1.551   1.551   1.624   1.624   1.634
 33 B3u  31 B2u  33 Ag   21 B3g  34 Ag   21 Au   34 B3u  31 B1g                
  1.656   1.656   1.656   1.656   1.681   1.681   1.699   1.699
 32 B2u  24 B1u  22 B3g  35 Ag   22 Au   35 B3u  32 B1g  24 B2g                
  1.719   1.753   1.777   1.777   1.804   1.804   1.820   1.820
 36 Ag   36 B3u  25 B1u  33 B2u  25 B2g  33 B1g  23 B3g  37 Ag                 
  1.854   1.860   1.860   1.861   1.926   1.926   1.939   1.939
 26 B1u  23 Au   37 B3u  26 B2g  34 B2u  27 B1u  35 B2u  28 B1u                
  1.946   1.946   1.950   1.974   1.981   1.982   1.993   2.021
 34 B1g  27 B2g  24 B3g  24 Au   35 B1g  28 B2g  36 B2u  38 Ag                 
  2.021   2.034   2.048   2.048   2.091   2.091   2.096   2.096
 25 B3g  36 B1g  25 Au   38 B3u  26 B3g  39 Ag   26 Au   39 B3u                
  2.334   2.336   2.352   2.352   2.416   2.416   2.419   2.452
 37 B1g  37 B2u  27 B3g  27 Au   40 Ag   28 B3g  41 Ag   28 Au                 
  2.452   2.459   2.459   2.500   2.500   2.506   2.635   2.635
 40 B3u  29 B1u  38 B2u  29 B2g  38 B1g  41 B3u  30 B1u  39 B2u                
  2.638   2.638   2.638   2.659   2.679   2.697   2.704   2.739
 40 B2u  39 B1g  30 B2g  42 Ag   41 B2u  40 B1g  42 B3u  43 Ag                 
  2.751   2.753   2.753   2.761   2.761   2.771   2.771   2.787
 43 B3u  42 B2u  31 B1u  29 B3g  44 Ag   41 B1g  31 B2g  42 B1g                
  2.790   2.790   2.821   2.821   2.845   2.845   2.895   2.895
 29 Au   44 B3u  43 B2u  32 B1u  43 B1g  32 B2g  30 B3g  45 Ag                 
  2.921   2.922   2.922   2.926   2.962   2.963   2.979   2.979
 31 B3g  30 Au   45 B3u  31 Au   32 B3g  46 Ag   32 Au   46 B3u                
  3.076   3.111   3.117   3.120   3.336   3.336   3.400   3.400
 44 B2u  33 B1u  44 B1g  33 B2g  47 Ag   33 B3g  33 Au   47 B3u                
  3.482   3.482   3.533   3.533   3.536   3.544   3.700   3.707
 45 B2u  34 B1u  45 B1g  34 B2g  48 Ag   48 B3u  46 B2u  46 B1g                
  4.008   4.008   4.010   4.010   4.084   4.101   4.164   4.164
 34 B3g  49 Ag   34 Au   49 B3u  47 B2u  47 B1g  48 B1g  35 B2g                
  4.171   4.171   4.851   4.854  23.611  23.618  23.994  23.994
 48 B2u  35 B1u  35 B3g  35 Au   50 B3u  50 Ag   49 B2u  36 B1u                
 23.995  23.995  24.107  24.107  24.110  24.110  24.211  24.223
 49 B1g  36 B2g  51 Ag   36 B3g  51 B3u  36 Au   50 B2u  50 B1g                
 
 Beta MOs, Restricted
 -- Occupied --                  
-10.173 -10.173 -10.173 -10.173 -10.173 -10.173 -10.172 -10.172
  1 Ag    1 B3u   1 B2u   1 B1g   1 B2g   1 B1u   2 B3u   2 Ag                 
-10.172 -10.172 -10.172 -10.172  -0.856  -0.856  -0.748  -0.748
  1 Au    1 B3g   2 B1g   2 B2u   3 Ag    3 B3u   2 B1u   3 B2u                
 -0.747  -0.747  -0.605  -0.605  -0.604  -0.604  -0.527  -0.526
  2 B2g   3 B1g   2 B3g   4 Ag    2 Au    4 B3u   5 Ag    5 B3u                
 -0.463  -0.462  -0.449  -0.449  -0.424  -0.424  -0.424  -0.424
  4 B2u   4 B1g   3 B1u   3 B2g   4 B1u   5 B2u   4 B2g   5 B1g                
 -0.374  -0.363  -0.347  -0.347  -0.346  -0.346  -0.260  -0.260
  6 Ag    6 B3u   3 B3g   7 Ag    3 Au    7 B3u   6 B2u   5 B1u                
 -0.250  -0.250
  6 B1g   5 B2g                                                                
 -- Virtual --                   
 -0.019  -0.019  -0.011  -0.005  -0.005   0.005   0.005   0.008
  4 B3g   8 Ag    9 Ag    4 Au    8 B3u   7 B2u   6 B1u   9 B3u                
  0.026   0.026   0.026   0.026   0.050   0.050   0.057   0.063
  7 B1g   6 B2g   5 B3g  10 Ag    5 Au   10 B3u   8 B2u  11 Ag                 
  0.073   0.078   0.091   0.095   0.097   0.097   0.112   0.112
 11 B3u   8 B1g   7 B1u  12 Ag    9 B2u   8 B1u   6 B3g   9 B1u                
  0.112   0.113   0.115   0.122   0.122   0.122   0.123   0.124
 10 B2u  13 Ag    7 B2g  14 Ag   11 B2u   9 B1g   8 B2g  12 B3u                
  0.131   0.132   0.133   0.133   0.147   0.147   0.148   0.151
  6 Au   13 B3u  10 B1g   9 B2g   7 B3g  15 Ag   11 B1g   8 B3g                
  0.151   0.166   0.166   0.168   0.168   0.173   0.179   0.184
 16 Ag    7 Au   14 B3u  12 B2u  10 B1u  13 B2u  12 B1g   8 Au                 
  0.185   0.194   0.194   0.210   0.214   0.214   0.235   0.238
 15 B3u  11 B1u  14 B2u  15 B2u  10 B2g  13 B1g  16 B3u  14 B1g                
  0.242   0.250   0.250   0.256   0.268   0.285   0.285   0.285
 17 Ag    9 B3g  18 Ag   10 B3g  17 B3u   9 Au   16 B2u  12 B1u                
  0.286   0.286   0.289   0.289   0.295   0.295   0.300   0.301
 10 Au   18 B3u  15 B1g  11 B2g  19 Ag   11 B3g  16 B1g  12 B2g                
  0.316   0.346   0.346   0.353   0.360   0.360   0.365   0.365
 17 B2u  19 B3u  11 Au   17 B1g  20 Ag   12 B3g  18 B2u  13 B1u                
  0.378   0.378   0.381   0.381   0.450   0.464   0.487   0.503
 13 B2g  18 B1g  12 Au   20 B3u  14 B1u  14 B2g  21 Ag   21 B3u                
  0.537   0.547   0.553   0.554   0.554   0.557   0.567   0.570
 22 Ag   19 B2u  13 B3g  20 B2u  15 B1u  13 Au   19 B1g  22 B3u                
  0.585   0.585   0.621   0.621   0.625   0.625   0.630   0.630
 14 B3g  23 Ag   21 B2u  16 B1u  20 B1g  15 B2g  15 B3g  24 Ag                 
  0.638   0.638   0.645   0.645   0.653   0.671   0.671   0.716
 21 B1g  16 B2g  14 Au   23 B3u  22 B2u  15 Au   24 B3u  25 Ag                 
  0.717   0.718   0.719   0.719   0.736   0.736   0.744   0.744
 22 B1g  23 B2u  16 B3g  26 Ag   24 B2u  17 B1u  16 Au   25 B3u                
  0.749   0.749   0.758   0.792   0.806   0.833   0.836   0.836
 23 B1g  17 B2g  26 B3u  27 B3u  24 B1g  25 B2u  26 B2u  18 B1u                
  0.854   0.861   0.870   0.870   0.872   0.882   0.890   0.890
 25 B1g  27 Ag   26 B1g  18 B2g  17 B3g  17 Au   18 Au   28 B3u                
  0.903   0.903   0.918   0.918   0.959   0.968   0.968   0.986
 18 B3g  28 Ag   27 B1g  19 B2g  29 Ag   27 B2u  19 B1u  29 B3u                
  0.992   0.992   1.017   1.017   1.067   1.067   1.078   1.078
 30 Ag   19 B3g  20 B1u  20 B2g  19 Au   30 B3u  21 B1u  28 B2u                
  1.136   1.136   1.144   1.144   1.153   1.153   1.267   1.318
 28 B1g  21 B2g  20 B3g  31 Ag   20 Au   31 B3u  29 B2u  32 Ag                 
  1.324   1.384   1.454   1.472   1.525   1.525   1.536   1.536
 32 B3u  29 B1g  22 B1u  22 B2g  23 B1u  30 B2u  23 B2g  30 B1g                
  1.536   1.538   1.545   1.551   1.551   1.624   1.624   1.634
 33 B3u  31 B2u  33 Ag   21 B3g  34 Ag   21 Au   34 B3u  31 B1g                
  1.656   1.656   1.656   1.656   1.681   1.681   1.699   1.699
 32 B2u  24 B1u  22 B3g  35 Ag   22 Au   35 B3u  32 B1g  24 B2g                
  1.719   1.753   1.777   1.777   1.804   1.804   1.820   1.820
 36 Ag   36 B3u  25 B1u  33 B2u  25 B2g  33 B1g  23 B3g  37 Ag                 
  1.854   1.860   1.860   1.861   1.926   1.926   1.939   1.939
 26 B1u  23 Au   37 B3u  26 B2g  34 B2u  27 B1u  35 B2u  28 B1u                
  1.946   1.946   1.950   1.974   1.981   1.982   1.993   2.021
 34 B1g  27 B2g  24 B3g  24 Au   35 B1g  28 B2g  36 B2u  38 Ag                 
  2.021   2.034   2.048   2.048   2.091   2.091   2.096   2.096
 25 B3g  36 B1g  25 Au   38 B3u  26 B3g  39 Ag   26 Au   39 B3u                
  2.334   2.336   2.352   2.352   2.416   2.416   2.419   2.452
 37 B1g  37 B2u  27 B3g  27 Au   40 Ag   28 B3g  41 Ag   28 Au                 
  2.452   2.459   2.459   2.500   2.500   2.506   2.635   2.635
 40 B3u  29 B1u  38 B2u  29 B2g  38 B1g  41 B3u  30 B1u  39 B2u                
  2.638   2.638   2.638   2.659   2.679   2.697   2.704   2.739
 40 B2u  39 B1g  30 B2g  42 Ag   41 B2u  40 B1g  42 B3u  43 Ag                 
  2.751   2.753   2.753   2.761   2.761   2.771   2.771   2.787
 43 B3u  42 B2u  31 B1u  29 B3g  44 Ag   41 B1g  31 B2g  42 B1g                
  2.790   2.790   2.821   2.821   2.845   2.845   2.895   2.895
 29 Au   44 B3u  43 B2u  32 B1u  43 B1g  32 B2g  30 B3g  45 Ag                 
  2.921   2.922   2.922   2.926   2.962   2.963   2.979   2.979
 31 B3g  30 Au   45 B3u  31 Au   32 B3g  46 Ag   32 Au   46 B3u                
  3.076   3.111   3.117   3.120   3.336   3.336   3.400   3.400
 44 B2u  33 B1u  44 B1g  33 B2g  47 Ag   33 B3g  33 Au   47 B3u                
  3.482   3.482   3.533   3.533   3.536   3.544   3.700   3.707
 45 B2u  34 B1u  45 B1g  34 B2g  48 Ag   48 B3u  46 B2u  46 B1g                
  4.008   4.008   4.010   4.010   4.084   4.101   4.164   4.164
 34 B3g  49 Ag   34 Au   49 B3u  47 B2u  47 B1g  48 B1g  35 B2g                
  4.171   4.171   4.851   4.854  23.611  23.618  23.994  23.994
 48 B2u  35 B1u  35 B3g  35 Au   50 B3u  50 Ag   49 B2u  36 B1u                
 23.995  23.995  24.107  24.107  24.110  24.110  24.211  24.223
 49 B1g  36 B2g  51 Ag   36 B3g  51 B3u  36 Au   50 B2u  50 B1g                
 --------------------------------------------------------------
 
          Ground-State Mulliken Net Atomic Charges

     Atom                 Charge (a.u.)
  ----------------------------------------
      1 C                    -0.155951
      2 C                    -0.153485
      3 C                    -0.153485
      4 C                    -0.155951
      5 C                    -0.153485
      6 C                    -0.153485
      7 H                     0.154353
      8 H                     0.154285
      9 H                     0.154285
     10 H                     0.154353
     11 H                     0.154285
     12 H                     0.154285
     13 C                    -0.155951
     14 C                    -0.153485
     15 C                    -0.153485
     16 C                    -0.155951
     17 C                    -0.153485
     18 C                    -0.153485
     19 H                     0.154353
     20 H                     0.154285
     21 H                     0.154285
     22 H                     0.154353
     23 H                     0.154285
     24 H                     0.154285
  ----------------------------------------
  Sum of atomic charges =    -0.000000

 -----------------------------------------------------------------
                    Cartesian Multipole Moments
 -----------------------------------------------------------------
    Charge (ESU x 10^10)
                 0.0000
    Dipole Moment (Debye)
         X      -0.0000      Y       0.0000      Z      -0.0000
       Tot       0.0000
    Quadrupole Moments (Debye-Ang)
        XX     -81.7274     XY       0.0000     YY     -64.6735
        XZ      -0.0000     YZ      -0.0000     ZZ     -64.6691
    Octopole Moments (Debye-Ang^2)
       XXX      -0.0000    XXY       0.0000    XYY      -0.0000
       YYY      -0.0000    XXZ      -0.0000    XYZ       0.0000
       YYZ      -0.0000    XZZ      -0.0000    YZZ      -0.0000
       ZZZ       0.0000
    Hexadecapole Moments (Debye-Ang^3)
      XXXX   -2243.8149   XXXY       0.0000   XXYY    -417.5047
      XYYY       0.0000   YYYY    -553.9763   XXXZ      -0.0000
      XXYZ      -0.0000   XYYZ       0.0000   YYYZ      -0.0000
      XXZZ    -417.4333   XYZZ       0.0000   YYZZ    -184.6542
      XZZZ       0.0000   YZZZ       0.0000   ZZZZ    -553.9547
 -----------------------------------------------------------------
Archival summary:
1\1\vega02.cac.cornell.edu\SP\ProcedureUnspecified\BasisUnspecified\1212\jj585\WedApr1816:08:292018WedApr1816:08:292018\0\\#,ProcedureUnspecified,BasisUnspecified,\\0,1\C\H,1,1.08025\C,1,1.39198,2,120\H,3,1.08025,1,120,2,-0,0\C,1,1.39198,2,120,3,-180,0\H,5,1.08025,1,120,2,-0,0\C,3,1.39198,1,120,2,-180,0\H,7,1.08025,3,120,1,180,0\C,7,1.39198,3,120,1,-0,0\H,9,1.08025,7,120,3,180,0\C,9,1.39198,7,120,3,-0,0\H,11,1.08025,9,120,7,180,0\H,4,4.2,3,90,1,-90,0\C,13,1.08025,4,90,3,-0,0\C,14,1.39198,13,120,4,90,0\H,15,1.08025,14,120,13,-0,0\C,15,1.39198,14,120,13,180,0\H,17,1.08025,15,120,14,180,0\C,14,1.39198,13,120,4,-90,0\H,19,1.08025,14,120,13,0,0\C,19,1.39198,14,120,13,-180,0\H,21,1.08025,19,120,14,-180,0\C,21,1.39198,19,120,14,0,0\H,23,1.08025,21,120,19,180,0\\\@

 Total job time:  58.76s(wall), 232.63s(cpu) 
 Wed Apr 18 16:08:29 2018

        *************************************************************
        *                                                           *
        *  Thank you very much for using Q-Chem.  Have a nice day.  *
        *                                                           *
        *************************************************************


0 sent ACK to 0 
now end server 0 ... 
