mFile = /opt/software/qchem/qchem-5.0.1//bin/mpi/machines
Process 0 of 1 is on vega02.cac.cornell.edu - thread support 0
initial socket setup ...start
initial socket setup ...done 
now start server 0 ... 
vega02.cac.cornell.edu 10.84.3
Q-Chem Developer Version! Running on 10.84.3.*
                  Welcome to Q-Chem
     A Quantum Leap Into The Future Of Chemistry


 Q-Chem 5.0, Q-Chem, Inc., Pleasanton, CA (2017)

 Yihan Shao,  Zhengting Gan,  E. Epifanovsky,  A. T. B. Gilbert,  M. Wormit,  
 J. Kussmann,  A. W. Lange,  A. Behn,  Jia Deng,  Xintian Feng,  D. Ghosh,  
 M. Goldey,  P. R. Horn,  L. D. Jacobson,  I. Kaliman,  T. Kus,  A. Landau,  
 Jie Liu,  E. I. Proynov,  R. M. Richard,  R. P. Steele,  E. J. Sundstrom,  
 H. L. Woodcock III,  P. M. Zimmerman,  D. Zuev,  B. Albrecht,  E. Alguire,  
 S. A. Baeppler,  Z. Benda,  Y. A. Bernard,  E. J. Berquist,  K. B. Bravaya,  
 D. Casanova,  Chun-Min Chang,  Yunqing Chen,  A. Chien,  K. D. Closser,  
 M. P. Coons,  S. Dasgupta,  M. Diedenhofen,  Hainam Do,  R. G. Edgar,  
 Po-Tung Fang,  S. Fatehi,  Qingguo Feng,  Qinghui Ge,  A. Ghysels,  
 J. Gomes,  J. Gonthier,  A. Gunina,  M. W. D. Hanson-Heine,  
 P. H. P. Harbach,  A. W. Hauser,  J. E. Herr,  E. G. Hohenstein,  
 Z. C. Holden,  Kerwin Hui,  T.-C. Jagau,  Hyunjun Ji,  B. Kaduk,  
 K. Khistyaev,  Jaehoon Kim,  P. Klunzinger,  K. Koh,  D. Kosenkov,  
 T. Kowalczyk,  C. M. Krauter,  A. Kunitsa,  Ka Un Lao,  A. Laurent,  
 K. V. Lawler,  Joonho Lee,  D. Lefrancois,  S. Lehtola,  D. S. Levine,  
 Yi-Pei Li,  You-Sheng Lin,  Fenglai Liu,  E. Livshits,  A. Luenser,  
 P. Manohar,  E. Mansoor,  S. F. Manzer,  Shan-Ping Mao,  Yuezhi Mao,  
 N. Mardirossian,  A. V. Marenich,  L. A. Martinez-Martinez,  S. A. Maurer,  
 N. J. Mayhall,  S. C. McKenzie,  J.-M. Mewes,  A. F. Morrison,  K. Nanda,  
 T. S. Nguyen-Beck,  R. Olivares-Amaya,  J. A. Parkhill,  T. M. Perrine,  
 F. Plasser,  S. Prager,  A. Prociuk,  D. R. Rehn,  F. Rob,  M. Schneider,  
 N. Sergueev,  S. M. Sharada,  S. Sharma,  D. W. Small,  T. Stauch,  
 T. Stein,  Yu-Chuan Su,  A. J. W. Thom,  T. Tsuchimochi,  L. Vogt,  
 O. Vydrov,  M. A. Watson,  J. Wenzel,  M. de Wergifosse,  T. A. Wesolowski,  
 A. White,  J. Witte,  A. Yamada,  Jun Yang,  K. Yao,  S. Yeganeh,  
 S. R. Yost,  Zhi-Qiang You,  A. Zech,  Igor Ying Zhang,  Xing Zhang,  
 Yan Zhao,  Ying Zhu,  B. R. Brooks,  G. K. L. Chan,  C. J. Cramer,  
 M. S. Gordon,  W. J. Hehre,  A. Klamt,  M. W. Schmidt,  C. D. Sherrill,  
 D. G. Truhlar,  A. Aspuru-Guzik,  R. Baer,  A. T. Bell,  N. A. Besley,  
 Jeng-Da Chai,  A. Dreuw,  B. D. Dunietz,  T. R. Furlani,  Chao-Ping Hsu,  
 Yousung Jung,  Jing Kong,  D. S. Lambrecht,  WanZhen Liang,  C. Ochsenfeld,  
 V. A. Rassolov,  L. V. Slipchenko,  J. E. Subotnik,  T. Van Voorhis,  
 J. M. Herbert,  A. I. Krylov,  P. M. W. Gill,  M. Head-Gordon

 Contributors to earlier versions of Q-Chem not listed above: 
 R. D. Adamson,  B. Austin,  J. Baker,  G. J. O. Beran,  K. Brandhorst,  
 S. T. Brown,  E. F. C. Byrd,  A. K. Chakraborty,  C.-L. Cheng,  
 Siu Hung Chien,  D. M. Chipman,  D. L. Crittenden,  H. Dachsel,  
 R. A. DiStasio Jr.,  R. J. Doerksen,  A. D. Dutoi,  L. Fusti-Molnar,  
 W. A. Goddard III,  A. Golubeva-Zadorozhnaya,  S. R. Gwaltney,  G. Hawkins,  
 A. Heyden,  S. Hirata,  G. Kedziora,  F. J. Keil,  C. Kelley,  Jihan Kim,  
 R. A. King,  R. Z. Khaliullin,  P. P. Korambath,  W. Kurlancheek,  
 A. M. Lee,  M. S. Lee,  S. V. Levchenko,  Ching Yeh Lin,  D. Liotard,  
 R. C. Lochan,  I. Lotan,  P. E. Maslen,  N. Nair,  D. P. O'Neill,  
 D. Neuhauser,  E. Neuscamman,  C. M. Oana,  R. Olson,  B. Peters,  
 R. Peverati,  P. A. Pieniazek,  Y. M. Rhee,  J. Ritchie,  M. A. Rohrdanz,  
 E. Rosta,  N. J. Russ,  H. F. Schaefer III,  N. E. Schultz,  N. Shenvi,  
 A. C. Simmonett,  A. Sodt,  D. Stuck,  K. S. Thanthiriwatte,  V. Vanovschi,  
 Tao Wang,  A. Warshel,  C. F. Williams,  Q. Wu,  X. Xu,  W. Zhang

 Please cite Q-Chem as follows:
 Y. Shao et al., Mol. Phys. 113, 184-215 (2015)
 DOI: 10.1080/00268976.2014.952696

 Q-Chem 5.0.1 for Intel X86 EM64T Linux

 Parts of Q-Chem use Armadillo 5.200.1 (Boston Tea Smuggler).
 http://arma.sourceforge.net/

 Q-Chem begins on Wed Apr 18 16:07:55 2018  

Host: vega02.cac.cornell.edu
0

     Scratch files written to /scratch/jj585/vdw/benzene_distance_3.000_11.save//
 Parallel job on  1  processors

Checking the input file for inconsistencies... 	...done.

--------------------------------------------------------------
User input:
--------------------------------------------------------------
$molecule
0  1
--
0  1
C        +0.00000000        +1.39198000        +0.00000000
C        +1.20549000        +0.69599000        +0.00000000
C        +1.20549000        -0.69599000        +0.00000000
C        +0.00000000        -1.39198000        +0.00000000
C        -1.20549000        -0.69599000        +0.00000000
C        -1.20549000        +0.69599000        +0.00000000
H        +0.00000000        +2.47223000        +0.00000000
H        +2.14101000        +1.23612000        +0.00000000
H        +2.14101000        -1.23612000        +0.00000000
H        +0.00000000        -2.47223000        +0.00000000
H        -2.14101000        -1.23612000        +0.00000000
H        -2.14101000        +1.23612000        +0.00000000
--
0  1
C        +0.00000000        +1.39198000        +3.00000000
C        +1.20549000        +0.69599000        +3.00000000
C        +1.20549000        -0.69599000        +3.00000000
C        +0.00000000        -1.39198000        +3.00000000
C        -1.20549000        -0.69599000        +3.00000000
C        -1.20549000        +0.69599000        +3.00000000
H        +0.00000000        +2.47223000        +3.00000000
H        +2.14101000        +1.23612000        +3.00000000
H        +2.14101000        -1.23612000        +3.00000000
H        +0.00000000        -2.47223000        +3.00000000
H        -2.14101000        -1.23612000        +3.00000000
H        -2.14101000        +1.23612000        +3.00000000
$end

$rem
JOBTYPE                   SP
METHOD                    B3LYP
DFT_D                     d3_op
BASIS                     6-311++G(d,p)
SYMMETRY                  False
THRESH                    12
SCF_CONVERGENCE           8
MAX_SUB_FILE_NUM          128
MEM_STATIC                400
MEM_TOTAL                 4000
$end
--------------------------------------------------------------
 Adding empirical dispersion correction 
 ----------------------------------------------------------------
 Doing -D3(op) with
 s6 =   1.00000
 s8 =   0.78311
 a1 =   0.30000
 a2 =   4.25000
 n  =  10.00000
 -D3 energy without 3body term =     -0.0345094261 hartrees
 ----------------------------------------------------------------
             Standard Nuclear Orientation (Angstroms)
    I     Atom           X                Y                Z
 ----------------------------------------------------------------
    1      C       1.5000000000     1.3919800000    -0.0000000000
    2      C       1.5000000000     0.6959900000     1.2054900000
    3      C       1.5000000000    -0.6959900000     1.2054900000
    4      C       1.5000000000    -1.3919800000    -0.0000000000
    5      C       1.5000000000    -0.6959900000    -1.2054900000
    6      C       1.5000000000     0.6959900000    -1.2054900000
    7      H       1.5000000000     2.4722300000     0.0000000000
    8      H       1.5000000000     1.2361200000     2.1410100000
    9      H       1.5000000000    -1.2361200000     2.1410100000
   10      H       1.5000000000    -2.4722300000    -0.0000000000
   11      H       1.5000000000    -1.2361200000    -2.1410100000
   12      H       1.5000000000     1.2361200000    -2.1410100000
   13      C      -1.5000000000     1.3919800000     0.0000000000
   14      C      -1.5000000000     0.6959900000     1.2054900000
   15      C      -1.5000000000    -0.6959900000     1.2054900000
   16      C      -1.5000000000    -1.3919800000     0.0000000000
   17      C      -1.5000000000    -0.6959900000    -1.2054900000
   18      C      -1.5000000000     0.6959900000    -1.2054900000
   19      H      -1.5000000000     2.4722300000     0.0000000000
   20      H      -1.5000000000     1.2361200000     2.1410100000
   21      H      -1.5000000000    -1.2361200000     2.1410100000
   22      H      -1.5000000000    -2.4722300000    -0.0000000000
   23      H      -1.5000000000    -1.2361200000    -2.1410100000
   24      H      -1.5000000000     1.2361200000    -2.1410100000
 ----------------------------------------------------------------
 Molecular Point Group                 D2h   NOp =  8
 Largest Abelian Subgroup              D2h   NOp =  8
 Nuclear Repulsion Energy =   664.1045606320 hartrees
 There are       42 alpha and       42 beta electrons
 Requested basis set is 6-311++G(d,p)
 There are 132 shells and 348 basis functions

 Total QAlloc Memory Limit   4000 MB
 Mega-Array Size       392 MB
 MEM_STATIC part       400 MB
 A cutoff of  1.0D-12 yielded   8166 shell pairs
 There are     58644 function pairs (     62874 Cartesian)
 
 -------------------------------------------------------
 OpenMP Integral Computing Module                       
 Release: version 1.0, May 2013, Q-Chem Inc. Pittsburgh 
 -------------------------------------------------------
 Integral Job Info:
 Integral job number is                      11
 Integral operator is                         1
 short-range coefficients                     0
 long-range coefficients              100000000
 Omega coefficients                           0
 if combine SR and LR in K                    0
 Integral screening is                        0
 Integral computing path is                   2
 max size of driver memory is            800000
 size of driver memory is                593474
 size of scratch memory is              2361544
 max col of scratch BK array               1296
 max len of scratch array in speh3          155
 max len of scratch index in speh4           18
 max int batch size is                      520
 min int batch size is                       52
 fixed nKL is                                52
 max L of basis functions is                  2
 order of int derivative is                   0
 number of shells is                        132
 number of basis is                         360
 number of cartesian basis is               360
 number of contracted shell pairs          8166
 number of primitive shell pairs          18834
 maxK2 (contraction) of shell pair           36
 max number of K2 of shell pair               1
 max number of CS2 of shell pair           1380
 max number of PS2 of shell pair           2520
 mem total for path MDJ                  103576
 -------------------------------------------------------
 Smallest overlap matrix eigenvalue = 7.54E-08
 Linear dependence detected in AO basis
 Number of orthogonalized atomic orbitals = 346
 Maximum deviation from orthogonality = 2.874E-11

 Scale SEOQF with 1.000000e-01/1.000000e-01/1.000000e-01

 Standard Electronic Orientation quadrupole field applied
 Nucleus-field energy     =     0.0000000029 hartrees
 Guess from superposition of atomic densities
 Warning:  Energy on first SCF cycle will be non-variational
 A restricted hybrid HF-DFT SCF calculation will be
 performed using Pulay DIIS extrapolation
 Exchange:     0.2000 Hartree-Fock + 0.0800 Slater + 0.7200 B88
 Correlation:  0.1900 VWN1RPA + 0.8100 LYP
 Using SG-1 standard quadrature grid
 Dispersion:   Grimme D3
 SCF converges when DIIS error is below 1.0E-08
 using 4 threads for integral computing
 -------------------------------------------------------
 OpenMP Integral computing Module                
 Release: version 1.0, May 2013, Q-Chem Inc. Pittsburgh 
 -------------------------------------------------------
 -------------------------------------------------------
 OpenMP BLAS3 based DFT computing Module                
 Release: version 1.0, May 2013, Q-Chem Inc. Pittsburgh 
 -------------------------------------------------------
 ---------------------------------------
  Cycle       Energy         DIIS Error
 ---------------------------------------
    1    -467.3594468467      3.46E-02
    2    -464.3758122166      3.86E-03
    3    -464.2433642324      4.90E-03
    4    -464.6209963885      4.43E-04
    5    -464.6234520947      9.44E-05
    6    -464.6235655563      3.19E-05
    7    -464.6235802218      2.01E-06
    8    -464.6235802923      1.73E-07
    9    -464.6235802926      7.11E-08
   10    -464.6235802927      1.26E-08
   11    -464.6235802926      3.44E-10 Convergence criterion met
 ---------------------------------------
 SCF time:  CPU 320.62 s  wall 80.44 s
 SCF   energy in the final basis set = -464.62358029
 Total energy in the final basis set = -464.62358029
 
 --------------------------------------------------------------
             Orbital Energies (a.u.) and Symmetries
 --------------------------------------------------------------
 
 Alpha MOs, Restricted
 -- Occupied --                  
-10.169 -10.169 -10.169 -10.169 -10.169 -10.169 -10.169 -10.169
  1 B3u   1 Ag    1 B1g   1 B2g   1 B2u   1 B1u   2 B3u   2 Ag                 
-10.169 -10.169 -10.168 -10.168  -0.860  -0.848  -0.751  -0.751
  1 Au    1 B3g   2 B1g   2 B2u   3 Ag    3 B3u   3 B2u   2 B1u                
 -0.740  -0.740  -0.607  -0.607  -0.598  -0.598  -0.530  -0.521
  2 B2g   3 B1g   2 B3g   4 Ag    2 Au    4 B3u   5 Ag    5 B3u                
 -0.467  -0.457  -0.449  -0.444  -0.426  -0.426  -0.419  -0.419
  4 B2u   4 B1g   3 B1u   3 B2g   4 B1u   5 B2u   4 B2g   5 B1g                
 -0.396  -0.348  -0.348  -0.342  -0.342  -0.334  -0.281  -0.281
  6 Ag    3 B3g   7 Ag    3 Au    6 B3u   7 B3u   6 B2u   5 B1u                
 -0.223  -0.223
  6 B1g   5 B2g                                                                
 -- Virtual --                   
 -0.037  -0.037  -0.013   0.004   0.004   0.014   0.019   0.019
  4 B3g   8 Ag    9 Ag    6 B1u   7 B2u   8 B3u   4 Au    9 B3u                
  0.024   0.024   0.032   0.032   0.054   0.059   0.060   0.060
  5 B3g  10 Ag    7 B1g   6 B2g   8 B2u  11 Ag    5 Au   10 B3u                
  0.078   0.084   0.085   0.098   0.098   0.106   0.106   0.107
 11 B3u   7 B1u   8 B1g   9 B2u   8 B1u   6 B3g  12 Ag   13 Ag                 
  0.112   0.113   0.113   0.126   0.127   0.128   0.129   0.138
 10 B2u  11 B2u   9 B1u   7 B2g   9 B1g   8 B2g  12 B3u  10 B1g                
  0.138   0.141   0.141   0.141   0.141   0.155   0.156   0.163
  9 B2g   7 B3g  14 Ag    6 Au   13 B3u   8 B3g  15 Ag   12 B2u                
  0.170   0.171   0.171   0.183   0.184   0.184   0.187   0.193
 11 B1g   7 Au   14 B3u  10 B1u  13 B2u  16 Ag   12 B1g   8 Au                 
  0.193   0.210   0.225   0.226   0.226   0.226   0.227   0.250
 15 B3u  14 B2u  16 B3u  10 B2g  13 B1g  15 B2u  11 B1u  14 B1g                
  0.251   0.253   0.258   0.266   0.266   0.277   0.277   0.286
 17 B3u   9 B3g  17 Ag   10 B3g  18 Ag   15 B1g  11 B2g  16 B2u                
  0.287   0.287   0.287   0.295   0.316   0.316   0.320   0.321
  9 Au   12 B1u  18 B3u  10 Au   11 B3g  19 Ag   16 B1g  12 B2g                
  0.339   0.341   0.341   0.345   0.360   0.360   0.366   0.366
 17 B2u  19 B3u  11 Au   17 B1g  12 B3g  20 Ag   13 B1u  18 B2u                
  0.373   0.373   0.399   0.399   0.439   0.477   0.477   0.491
 13 B2g  18 B1g  12 Au   20 B3u  14 B1u  14 B2g  21 Ag   22 Ag                 
  0.511   0.527   0.528   0.534   0.548   0.565   0.580   0.580
 21 B3u  19 B2u  15 B1u  20 B2u  13 B3g  13 Au   14 B3g  23 Ag                 
  0.590   0.597   0.597   0.635   0.636   0.648   0.670   0.672
 19 B1g  21 B2u  16 B1u  15 B3g  24 Ag   22 B2u  25 Ag   20 B1g                
  0.673   0.693   0.693   0.709   0.716   0.716   0.720   0.720
 15 B2g  14 Au   22 B3u  21 B1g  15 Au   23 B3u  16 B3g  26 Ag                 
  0.726   0.726   0.731   0.739   0.739   0.758   0.759   0.761
 23 B2u  17 B1u  24 B3u  22 B1g  16 B2g  23 B1g  17 B2g  24 B2u                
  0.771   0.771   0.791   0.798   0.808   0.809   0.827   0.831
 16 Au   25 B3u  26 B3u  27 Ag   25 B2u  18 B1u  26 B2u  24 B1g                
  0.850   0.851   0.866   0.883   0.883   0.894   0.915   0.948
 17 B3g  28 Ag   18 B3g  27 B2u  19 B1u  17 Au   27 B3u  25 B1g                
  0.948   0.964   0.965   0.992   0.993   1.014   1.018   1.018
 18 B2g  19 B3g  29 Ag   28 B3u  30 Ag   20 B1u  26 B1g  19 B2g                
  1.023   1.037   1.037   1.094   1.094   1.114   1.143   1.143
 20 B2g  18 Au   29 B3u  19 Au   30 B3u  27 B1g  28 B2u  21 B1u                
  1.168   1.168   1.252   1.252   1.262   1.262   1.283   1.299
 20 B3g  31 Ag   20 Au   31 B3u  28 B1g  21 B2g  29 B2u  32 B3u                
  1.341   1.420   1.421   1.516   1.516   1.520   1.529   1.567
 32 Ag   22 B1u  29 B1g  23 B1u  30 B2u  33 Ag   22 B2g  23 B2g                
  1.567   1.591   1.591   1.591   1.594   1.644   1.644   1.669
 30 B1g  21 B3g  34 Ag   33 B3u  31 B2u  22 B3g  35 Ag   32 B2u                
  1.669   1.737   1.737   1.749   1.749   1.754   1.786   1.786
 24 B1u  34 B3u  21 Au   31 B1g  24 B2g  36 Ag   22 Au   35 B3u                
  1.798   1.798   1.819   1.820   1.820   1.835   1.835   1.849
 25 B1u  33 B2u  36 B3u  32 B1g  25 B2g  23 B3g  37 Ag   26 B1u                
  1.877   1.879   1.919   1.946   1.946   1.951   1.951   1.964
 33 B1g  26 B2g  24 B3g  34 B2u  27 B1u  34 B1g  27 B2g  23 Au                 
  1.964   1.968   1.968   2.021   2.030   2.064   2.064   2.076
 37 B3u  35 B2u  28 B1u  24 Au   36 B2u  25 B3g  38 Ag   25 Au                 
  2.076   2.098   2.098   2.099   2.099   2.114   2.116   2.116
 38 B3u  26 B3g  39 Ag   26 Au   39 B3u  35 B1g  36 B1g  28 B2g                
  2.339   2.343   2.351   2.360   2.445   2.445   2.453   2.473
 37 B1g  37 B2u  27 B3g  27 Au   28 B3g  40 Ag   41 Ag   29 B1u                
  2.473   2.487   2.488   2.500   2.504   2.504   2.631   2.631
 38 B2u  28 Au   40 B3u  41 B3u  29 B2g  38 B1g  39 B2u  30 B1u                
  2.651   2.658   2.658   2.665   2.704   2.716   2.716   2.750
 40 B2u  39 B1g  30 B2g  42 Ag   40 B1g  41 B2u  31 B1u  43 Ag                 
  2.762   2.762   2.776   2.791   2.827   2.827   2.875   2.875
 29 B3g  44 Ag   42 B2u  42 B3u  41 B1g  31 B2g  29 Au   43 B3u                
  2.898   2.898   2.910   2.913   2.945   2.959   2.960   2.970
 43 B2u  32 B1u  44 B3u  30 B3g  30 Au   31 B3g  45 Ag   32 B3g                
  2.970   2.976   2.976   3.045   3.045   3.046   3.051   3.051
 46 Ag   31 Au   45 B3u  32 Au   46 B3u  42 B1g  43 B1g  32 B2g                
  3.114   3.130   3.170   3.371   3.371   3.456   3.508   3.508
 33 B1u  33 B2g  44 B2u  33 B3g  47 Ag   44 B1g  45 B2u  34 B1u                
  3.514   3.517   3.517   3.596   3.608   3.608   3.701   3.730
 48 Ag   33 Au   47 B3u  48 B3u  45 B1g  34 B2g  46 B2u  46 B1g                
  4.001   4.001   4.071   4.071   4.087   4.165   4.165   4.165
 34 B3g  49 Ag   34 Au   49 B3u  47 B2u  47 B1g  48 B2u  35 B1u                
  4.193   4.193   4.847   4.863  23.617  23.635  23.986  23.986
 48 B1g  35 B2g  35 B3g  35 Au   50 B3u  50 Ag   49 B2u  36 B1u                
 24.044  24.044  24.112  24.112  24.125  24.125  24.213  24.246
 49 B1g  36 B2g  51 Ag   36 B3g  51 B3u  36 Au   50 B2u  50 B1g                
 
 Beta MOs, Restricted
 -- Occupied --                  
-10.169 -10.169 -10.169 -10.169 -10.169 -10.169 -10.169 -10.169
  1 B3u   1 Ag    1 B1g   1 B2g   1 B2u   1 B1u   2 B3u   2 Ag                 
-10.169 -10.169 -10.168 -10.168  -0.860  -0.848  -0.751  -0.751
  1 Au    1 B3g   2 B1g   2 B2u   3 Ag    3 B3u   3 B2u   2 B1u                
 -0.740  -0.740  -0.607  -0.607  -0.598  -0.598  -0.530  -0.521
  2 B2g   3 B1g   2 B3g   4 Ag    2 Au    4 B3u   5 Ag    5 B3u                
 -0.467  -0.457  -0.449  -0.444  -0.426  -0.426  -0.419  -0.419
  4 B2u   4 B1g   3 B1u   3 B2g   4 B1u   5 B2u   4 B2g   5 B1g                
 -0.396  -0.348  -0.348  -0.342  -0.342  -0.334  -0.281  -0.281
  6 Ag    3 B3g   7 Ag    3 Au    6 B3u   7 B3u   6 B2u   5 B1u                
 -0.223  -0.223
  6 B1g   5 B2g                                                                
 -- Virtual --                   
 -0.037  -0.037  -0.013   0.004   0.004   0.014   0.019   0.019
  4 B3g   8 Ag    9 Ag    6 B1u   7 B2u   8 B3u   4 Au    9 B3u                
  0.024   0.024   0.032   0.032   0.054   0.059   0.060   0.060
  5 B3g  10 Ag    7 B1g   6 B2g   8 B2u  11 Ag    5 Au   10 B3u                
  0.078   0.084   0.085   0.098   0.098   0.106   0.106   0.107
 11 B3u   7 B1u   8 B1g   9 B2u   8 B1u   6 B3g  12 Ag   13 Ag                 
  0.112   0.113   0.113   0.126   0.127   0.128   0.129   0.138
 10 B2u  11 B2u   9 B1u   7 B2g   9 B1g   8 B2g  12 B3u  10 B1g                
  0.138   0.141   0.141   0.141   0.141   0.155   0.156   0.163
  9 B2g   7 B3g  14 Ag    6 Au   13 B3u   8 B3g  15 Ag   12 B2u                
  0.170   0.171   0.171   0.183   0.184   0.184   0.187   0.193
 11 B1g   7 Au   14 B3u  10 B1u  13 B2u  16 Ag   12 B1g   8 Au                 
  0.193   0.210   0.225   0.226   0.226   0.226   0.227   0.250
 15 B3u  14 B2u  16 B3u  10 B2g  13 B1g  15 B2u  11 B1u  14 B1g                
  0.251   0.253   0.258   0.266   0.266   0.277   0.277   0.286
 17 B3u   9 B3g  17 Ag   10 B3g  18 Ag   15 B1g  11 B2g  16 B2u                
  0.287   0.287   0.287   0.295   0.316   0.316   0.320   0.321
  9 Au   12 B1u  18 B3u  10 Au   11 B3g  19 Ag   16 B1g  12 B2g                
  0.339   0.341   0.341   0.345   0.360   0.360   0.366   0.366
 17 B2u  19 B3u  11 Au   17 B1g  12 B3g  20 Ag   13 B1u  18 B2u                
  0.373   0.373   0.399   0.399   0.439   0.477   0.477   0.491
 13 B2g  18 B1g  12 Au   20 B3u  14 B1u  14 B2g  21 Ag   22 Ag                 
  0.511   0.527   0.528   0.534   0.548   0.565   0.580   0.580
 21 B3u  19 B2u  15 B1u  20 B2u  13 B3g  13 Au   14 B3g  23 Ag                 
  0.590   0.597   0.597   0.635   0.636   0.648   0.670   0.672
 19 B1g  21 B2u  16 B1u  15 B3g  24 Ag   22 B2u  25 Ag   20 B1g                
  0.673   0.693   0.693   0.709   0.716   0.716   0.720   0.720
 15 B2g  14 Au   22 B3u  21 B1g  15 Au   23 B3u  16 B3g  26 Ag                 
  0.726   0.726   0.731   0.739   0.739   0.758   0.759   0.761
 23 B2u  17 B1u  24 B3u  22 B1g  16 B2g  23 B1g  17 B2g  24 B2u                
  0.771   0.771   0.791   0.798   0.808   0.809   0.827   0.831
 16 Au   25 B3u  26 B3u  27 Ag   25 B2u  18 B1u  26 B2u  24 B1g                
  0.850   0.851   0.866   0.883   0.883   0.894   0.915   0.948
 17 B3g  28 Ag   18 B3g  27 B2u  19 B1u  17 Au   27 B3u  25 B1g                
  0.948   0.964   0.965   0.992   0.993   1.014   1.018   1.018
 18 B2g  19 B3g  29 Ag   28 B3u  30 Ag   20 B1u  26 B1g  19 B2g                
  1.023   1.037   1.037   1.094   1.094   1.114   1.143   1.143
 20 B2g  18 Au   29 B3u  19 Au   30 B3u  27 B1g  28 B2u  21 B1u                
  1.168   1.168   1.252   1.252   1.262   1.262   1.283   1.299
 20 B3g  31 Ag   20 Au   31 B3u  28 B1g  21 B2g  29 B2u  32 B3u                
  1.341   1.420   1.421   1.516   1.516   1.520   1.529   1.567
 32 Ag   22 B1u  29 B1g  23 B1u  30 B2u  33 Ag   22 B2g  23 B2g                
  1.567   1.591   1.591   1.591   1.594   1.644   1.644   1.669
 30 B1g  21 B3g  34 Ag   33 B3u  31 B2u  22 B3g  35 Ag   32 B2u                
  1.669   1.737   1.737   1.749   1.749   1.754   1.786   1.786
 24 B1u  34 B3u  21 Au   31 B1g  24 B2g  36 Ag   22 Au   35 B3u                
  1.798   1.798   1.819   1.820   1.820   1.835   1.835   1.849
 25 B1u  33 B2u  36 B3u  32 B1g  25 B2g  23 B3g  37 Ag   26 B1u                
  1.877   1.879   1.919   1.946   1.946   1.951   1.951   1.964
 33 B1g  26 B2g  24 B3g  34 B2u  27 B1u  34 B1g  27 B2g  23 Au                 
  1.964   1.968   1.968   2.021   2.030   2.064   2.064   2.076
 37 B3u  35 B2u  28 B1u  24 Au   36 B2u  25 B3g  38 Ag   25 Au                 
  2.076   2.098   2.098   2.099   2.099   2.114   2.116   2.116
 38 B3u  26 B3g  39 Ag   26 Au   39 B3u  35 B1g  36 B1g  28 B2g                
  2.339   2.343   2.351   2.360   2.445   2.445   2.453   2.473
 37 B1g  37 B2u  27 B3g  27 Au   28 B3g  40 Ag   41 Ag   29 B1u                
  2.473   2.487   2.488   2.500   2.504   2.504   2.631   2.631
 38 B2u  28 Au   40 B3u  41 B3u  29 B2g  38 B1g  39 B2u  30 B1u                
  2.651   2.658   2.658   2.665   2.704   2.716   2.716   2.750
 40 B2u  39 B1g  30 B2g  42 Ag   40 B1g  41 B2u  31 B1u  43 Ag                 
  2.762   2.762   2.776   2.791   2.827   2.827   2.875   2.875
 29 B3g  44 Ag   42 B2u  42 B3u  41 B1g  31 B2g  29 Au   43 B3u                
  2.898   2.898   2.910   2.913   2.945   2.959   2.960   2.970
 43 B2u  32 B1u  44 B3u  30 B3g  30 Au   31 B3g  45 Ag   32 B3g                
  2.970   2.976   2.976   3.045   3.045   3.046   3.051   3.051
 46 Ag   31 Au   45 B3u  32 Au   46 B3u  42 B1g  43 B1g  32 B2g                
  3.114   3.130   3.170   3.371   3.371   3.456   3.508   3.508
 33 B1u  33 B2g  44 B2u  33 B3g  47 Ag   44 B1g  45 B2u  34 B1u                
  3.514   3.517   3.517   3.596   3.608   3.608   3.701   3.730
 48 Ag   33 Au   47 B3u  48 B3u  45 B1g  34 B2g  46 B2u  46 B1g                
  4.001   4.001   4.071   4.071   4.087   4.165   4.165   4.165
 34 B3g  49 Ag   34 Au   49 B3u  47 B2u  47 B1g  48 B2u  35 B1u                
  4.193   4.193   4.847   4.863  23.617  23.635  23.986  23.986
 48 B1g  35 B2g  35 B3g  35 Au   50 B3u  50 Ag   49 B2u  36 B1u                
 24.044  24.044  24.112  24.112  24.125  24.125  24.213  24.246
 49 B1g  36 B2g  51 Ag   36 B3g  51 B3u  36 Au   50 B2u  50 B1g                
 --------------------------------------------------------------
 
          Ground-State Mulliken Net Atomic Charges

     Atom                 Charge (a.u.)
  ----------------------------------------
      1 C                    -0.162668
      2 C                    -0.153927
      3 C                    -0.153927
      4 C                    -0.162668
      5 C                    -0.153927
      6 C                    -0.153927
      7 H                     0.156636
      8 H                     0.156943
      9 H                     0.156943
     10 H                     0.156636
     11 H                     0.156943
     12 H                     0.156943
     13 C                    -0.162668
     14 C                    -0.153927
     15 C                    -0.153927
     16 C                    -0.162668
     17 C                    -0.153927
     18 C                    -0.153927
     19 H                     0.156636
     20 H                     0.156943
     21 H                     0.156943
     22 H                     0.156636
     23 H                     0.156943
     24 H                     0.156943
  ----------------------------------------
  Sum of atomic charges =     0.000000

 -----------------------------------------------------------------
                    Cartesian Multipole Moments
 -----------------------------------------------------------------
    Charge (ESU x 10^10)
                 0.0000
    Dipole Moment (Debye)
         X       0.0000      Y      -0.0000      Z      -0.0000
       Tot       0.0000
    Quadrupole Moments (Debye-Ang)
        XX     -83.2011     XY      -0.0000     YY     -65.1717
        XZ       0.0000     YZ       0.0000     ZZ     -65.1634
    Octopole Moments (Debye-Ang^2)
       XXX      -0.0000    XXY      -0.0000    XYY       0.0000
       YYY      -0.0000    XXZ      -0.0000    XYZ       0.0000
       YYZ       0.0000    XZZ       0.0000    YZZ       0.0000
       ZZZ       0.0000
    Hexadecapole Moments (Debye-Ang^3)
      XXXX   -1205.5449   XXXY      -0.0000   XXYY    -282.1406
      XYYY       0.0000   YYYY    -558.8813   XXXZ      -0.0000
      XXYZ       0.0000   XYYZ       0.0000   YYYZ       0.0000
      XXZZ    -282.1022   XYZZ       0.0000   YYZZ    -186.2924
      XZZZ       0.0000   YZZZ      -0.0000   ZZZZ    -558.8492
 -----------------------------------------------------------------
Archival summary:
1\1\vega02.cac.cornell.edu\SP\ProcedureUnspecified\BasisUnspecified\1212\jj585\WedApr1816:09:172018WedApr1816:09:172018\0\\#,ProcedureUnspecified,BasisUnspecified,\\0,1\C\H,1,1.08025\C,1,1.39198,2,120\H,3,1.08025,1,120,2,-0,0\C,1,1.39198,2,120,3,180,0\H,5,1.08025,1,120,2,0,0\C,3,1.39198,1,120,2,180,0\H,7,1.08025,3,120,1,180,0\C,7,1.39198,3,120,1,-0,0\H,9,1.08025,7,120,3,-180,0\C,9,1.39198,7,120,3,0,0\H,11,1.08025,9,120,7,180,0\H,4,3,3,90,1,-90,0\C,13,1.08025,4,90,3,-0,0\C,14,1.39198,13,120,4,90,0\H,15,1.08025,14,120,13,0,0\C,15,1.39198,14,120,13,180,0\H,17,1.08025,15,120,14,-180,0\C,14,1.39198,13,120,4,-90,0\H,19,1.08025,14,120,13,0,0\C,19,1.39198,14,120,13,-180,0\H,21,1.08025,19,120,14,-180,0\C,21,1.39198,19,120,14,-0,0\H,23,1.08025,21,120,19,180,0\\\@

 Total job time:  81.69s(wall), 323.12s(cpu) 
 Wed Apr 18 16:09:17 2018

        *************************************************************
        *                                                           *
        *  Thank you very much for using Q-Chem.  Have a nice day.  *
        *                                                           *
        *************************************************************


0 sent ACK to 0 
now end server 0 ... 
