mFile = /opt/software/qchem/qchem-5.0.1//bin/mpi/machines
Process 0 of 1 is on vega02.cac.cornell.edu - thread support 0
initial socket setup ...start
initial socket setup ...done 
now start server 0 ... 
vega02.cac.cornell.edu 10.84.3
Q-Chem Developer Version! Running on 10.84.3.*
                  Welcome to Q-Chem
     A Quantum Leap Into The Future Of Chemistry


 Q-Chem 5.0, Q-Chem, Inc., Pleasanton, CA (2017)

 Yihan Shao,  Zhengting Gan,  E. Epifanovsky,  A. T. B. Gilbert,  M. Wormit,  
 J. Kussmann,  A. W. Lange,  A. Behn,  Jia Deng,  Xintian Feng,  D. Ghosh,  
 M. Goldey,  P. R. Horn,  L. D. Jacobson,  I. Kaliman,  T. Kus,  A. Landau,  
 Jie Liu,  E. I. Proynov,  R. M. Richard,  R. P. Steele,  E. J. Sundstrom,  
 H. L. Woodcock III,  P. M. Zimmerman,  D. Zuev,  B. Albrecht,  E. Alguire,  
 S. A. Baeppler,  Z. Benda,  Y. A. Bernard,  E. J. Berquist,  K. B. Bravaya,  
 D. Casanova,  Chun-Min Chang,  Yunqing Chen,  A. Chien,  K. D. Closser,  
 M. P. Coons,  S. Dasgupta,  M. Diedenhofen,  Hainam Do,  R. G. Edgar,  
 Po-Tung Fang,  S. Fatehi,  Qingguo Feng,  Qinghui Ge,  A. Ghysels,  
 J. Gomes,  J. Gonthier,  A. Gunina,  M. W. D. Hanson-Heine,  
 P. H. P. Harbach,  A. W. Hauser,  J. E. Herr,  E. G. Hohenstein,  
 Z. C. Holden,  Kerwin Hui,  T.-C. Jagau,  Hyunjun Ji,  B. Kaduk,  
 K. Khistyaev,  Jaehoon Kim,  P. Klunzinger,  K. Koh,  D. Kosenkov,  
 T. Kowalczyk,  C. M. Krauter,  A. Kunitsa,  Ka Un Lao,  A. Laurent,  
 K. V. Lawler,  Joonho Lee,  D. Lefrancois,  S. Lehtola,  D. S. Levine,  
 Yi-Pei Li,  You-Sheng Lin,  Fenglai Liu,  E. Livshits,  A. Luenser,  
 P. Manohar,  E. Mansoor,  S. F. Manzer,  Shan-Ping Mao,  Yuezhi Mao,  
 N. Mardirossian,  A. V. Marenich,  L. A. Martinez-Martinez,  S. A. Maurer,  
 N. J. Mayhall,  S. C. McKenzie,  J.-M. Mewes,  A. F. Morrison,  K. Nanda,  
 T. S. Nguyen-Beck,  R. Olivares-Amaya,  J. A. Parkhill,  T. M. Perrine,  
 F. Plasser,  S. Prager,  A. Prociuk,  D. R. Rehn,  F. Rob,  M. Schneider,  
 N. Sergueev,  S. M. Sharada,  S. Sharma,  D. W. Small,  T. Stauch,  
 T. Stein,  Yu-Chuan Su,  A. J. W. Thom,  T. Tsuchimochi,  L. Vogt,  
 O. Vydrov,  M. A. Watson,  J. Wenzel,  M. de Wergifosse,  T. A. Wesolowski,  
 A. White,  J. Witte,  A. Yamada,  Jun Yang,  K. Yao,  S. Yeganeh,  
 S. R. Yost,  Zhi-Qiang You,  A. Zech,  Igor Ying Zhang,  Xing Zhang,  
 Yan Zhao,  Ying Zhu,  B. R. Brooks,  G. K. L. Chan,  C. J. Cramer,  
 M. S. Gordon,  W. J. Hehre,  A. Klamt,  M. W. Schmidt,  C. D. Sherrill,  
 D. G. Truhlar,  A. Aspuru-Guzik,  R. Baer,  A. T. Bell,  N. A. Besley,  
 Jeng-Da Chai,  A. Dreuw,  B. D. Dunietz,  T. R. Furlani,  Chao-Ping Hsu,  
 Yousung Jung,  Jing Kong,  D. S. Lambrecht,  WanZhen Liang,  C. Ochsenfeld,  
 V. A. Rassolov,  L. V. Slipchenko,  J. E. Subotnik,  T. Van Voorhis,  
 J. M. Herbert,  A. I. Krylov,  P. M. W. Gill,  M. Head-Gordon

 Contributors to earlier versions of Q-Chem not listed above: 
 R. D. Adamson,  B. Austin,  J. Baker,  G. J. O. Beran,  K. Brandhorst,  
 S. T. Brown,  E. F. C. Byrd,  A. K. Chakraborty,  C.-L. Cheng,  
 Siu Hung Chien,  D. M. Chipman,  D. L. Crittenden,  H. Dachsel,  
 R. A. DiStasio Jr.,  R. J. Doerksen,  A. D. Dutoi,  L. Fusti-Molnar,  
 W. A. Goddard III,  A. Golubeva-Zadorozhnaya,  S. R. Gwaltney,  G. Hawkins,  
 A. Heyden,  S. Hirata,  G. Kedziora,  F. J. Keil,  C. Kelley,  Jihan Kim,  
 R. A. King,  R. Z. Khaliullin,  P. P. Korambath,  W. Kurlancheek,  
 A. M. Lee,  M. S. Lee,  S. V. Levchenko,  Ching Yeh Lin,  D. Liotard,  
 R. C. Lochan,  I. Lotan,  P. E. Maslen,  N. Nair,  D. P. O'Neill,  
 D. Neuhauser,  E. Neuscamman,  C. M. Oana,  R. Olson,  B. Peters,  
 R. Peverati,  P. A. Pieniazek,  Y. M. Rhee,  J. Ritchie,  M. A. Rohrdanz,  
 E. Rosta,  N. J. Russ,  H. F. Schaefer III,  N. E. Schultz,  N. Shenvi,  
 A. C. Simmonett,  A. Sodt,  D. Stuck,  K. S. Thanthiriwatte,  V. Vanovschi,  
 Tao Wang,  A. Warshel,  C. F. Williams,  Q. Wu,  X. Xu,  W. Zhang

 Please cite Q-Chem as follows:
 Y. Shao et al., Mol. Phys. 113, 184-215 (2015)
 DOI: 10.1080/00268976.2014.952696

 Q-Chem 5.0.1 for Intel X86 EM64T Linux

 Parts of Q-Chem use Armadillo 5.200.1 (Boston Tea Smuggler).
 http://arma.sourceforge.net/

 Q-Chem begins on Wed Apr 18 16:07:24 2018  

Host: vega02.cac.cornell.edu
0

     Scratch files written to /scratch/jj585/vdw/benzene_distance_4.400_11.save//
 Parallel job on  1  processors

Checking the input file for inconsistencies... 	...done.

--------------------------------------------------------------
User input:
--------------------------------------------------------------
$molecule
0  1
--
0  1
C        +0.00000000        +1.39198000        +0.00000000
C        +1.20549000        +0.69599000        +0.00000000
C        +1.20549000        -0.69599000        +0.00000000
C        +0.00000000        -1.39198000        +0.00000000
C        -1.20549000        -0.69599000        +0.00000000
C        -1.20549000        +0.69599000        +0.00000000
H        +0.00000000        +2.47223000        +0.00000000
H        +2.14101000        +1.23612000        +0.00000000
H        +2.14101000        -1.23612000        +0.00000000
H        +0.00000000        -2.47223000        +0.00000000
H        -2.14101000        -1.23612000        +0.00000000
H        -2.14101000        +1.23612000        +0.00000000
--
0  1
C        +0.00000000        +1.39198000        +4.40000000
C        +1.20549000        +0.69599000        +4.40000000
C        +1.20549000        -0.69599000        +4.40000000
C        +0.00000000        -1.39198000        +4.40000000
C        -1.20549000        -0.69599000        +4.40000000
C        -1.20549000        +0.69599000        +4.40000000
H        +0.00000000        +2.47223000        +4.40000000
H        +2.14101000        +1.23612000        +4.40000000
H        +2.14101000        -1.23612000        +4.40000000
H        +0.00000000        -2.47223000        +4.40000000
H        -2.14101000        -1.23612000        +4.40000000
H        -2.14101000        +1.23612000        +4.40000000
$end

$rem
JOBTYPE                   SP
METHOD                    B3LYP
DFT_D                     d3_op
BASIS                     6-311++G(d,p)
SYMMETRY                  False
THRESH                    12
SCF_CONVERGENCE           8
MAX_SUB_FILE_NUM          128
MEM_STATIC                400
MEM_TOTAL                 4000
$end
--------------------------------------------------------------
 Adding empirical dispersion correction 
 ----------------------------------------------------------------
 Doing -D3(op) with
 s6 =   1.00000
 s8 =   0.78311
 a1 =   0.30000
 a2 =   4.25000
 n  =  10.00000
 -D3 energy without 3body term =     -0.0196683506 hartrees
 ----------------------------------------------------------------
             Standard Nuclear Orientation (Angstroms)
    I     Atom           X                Y                Z
 ----------------------------------------------------------------
    1      C      -2.2000000000     1.3919800000     0.0000000000
    2      C      -2.2000000000     0.6959900000    -1.2054900000
    3      C      -2.2000000000    -0.6959900000    -1.2054900000
    4      C      -2.2000000000    -1.3919800000     0.0000000000
    5      C      -2.2000000000    -0.6959900000     1.2054900000
    6      C      -2.2000000000     0.6959900000     1.2054900000
    7      H      -2.2000000000     2.4722300000     0.0000000000
    8      H      -2.2000000000     1.2361200000    -2.1410100000
    9      H      -2.2000000000    -1.2361200000    -2.1410100000
   10      H      -2.2000000000    -2.4722300000     0.0000000000
   11      H      -2.2000000000    -1.2361200000     2.1410100000
   12      H      -2.2000000000     1.2361200000     2.1410100000
   13      C       2.2000000000     1.3919800000    -0.0000000000
   14      C       2.2000000000     0.6959900000    -1.2054900000
   15      C       2.2000000000    -0.6959900000    -1.2054900000
   16      C       2.2000000000    -1.3919800000    -0.0000000000
   17      C       2.2000000000    -0.6959900000     1.2054900000
   18      C       2.2000000000     0.6959900000     1.2054900000
   19      H       2.2000000000     2.4722300000    -0.0000000000
   20      H       2.2000000000     1.2361200000    -2.1410100000
   21      H       2.2000000000    -1.2361200000    -2.1410100000
   22      H       2.2000000000    -2.4722300000     0.0000000000
   23      H       2.2000000000    -1.2361200000     2.1410100000
   24      H       2.2000000000     1.2361200000     2.1410100000
 ----------------------------------------------------------------
 Molecular Point Group                 D2h   NOp =  8
 Largest Abelian Subgroup              D2h   NOp =  8
 Nuclear Repulsion Energy =   598.6102928389 hartrees
 There are       42 alpha and       42 beta electrons
 Requested basis set is 6-311++G(d,p)
 There are 132 shells and 348 basis functions

 Total QAlloc Memory Limit   4000 MB
 Mega-Array Size       392 MB
 MEM_STATIC part       400 MB
 A cutoff of  1.0D-12 yielded   7422 shell pairs
 There are     52566 function pairs (     56058 Cartesian)
 
 -------------------------------------------------------
 OpenMP Integral Computing Module                       
 Release: version 1.0, May 2013, Q-Chem Inc. Pittsburgh 
 -------------------------------------------------------
 Integral Job Info:
 Integral job number is                      11
 Integral operator is                         1
 short-range coefficients                     0
 long-range coefficients              100000000
 Omega coefficients                           0
 if combine SR and LR in K                    0
 Integral screening is                        0
 Integral computing path is                   2
 max size of driver memory is            800000
 size of driver memory is                593474
 size of scratch memory is              2361544
 max col of scratch BK array               1296
 max len of scratch array in speh3          155
 max len of scratch index in speh4           18
 max int batch size is                      520
 min int batch size is                       52
 fixed nKL is                                52
 max L of basis functions is                  2
 order of int derivative is                   0
 number of shells is                        132
 number of basis is                         360
 number of cartesian basis is               360
 number of contracted shell pairs          7422
 number of primitive shell pairs          16830
 maxK2 (contraction) of shell pair           36
 max number of K2 of shell pair               1
 max number of CS2 of shell pair           1344
 max number of PS2 of shell pair           2268
 mem total for path MDJ                   96088
 -------------------------------------------------------
 Smallest overlap matrix eigenvalue = 2.92E-07
 Linear dependence detected in AO basis
 Number of orthogonalized atomic orbitals = 346
 Maximum deviation from orthogonality = 1.546E-11

 Scale SEOQF with 1.000000e-01/1.000000e-01/1.000000e-01

 Standard Electronic Orientation quadrupole field applied
 Nucleus-field energy     =     0.0000000107 hartrees
 Guess from superposition of atomic densities
 Warning:  Energy on first SCF cycle will be non-variational
 A restricted hybrid HF-DFT SCF calculation will be
 performed using Pulay DIIS extrapolation
 Exchange:     0.2000 Hartree-Fock + 0.0800 Slater + 0.7200 B88
 Correlation:  0.1900 VWN1RPA + 0.8100 LYP
 Using SG-1 standard quadrature grid
 Dispersion:   Grimme D3
 SCF converges when DIIS error is below 1.0E-08
 using 4 threads for integral computing
 -------------------------------------------------------
 OpenMP Integral computing Module                
 Release: version 1.0, May 2013, Q-Chem Inc. Pittsburgh 
 -------------------------------------------------------
 -------------------------------------------------------
 OpenMP BLAS3 based DFT computing Module                
 Release: version 1.0, May 2013, Q-Chem Inc. Pittsburgh 
 -------------------------------------------------------
 ---------------------------------------
  Cycle       Energy         DIIS Error
 ---------------------------------------
    1    -467.2752223557      3.46E-02
    2    -464.3972136563      3.79E-03
    3    -464.3120217748      4.50E-03
    4    -464.6390668168      3.15E-04
    5    -464.6403112384      5.13E-05
    6    -464.6403457313      1.55E-05
    7    -464.6403493155      1.86E-06
    8    -464.6403493723      1.32E-07
    9    -464.6403493725      3.85E-08
   10    -464.6403493725      1.20E-08
   11    -464.6403493724      2.28E-10 Convergence criterion met
 ---------------------------------------
 SCF time:  CPU 207.29 s  wall 52.02 s
 SCF   energy in the final basis set = -464.64034937
 Total energy in the final basis set = -464.64034937
 
 --------------------------------------------------------------
             Orbital Energies (a.u.) and Symmetries
 --------------------------------------------------------------
 
 Alpha MOs, Restricted
 -- Occupied --                  
-10.173 -10.173 -10.173 -10.173 -10.173 -10.173 -10.173 -10.173
  1 B3u   1 Ag    1 B2u   1 B1g   1 B2g   1 B1u   2 Ag    2 B3u                
-10.173 -10.173 -10.172 -10.172  -0.857  -0.856  -0.748  -0.748
  1 Au    1 B3g   2 B1g   2 B2u   3 Ag    3 B3u   2 B1u   3 B2u                
 -0.748  -0.748  -0.605  -0.605  -0.604  -0.604  -0.527  -0.527
  2 B2g   3 B1g   2 B3g   4 Ag    2 Au    4 B3u   5 Ag    5 B3u                
 -0.463  -0.463  -0.449  -0.449  -0.425  -0.425  -0.424  -0.424
  4 B2u   4 B1g   3 B1u   3 B2g   4 B1u   5 B2u   4 B2g   5 B1g                
 -0.373  -0.365  -0.347  -0.347  -0.347  -0.347  -0.259  -0.259
  6 Ag    6 B3u   3 B3g   7 Ag    3 Au    7 B3u   6 B2u   5 B1u                
 -0.252  -0.252
  6 B1g   5 B2g                                                                
 -- Virtual --                   
 -0.018  -0.018  -0.011  -0.007  -0.007   0.005   0.005   0.008
  8 Ag    4 B3g   9 Ag    4 Au    8 B3u   7 B2u   6 B1u   9 B3u                
  0.025   0.025   0.027   0.027   0.049   0.049   0.057   0.063
  7 B1g   6 B2g   5 B3g  10 Ag    5 Au   10 B3u   8 B2u  11 Ag                 
  0.073   0.077   0.088   0.092   0.096   0.096   0.112   0.112
 11 B3u   8 B1g  12 Ag    7 B1u   9 B2u   8 B1u  10 B2u   9 B1u                
  0.113   0.113   0.114   0.120   0.121   0.122   0.123   0.124
  6 B3g  13 Ag    7 B2g  14 Ag    9 B1g   8 B2g  11 B2u  12 B3u                
  0.130   0.130   0.132   0.132   0.146   0.146   0.146   0.150
  6 Au   13 B3u  10 B1g   9 B2g  11 B1g   7 B3g  15 Ag    8 B3g                
  0.151   0.163   0.163   0.166   0.166   0.174   0.180   0.183
 16 Ag   12 B2u  10 B1u   7 Au   14 B3u  13 B2u  12 B1g   8 Au                 
  0.183   0.194   0.194   0.209   0.212   0.213   0.237   0.237
 15 B3u  11 B1u  14 B2u  15 B2u  10 B2g  13 B1g  14 B1g  16 B3u                
  0.240   0.244   0.244   0.257   0.266   0.283   0.284   0.284
 17 Ag   18 Ag    9 B3g  10 B3g  17 B3u   9 Au   16 B2u  12 B1u                
  0.286   0.287   0.288   0.288   0.295   0.295   0.295   0.296
 10 Au   18 B3u  15 B1g  11 B2g  19 Ag   16 B1g  11 B3g  12 B2g                
  0.312   0.346   0.346   0.354   0.359   0.359   0.364   0.364
 17 B2u  11 Au   19 B3u  17 B1g  20 Ag   12 B3g  13 B1u  18 B2u                
  0.376   0.376   0.378   0.378   0.450   0.463   0.485   0.507
 12 Au   20 B3u  13 B2g  18 B1g  14 B1u  14 B2g  21 Ag   21 B3u                
  0.545   0.546   0.547   0.553   0.554   0.554   0.557   0.565
 22 Ag   19 B2u  22 B3u  13 B3g  20 B2u  15 B1u  13 Au   19 B1g                
  0.582   0.582   0.610   0.610   0.628   0.628   0.635   0.635
 14 B3g  23 Ag   20 B1g  15 B2g  16 B1u  21 B2u  24 Ag   15 B3g                
  0.637   0.638   0.638   0.638   0.665   0.665   0.665   0.709
 14 Au   23 B3u  21 B1g  16 B2g  22 B2u  15 Au   24 B3u  22 B1g                
  0.713   0.715   0.722   0.722   0.736   0.736   0.739   0.739
 23 B2u  25 Ag   16 B3g  26 Ag   24 B2u  17 B1u  16 Au   25 B3u                
  0.747   0.747   0.760   0.795   0.795   0.840   0.840   0.841
 23 B1g  17 B2g  26 B3u  27 B3u  24 B1g  25 B2u  26 B2u  18 B1u                
  0.842   0.845   0.871   0.871   0.873   0.881   0.887   0.887
 27 Ag   25 B1g  26 B1g  18 B2g  17 B3g  17 Au   18 Au   28 B3u                
  0.905   0.905   0.909   0.909   0.953   0.960   0.960   0.986
 28 Ag   18 B3g  27 B1g  19 B2g  29 Ag   27 B2u  19 B1u  29 B3u                
  1.000   1.000   1.016   1.016   1.055   1.055   1.078   1.078
 30 Ag   19 B3g  20 B1u  20 B2g  19 Au   30 B3u  28 B2u  21 B1u                
  1.128   1.128   1.144   1.144   1.151   1.151   1.272   1.315
 28 B1g  21 B2g  20 B3g  31 Ag   20 Au   31 B3u  29 B2u  32 Ag                 
  1.322   1.368   1.457   1.468   1.528   1.528   1.532   1.532
 32 B3u  29 B1g  22 B1u  22 B2g  23 B1u  30 B2u  33 B3u  23 B2g                
  1.532   1.545   1.547   1.559   1.559   1.608   1.608   1.615
 30 B1g  31 B2u  33 Ag   21 B3g  34 Ag   21 Au   34 B3u  31 B1g                
  1.655   1.655   1.660   1.660   1.676   1.676   1.691   1.691
 35 Ag   22 B3g  32 B2u  24 B1u  22 Au   35 B3u  32 B1g  24 B2g                
  1.722   1.742   1.777   1.777   1.800   1.800   1.825   1.825
 36 Ag   36 B3u  25 B1u  33 B2u  25 B2g  33 B1g  23 B3g  37 Ag                 
  1.852   1.852   1.854   1.860   1.931   1.931   1.942   1.942
 23 Au   37 B3u  26 B1u  26 B2g  34 B2u  27 B1u  34 B1g  27 B2g                
  1.944   1.944   1.953   1.968   1.968   1.970   1.997   2.022
 35 B2u  28 B1u  24 B3g  35 B1g  28 B2g  24 Au   36 B2u  25 B3g                
  2.022   2.026   2.043   2.043   2.090   2.090   2.095   2.095
 38 Ag   36 B1g  25 Au   38 B3u  26 B3g  39 Ag   26 Au   39 B3u                
  2.335   2.335   2.352   2.352   2.412   2.419   2.419   2.445
 37 B2u  37 B1g  27 B3g  27 Au   40 Ag   41 Ag   28 B3g  28 Au                 
  2.445   2.458   2.458   2.497   2.497   2.502   2.636   2.636
 40 B3u  29 B1u  38 B2u  29 B2g  38 B1g  41 B3u  39 B2u  30 B1u                
  2.637   2.637   2.648   2.665   2.681   2.682   2.689   2.748
 39 B1g  30 B2g  40 B2u  42 Ag   40 B1g  42 B3u  41 B2u  43 B3u                
  2.750   2.750   2.751   2.764   2.764   2.765   2.771   2.771
 42 B2u  31 B1u  43 Ag   41 B1g  42 B1g  31 B2g  29 B3g  44 Ag                 
  2.779   2.779   2.832   2.832   2.836   2.836   2.897   2.897
 29 Au   44 B3u  43 B1g  32 B2g  43 B2u  32 B1u  30 B3g  45 Ag                 
  2.916   2.916   2.922   2.925   2.962   2.962   2.976   2.976
 30 Au   45 B3u  31 B3g  31 Au   32 B3g  46 Ag   32 Au   46 B3u                
  3.076   3.108   3.112   3.118   3.341   3.341   3.387   3.387
 44 B2u  44 B1g  33 B1u  33 B2g  47 Ag   33 B3g  33 Au   47 B3u                
  3.486   3.486   3.522   3.522   3.536   3.541   3.701   3.705
 45 B2u  34 B1u  45 B1g  34 B2g  48 Ag   48 B3u  46 B2u  46 B1g                
  4.007   4.007   4.009   4.009   4.085   4.098   4.164   4.164
 34 B3g  49 Ag   34 Au   49 B3u  47 B2u  47 B1g  48 B1g  35 B2g                
  4.169   4.169   4.851   4.853  23.611  23.612  23.993  23.993
 48 B2u  35 B1u  35 B3g  35 Au   50 Ag   50 B3u  49 B2u  36 B1u                
 23.994  23.994  24.107  24.107  24.109  24.109  24.212  24.220
 49 B1g  36 B2g  51 Ag   36 B3g  51 B3u  36 Au   50 B2u  50 B1g                
 
 Beta MOs, Restricted
 -- Occupied --                  
-10.173 -10.173 -10.173 -10.173 -10.173 -10.173 -10.173 -10.173
  1 B3u   1 Ag    1 B2u   1 B1g   1 B2g   1 B1u   2 Ag    2 B3u                
-10.173 -10.173 -10.172 -10.172  -0.857  -0.856  -0.748  -0.748
  1 Au    1 B3g   2 B1g   2 B2u   3 Ag    3 B3u   2 B1u   3 B2u                
 -0.748  -0.748  -0.605  -0.605  -0.604  -0.604  -0.527  -0.527
  2 B2g   3 B1g   2 B3g   4 Ag    2 Au    4 B3u   5 Ag    5 B3u                
 -0.463  -0.463  -0.449  -0.449  -0.425  -0.425  -0.424  -0.424
  4 B2u   4 B1g   3 B1u   3 B2g   4 B1u   5 B2u   4 B2g   5 B1g                
 -0.373  -0.365  -0.347  -0.347  -0.347  -0.347  -0.259  -0.259
  6 Ag    6 B3u   3 B3g   7 Ag    3 Au    7 B3u   6 B2u   5 B1u                
 -0.252  -0.252
  6 B1g   5 B2g                                                                
 -- Virtual --                   
 -0.018  -0.018  -0.011  -0.007  -0.007   0.005   0.005   0.008
  8 Ag    4 B3g   9 Ag    4 Au    8 B3u   7 B2u   6 B1u   9 B3u                
  0.025   0.025   0.027   0.027   0.049   0.049   0.057   0.063
  7 B1g   6 B2g   5 B3g  10 Ag    5 Au   10 B3u   8 B2u  11 Ag                 
  0.073   0.077   0.088   0.092   0.096   0.096   0.112   0.112
 11 B3u   8 B1g  12 Ag    7 B1u   9 B2u   8 B1u  10 B2u   9 B1u                
  0.113   0.113   0.114   0.120   0.121   0.122   0.123   0.124
  6 B3g  13 Ag    7 B2g  14 Ag    9 B1g   8 B2g  11 B2u  12 B3u                
  0.130   0.130   0.132   0.132   0.146   0.146   0.146   0.150
  6 Au   13 B3u  10 B1g   9 B2g  11 B1g   7 B3g  15 Ag    8 B3g                
  0.151   0.163   0.163   0.166   0.166   0.174   0.180   0.183
 16 Ag   12 B2u  10 B1u   7 Au   14 B3u  13 B2u  12 B1g   8 Au                 
  0.183   0.194   0.194   0.209   0.212   0.213   0.237   0.237
 15 B3u  11 B1u  14 B2u  15 B2u  10 B2g  13 B1g  14 B1g  16 B3u                
  0.240   0.244   0.244   0.257   0.266   0.283   0.284   0.284
 17 Ag   18 Ag    9 B3g  10 B3g  17 B3u   9 Au   16 B2u  12 B1u                
  0.286   0.287   0.288   0.288   0.295   0.295   0.295   0.296
 10 Au   18 B3u  15 B1g  11 B2g  19 Ag   16 B1g  11 B3g  12 B2g                
  0.312   0.346   0.346   0.354   0.359   0.359   0.364   0.364
 17 B2u  11 Au   19 B3u  17 B1g  20 Ag   12 B3g  13 B1u  18 B2u                
  0.376   0.376   0.378   0.378   0.450   0.463   0.485   0.507
 12 Au   20 B3u  13 B2g  18 B1g  14 B1u  14 B2g  21 Ag   21 B3u                
  0.545   0.546   0.547   0.553   0.554   0.554   0.557   0.565
 22 Ag   19 B2u  22 B3u  13 B3g  20 B2u  15 B1u  13 Au   19 B1g                
  0.582   0.582   0.610   0.610   0.628   0.628   0.635   0.635
 14 B3g  23 Ag   20 B1g  15 B2g  16 B1u  21 B2u  24 Ag   15 B3g                
  0.637   0.638   0.638   0.638   0.665   0.665   0.665   0.709
 14 Au   23 B3u  21 B1g  16 B2g  22 B2u  15 Au   24 B3u  22 B1g                
  0.713   0.715   0.722   0.722   0.736   0.736   0.739   0.739
 23 B2u  25 Ag   16 B3g  26 Ag   24 B2u  17 B1u  16 Au   25 B3u                
  0.747   0.747   0.760   0.795   0.795   0.840   0.840   0.841
 23 B1g  17 B2g  26 B3u  27 B3u  24 B1g  25 B2u  26 B2u  18 B1u                
  0.842   0.845   0.871   0.871   0.873   0.881   0.887   0.887
 27 Ag   25 B1g  26 B1g  18 B2g  17 B3g  17 Au   18 Au   28 B3u                
  0.905   0.905   0.909   0.909   0.953   0.960   0.960   0.986
 28 Ag   18 B3g  27 B1g  19 B2g  29 Ag   27 B2u  19 B1u  29 B3u                
  1.000   1.000   1.016   1.016   1.055   1.055   1.078   1.078
 30 Ag   19 B3g  20 B1u  20 B2g  19 Au   30 B3u  28 B2u  21 B1u                
  1.128   1.128   1.144   1.144   1.151   1.151   1.272   1.315
 28 B1g  21 B2g  20 B3g  31 Ag   20 Au   31 B3u  29 B2u  32 Ag                 
  1.322   1.368   1.457   1.468   1.528   1.528   1.532   1.532
 32 B3u  29 B1g  22 B1u  22 B2g  23 B1u  30 B2u  33 B3u  23 B2g                
  1.532   1.545   1.547   1.559   1.559   1.608   1.608   1.615
 30 B1g  31 B2u  33 Ag   21 B3g  34 Ag   21 Au   34 B3u  31 B1g                
  1.655   1.655   1.660   1.660   1.676   1.676   1.691   1.691
 35 Ag   22 B3g  32 B2u  24 B1u  22 Au   35 B3u  32 B1g  24 B2g                
  1.722   1.742   1.777   1.777   1.800   1.800   1.825   1.825
 36 Ag   36 B3u  25 B1u  33 B2u  25 B2g  33 B1g  23 B3g  37 Ag                 
  1.852   1.852   1.854   1.860   1.931   1.931   1.942   1.942
 23 Au   37 B3u  26 B1u  26 B2g  34 B2u  27 B1u  34 B1g  27 B2g                
  1.944   1.944   1.953   1.968   1.968   1.970   1.997   2.022
 35 B2u  28 B1u  24 B3g  35 B1g  28 B2g  24 Au   36 B2u  25 B3g                
  2.022   2.026   2.043   2.043   2.090   2.090   2.095   2.095
 38 Ag   36 B1g  25 Au   38 B3u  26 B3g  39 Ag   26 Au   39 B3u                
  2.335   2.335   2.352   2.352   2.412   2.419   2.419   2.445
 37 B2u  37 B1g  27 B3g  27 Au   40 Ag   41 Ag   28 B3g  28 Au                 
  2.445   2.458   2.458   2.497   2.497   2.502   2.636   2.636
 40 B3u  29 B1u  38 B2u  29 B2g  38 B1g  41 B3u  39 B2u  30 B1u                
  2.637   2.637   2.648   2.665   2.681   2.682   2.689   2.748
 39 B1g  30 B2g  40 B2u  42 Ag   40 B1g  42 B3u  41 B2u  43 B3u                
  2.750   2.750   2.751   2.764   2.764   2.765   2.771   2.771
 42 B2u  31 B1u  43 Ag   41 B1g  42 B1g  31 B2g  29 B3g  44 Ag                 
  2.779   2.779   2.832   2.832   2.836   2.836   2.897   2.897
 29 Au   44 B3u  43 B1g  32 B2g  43 B2u  32 B1u  30 B3g  45 Ag                 
  2.916   2.916   2.922   2.925   2.962   2.962   2.976   2.976
 30 Au   45 B3u  31 B3g  31 Au   32 B3g  46 Ag   32 Au   46 B3u                
  3.076   3.108   3.112   3.118   3.341   3.341   3.387   3.387
 44 B2u  44 B1g  33 B1u  33 B2g  47 Ag   33 B3g  33 Au   47 B3u                
  3.486   3.486   3.522   3.522   3.536   3.541   3.701   3.705
 45 B2u  34 B1u  45 B1g  34 B2g  48 Ag   48 B3u  46 B2u  46 B1g                
  4.007   4.007   4.009   4.009   4.085   4.098   4.164   4.164
 34 B3g  49 Ag   34 Au   49 B3u  47 B2u  47 B1g  48 B1g  35 B2g                
  4.169   4.169   4.851   4.853  23.611  23.612  23.993  23.993
 48 B2u  35 B1u  35 B3g  35 Au   50 Ag   50 B3u  49 B2u  36 B1u                
 23.994  23.994  24.107  24.107  24.109  24.109  24.212  24.220
 49 B1g  36 B2g  51 Ag   36 B3g  51 B3u  36 Au   50 B2u  50 B1g                
 --------------------------------------------------------------
 
          Ground-State Mulliken Net Atomic Charges

     Atom                 Charge (a.u.)
  ----------------------------------------
      1 C                    -0.155550
      2 C                    -0.152640
      3 C                    -0.152640
      4 C                    -0.155550
      5 C                    -0.152640
      6 C                    -0.152640
      7 H                     0.153656
      8 H                     0.153588
      9 H                     0.153588
     10 H                     0.153656
     11 H                     0.153588
     12 H                     0.153588
     13 C                    -0.155550
     14 C                    -0.152640
     15 C                    -0.152640
     16 C                    -0.155550
     17 C                    -0.152640
     18 C                    -0.152640
     19 H                     0.153656
     20 H                     0.153588
     21 H                     0.153588
     22 H                     0.153656
     23 H                     0.153588
     24 H                     0.153588
  ----------------------------------------
  Sum of atomic charges =    -0.000000

 -----------------------------------------------------------------
                    Cartesian Multipole Moments
 -----------------------------------------------------------------
    Charge (ESU x 10^10)
                 0.0000
    Dipole Moment (Debye)
         X      -0.0000      Y      -0.0000      Z       0.0000
       Tot       0.0000
    Quadrupole Moments (Debye-Ang)
        XX     -81.6376     XY      -0.0000     YY     -64.6137
        XZ       0.0000     YZ      -0.0000     ZZ     -64.6087
    Octopole Moments (Debye-Ang^2)
       XXX      -0.0000    XXY      -0.0000    XYY       0.0000
       YYY      -0.0000    XXZ      -0.0000    XYZ      -0.0000
       YYZ       0.0000    XZZ      -0.0000    YZZ      -0.0000
       ZZZ       0.0000
    Hexadecapole Moments (Debye-Ang^3)
      XXXX   -2451.5825   XXXY      -0.0000   XXYY    -444.7752
      XYYY       0.0000   YYYY    -553.3850   XXXZ       0.0000
      XXYZ      -0.0000   XYYZ       0.0000   YYYZ      -0.0000
      XXZZ    -444.7020   XYZZ      -0.0000   YYZZ    -184.4550
      XZZZ       0.0000   YZZZ       0.0000   ZZZZ    -553.3601
 -----------------------------------------------------------------
Archival summary:
1\1\vega02.cac.cornell.edu\SP\ProcedureUnspecified\BasisUnspecified\1212\jj585\WedApr1816:08:172018WedApr1816:08:172018\0\\#,ProcedureUnspecified,BasisUnspecified,\\0,1\C\H,1,1.08025\C,1,1.39198,2,120\H,3,1.08025,1,120,2,-0,0\C,1,1.39198,2,120,3,180,0\H,5,1.08025,1,120,2,0,0\C,3,1.39198,1,120,2,180,0\H,7,1.08025,3,120,1,180,0\C,7,1.39198,3,120,1,-0,0\H,9,1.08025,7,120,3,-180,0\C,9,1.39198,7,120,3,-0,0\H,11,1.08025,9,120,7,-180,0\H,4,4.4,3,90,1,-90,0\C,13,1.08025,4,90,3,-0,0\C,14,1.39198,13,120,4,90,0\H,15,1.08025,14,120,13,-0,0\C,15,1.39198,14,120,13,180,0\H,17,1.08025,15,120,14,-180,0\C,14,1.39198,13,120,4,-90,0\H,19,1.08025,14,120,13,0,0\C,19,1.39198,14,120,13,180,0\H,21,1.08025,19,120,14,180,0\C,21,1.39198,19,120,14,0,0\H,23,1.08025,21,120,19,180,0\\\@

 Total job time:  52.88s(wall), 209.80s(cpu) 
 Wed Apr 18 16:08:17 2018

        *************************************************************
        *                                                           *
        *  Thank you very much for using Q-Chem.  Have a nice day.  *
        *                                                           *
        *************************************************************


0 sent ACK to 0 
now end server 0 ... 
