mFile = /opt/software/qchem/qchem-5.0.1//bin/mpi/machines
Process 0 of 1 is on vega02.cac.cornell.edu - thread support 0
initial socket setup ...start
initial socket setup ...done 
now start server 0 ... 
vega02.cac.cornell.edu 10.84.3
Q-Chem Developer Version! Running on 10.84.3.*
                  Welcome to Q-Chem
     A Quantum Leap Into The Future Of Chemistry


 Q-Chem 5.0, Q-Chem, Inc., Pleasanton, CA (2017)

 Yihan Shao,  Zhengting Gan,  E. Epifanovsky,  A. T. B. Gilbert,  M. Wormit,  
 J. Kussmann,  A. W. Lange,  A. Behn,  Jia Deng,  Xintian Feng,  D. Ghosh,  
 M. Goldey,  P. R. Horn,  L. D. Jacobson,  I. Kaliman,  T. Kus,  A. Landau,  
 Jie Liu,  E. I. Proynov,  R. M. Richard,  R. P. Steele,  E. J. Sundstrom,  
 H. L. Woodcock III,  P. M. Zimmerman,  D. Zuev,  B. Albrecht,  E. Alguire,  
 S. A. Baeppler,  Z. Benda,  Y. A. Bernard,  E. J. Berquist,  K. B. Bravaya,  
 D. Casanova,  Chun-Min Chang,  Yunqing Chen,  A. Chien,  K. D. Closser,  
 M. P. Coons,  S. Dasgupta,  M. Diedenhofen,  Hainam Do,  R. G. Edgar,  
 Po-Tung Fang,  S. Fatehi,  Qingguo Feng,  Qinghui Ge,  A. Ghysels,  
 J. Gomes,  J. Gonthier,  A. Gunina,  M. W. D. Hanson-Heine,  
 P. H. P. Harbach,  A. W. Hauser,  J. E. Herr,  E. G. Hohenstein,  
 Z. C. Holden,  Kerwin Hui,  T.-C. Jagau,  Hyunjun Ji,  B. Kaduk,  
 K. Khistyaev,  Jaehoon Kim,  P. Klunzinger,  K. Koh,  D. Kosenkov,  
 T. Kowalczyk,  C. M. Krauter,  A. Kunitsa,  Ka Un Lao,  A. Laurent,  
 K. V. Lawler,  Joonho Lee,  D. Lefrancois,  S. Lehtola,  D. S. Levine,  
 Yi-Pei Li,  You-Sheng Lin,  Fenglai Liu,  E. Livshits,  A. Luenser,  
 P. Manohar,  E. Mansoor,  S. F. Manzer,  Shan-Ping Mao,  Yuezhi Mao,  
 N. Mardirossian,  A. V. Marenich,  L. A. Martinez-Martinez,  S. A. Maurer,  
 N. J. Mayhall,  S. C. McKenzie,  J.-M. Mewes,  A. F. Morrison,  K. Nanda,  
 T. S. Nguyen-Beck,  R. Olivares-Amaya,  J. A. Parkhill,  T. M. Perrine,  
 F. Plasser,  S. Prager,  A. Prociuk,  D. R. Rehn,  F. Rob,  M. Schneider,  
 N. Sergueev,  S. M. Sharada,  S. Sharma,  D. W. Small,  T. Stauch,  
 T. Stein,  Yu-Chuan Su,  A. J. W. Thom,  T. Tsuchimochi,  L. Vogt,  
 O. Vydrov,  M. A. Watson,  J. Wenzel,  M. de Wergifosse,  T. A. Wesolowski,  
 A. White,  J. Witte,  A. Yamada,  Jun Yang,  K. Yao,  S. Yeganeh,  
 S. R. Yost,  Zhi-Qiang You,  A. Zech,  Igor Ying Zhang,  Xing Zhang,  
 Yan Zhao,  Ying Zhu,  B. R. Brooks,  G. K. L. Chan,  C. J. Cramer,  
 M. S. Gordon,  W. J. Hehre,  A. Klamt,  M. W. Schmidt,  C. D. Sherrill,  
 D. G. Truhlar,  A. Aspuru-Guzik,  R. Baer,  A. T. Bell,  N. A. Besley,  
 Jeng-Da Chai,  A. Dreuw,  B. D. Dunietz,  T. R. Furlani,  Chao-Ping Hsu,  
 Yousung Jung,  Jing Kong,  D. S. Lambrecht,  WanZhen Liang,  C. Ochsenfeld,  
 V. A. Rassolov,  L. V. Slipchenko,  J. E. Subotnik,  T. Van Voorhis,  
 J. M. Herbert,  A. I. Krylov,  P. M. W. Gill,  M. Head-Gordon

 Contributors to earlier versions of Q-Chem not listed above: 
 R. D. Adamson,  B. Austin,  J. Baker,  G. J. O. Beran,  K. Brandhorst,  
 S. T. Brown,  E. F. C. Byrd,  A. K. Chakraborty,  C.-L. Cheng,  
 Siu Hung Chien,  D. M. Chipman,  D. L. Crittenden,  H. Dachsel,  
 R. A. DiStasio Jr.,  R. J. Doerksen,  A. D. Dutoi,  L. Fusti-Molnar,  
 W. A. Goddard III,  A. Golubeva-Zadorozhnaya,  S. R. Gwaltney,  G. Hawkins,  
 A. Heyden,  S. Hirata,  G. Kedziora,  F. J. Keil,  C. Kelley,  Jihan Kim,  
 R. A. King,  R. Z. Khaliullin,  P. P. Korambath,  W. Kurlancheek,  
 A. M. Lee,  M. S. Lee,  S. V. Levchenko,  Ching Yeh Lin,  D. Liotard,  
 R. C. Lochan,  I. Lotan,  P. E. Maslen,  N. Nair,  D. P. O'Neill,  
 D. Neuhauser,  E. Neuscamman,  C. M. Oana,  R. Olson,  B. Peters,  
 R. Peverati,  P. A. Pieniazek,  Y. M. Rhee,  J. Ritchie,  M. A. Rohrdanz,  
 E. Rosta,  N. J. Russ,  H. F. Schaefer III,  N. E. Schultz,  N. Shenvi,  
 A. C. Simmonett,  A. Sodt,  D. Stuck,  K. S. Thanthiriwatte,  V. Vanovschi,  
 Tao Wang,  A. Warshel,  C. F. Williams,  Q. Wu,  X. Xu,  W. Zhang

 Please cite Q-Chem as follows:
 Y. Shao et al., Mol. Phys. 113, 184-215 (2015)
 DOI: 10.1080/00268976.2014.952696

 Q-Chem 5.0.1 for Intel X86 EM64T Linux

 Parts of Q-Chem use Armadillo 5.200.1 (Boston Tea Smuggler).
 http://arma.sourceforge.net/

 Q-Chem begins on Wed Apr 18 16:06:43 2018  

Host: vega02.cac.cornell.edu
0

     Scratch files written to /scratch/jj585/vdw/benzene_distance_3.500_01.save//
 Parallel job on  1  processors

Checking the input file for inconsistencies... 	...done.

--------------------------------------------------------------
User input:
--------------------------------------------------------------
$molecule
0  1
C        +0.00000000        +1.39198000        +3.50000000
C        +1.20549000        +0.69599000        +3.50000000
C        +1.20549000        -0.69599000        +3.50000000
C        +0.00000000        -1.39198000        +3.50000000
C        -1.20549000        -0.69599000        +3.50000000
C        -1.20549000        +0.69599000        +3.50000000
H        +0.00000000        +2.47223000        +3.50000000
H        +2.14101000        +1.23612000        +3.50000000
H        +2.14101000        -1.23612000        +3.50000000
H        +0.00000000        -2.47223000        +3.50000000
H        -2.14101000        -1.23612000        +3.50000000
H        -2.14101000        +1.23612000        +3.50000000
@C        +0.00000000        +1.39198000        +0.00000000
@C        +1.20549000        +0.69599000        +0.00000000
@C        +1.20549000        -0.69599000        +0.00000000
@C        +0.00000000        -1.39198000        +0.00000000
@C        -1.20549000        -0.69599000        +0.00000000
@C        -1.20549000        +0.69599000        +0.00000000
@H        +0.00000000        +2.47223000        +0.00000000
@H        +2.14101000        +1.23612000        +0.00000000
@H        +2.14101000        -1.23612000        +0.00000000
@H        +0.00000000        -2.47223000        +0.00000000
@H        -2.14101000        -1.23612000        +0.00000000
@H        -2.14101000        +1.23612000        +0.00000000
$end

$rem
JOBTYPE                   SP
METHOD                    B3LYP
DFT_D                     d3_op
BASIS                     6-311++G(d,p)
SYMMETRY                  False
THRESH                    12
SCF_CONVERGENCE           8
MAX_SUB_FILE_NUM          128
MEM_STATIC                400
MEM_TOTAL                 4000
$end
--------------------------------------------------------------
 Adding empirical dispersion correction 
 ----------------------------------------------------------------
 Doing -D3(op) with
 s6 =   1.00000
 s8 =   0.78311
 a1 =   0.30000
 a2 =   4.25000
 n  =  10.00000
 -D3 energy without 3body term =     -0.0081861633 hartrees
 ----------------------------------------------------------------
             Standard Nuclear Orientation (Angstroms)
    I     Atom           X                Y                Z
 ----------------------------------------------------------------
    1      C       0.0000000000     1.3919800000     3.5000000000
    2      C       1.2054900000     0.6959900000     3.5000000000
    3      C       1.2054900000    -0.6959900000     3.5000000000
    4      C       0.0000000000    -1.3919800000     3.5000000000
    5      C      -1.2054900000    -0.6959900000     3.5000000000
    6      C      -1.2054900000     0.6959900000     3.5000000000
    7      H       0.0000000000     2.4722300000     3.5000000000
    8      H       2.1410100000     1.2361200000     3.5000000000
    9      H       2.1410100000    -1.2361200000     3.5000000000
   10      H       0.0000000000    -2.4722300000     3.5000000000
   11      H      -2.1410100000    -1.2361200000     3.5000000000
   12      H      -2.1410100000     1.2361200000     3.5000000000
   13      GH      0.0000000000     1.3919800000     0.0000000000
   14      GH      1.2054900000     0.6959900000     0.0000000000
   15      GH      1.2054900000    -0.6959900000     0.0000000000
   16      GH      0.0000000000    -1.3919800000     0.0000000000
   17      GH     -1.2054900000    -0.6959900000     0.0000000000
   18      GH     -1.2054900000     0.6959900000     0.0000000000
   19      GH      0.0000000000     2.4722300000     0.0000000000
   20      GH      2.1410100000     1.2361200000     0.0000000000
   21      GH      2.1410100000    -1.2361200000     0.0000000000
   22      GH      0.0000000000    -2.4722300000     0.0000000000
   23      GH     -2.1410100000    -1.2361200000     0.0000000000
   24      GH     -2.1410100000     1.2361200000     0.0000000000
 ----------------------------------------------------------------
 Nuclear Repulsion Energy =   203.9449308443 hartrees
 There are       21 alpha and       21 beta electrons
 Requested basis set is 6-311++G(d,p)
 There are 132 shells and 348 basis functions

 Total QAlloc Memory Limit   4000 MB
 Mega-Array Size       392 MB
 MEM_STATIC part       400 MB
 A cutoff of  1.0D-12 yielded   7872 shell pairs
 There are     56292 function pairs (     60282 Cartesian)
 
 -------------------------------------------------------
 OpenMP Integral Computing Module                       
 Release: version 1.0, May 2013, Q-Chem Inc. Pittsburgh 
 -------------------------------------------------------
 Integral Job Info:
 Integral job number is                      11
 Integral operator is                         1
 short-range coefficients                     0
 long-range coefficients              100000000
 Omega coefficients                           0
 if combine SR and LR in K                    0
 Integral screening is                        0
 Integral computing path is                   2
 max size of driver memory is            800000
 size of driver memory is                593474
 size of scratch memory is              2361544
 max col of scratch BK array               1296
 max len of scratch array in speh3          155
 max len of scratch index in speh4           18
 max int batch size is                      520
 min int batch size is                       52
 fixed nKL is                                52
 max L of basis functions is                  2
 order of int derivative is                   0
 number of shells is                        132
 number of basis is                         360
 number of cartesian basis is               360
 number of contracted shell pairs          7872
 number of primitive shell pairs          17916
 maxK2 (contraction) of shell pair           36
 max number of K2 of shell pair               1
 max number of CS2 of shell pair           1392
 max number of PS2 of shell pair           2448
 mem total for path MDJ                   96088
 -------------------------------------------------------
 Smallest overlap matrix eigenvalue = 1.17E-07
 Linear dependence detected in AO basis
 Number of orthogonalized atomic orbitals = 346
 Maximum deviation from orthogonality = 3.512E-11

 Scale SEOQF with 1.000000e-01/1.000000e-01/1.000000e-01

 Standard Electronic Orientation quadrupole field applied
 Nucleus-field energy     =    -0.0000000494 hartrees
 Guess from superposition of atomic densities
 Warning:  Energy on first SCF cycle will be non-variational

 Q-Chem warning in module /opt/software/qchem/qchem-5.0.1/libgen/Atomic_PolEc.C, line 58:

 No atomic polarizability available.


 Q-Chem warning in module /opt/software/qchem/qchem-5.0.1/libgen/Atomic_PolEc.C, line 73:

 No atomic polarizability available.


 Q-Chem warning in module /opt/software/qchem/qchem-5.0.1/libgen/Atomic_PolEc.C, line 58:

 No atomic polarizability available.


 Q-Chem warning in module /opt/software/qchem/qchem-5.0.1/libgen/Atomic_PolEc.C, line 73:

 No atomic polarizability available.


 Q-Chem warning in module /opt/software/qchem/qchem-5.0.1/libgen/Atomic_PolEc.C, line 58:

 No atomic polarizability available.


 Q-Chem warning in module /opt/software/qchem/qchem-5.0.1/libgen/Atomic_PolEc.C, line 73:

 No atomic polarizability available.


 Q-Chem warning in module /opt/software/qchem/qchem-5.0.1/libgen/Atomic_PolEc.C, line 58:

 No atomic polarizability available.


 Q-Chem warning in module /opt/software/qchem/qchem-5.0.1/libgen/Atomic_PolEc.C, line 73:

 No atomic polarizability available.


 Q-Chem warning in module /opt/software/qchem/qchem-5.0.1/libgen/Atomic_PolEc.C, line 58:

 No atomic polarizability available.


 Q-Chem warning in module /opt/software/qchem/qchem-5.0.1/libgen/Atomic_PolEc.C, line 73:

 No atomic polarizability available.


 Q-Chem warning in module /opt/software/qchem/qchem-5.0.1/libgen/Atomic_PolEc.C, line 58:

 No atomic polarizability available.


 Q-Chem warning in module /opt/software/qchem/qchem-5.0.1/libgen/Atomic_PolEc.C, line 73:

 No atomic polarizability available.


 Q-Chem warning in module /opt/software/qchem/qchem-5.0.1/libgen/Atomic_PolEc.C, line 58:

 No atomic polarizability available.


 Q-Chem warning in module /opt/software/qchem/qchem-5.0.1/libgen/Atomic_PolEc.C, line 73:

 No atomic polarizability available.


 Q-Chem warning in module /opt/software/qchem/qchem-5.0.1/libgen/Atomic_PolEc.C, line 58:

 No atomic polarizability available.


 Q-Chem warning in module /opt/software/qchem/qchem-5.0.1/libgen/Atomic_PolEc.C, line 73:

 No atomic polarizability available.


 Q-Chem warning in module /opt/software/qchem/qchem-5.0.1/libgen/Atomic_PolEc.C, line 58:

 No atomic polarizability available.


 Q-Chem warning in module /opt/software/qchem/qchem-5.0.1/libgen/Atomic_PolEc.C, line 73:

 No atomic polarizability available.


 Q-Chem warning in module /opt/software/qchem/qchem-5.0.1/libgen/Atomic_PolEc.C, line 58:

 No atomic polarizability available.


 Q-Chem warning in module /opt/software/qchem/qchem-5.0.1/libgen/Atomic_PolEc.C, line 73:

 No atomic polarizability available.


 Q-Chem warning in module /opt/software/qchem/qchem-5.0.1/libgen/Atomic_PolEc.C, line 58:

 No atomic polarizability available.


 Q-Chem warning in module /opt/software/qchem/qchem-5.0.1/libgen/Atomic_PolEc.C, line 73:

 No atomic polarizability available.


 Q-Chem warning in module /opt/software/qchem/qchem-5.0.1/libgen/Atomic_PolEc.C, line 58:

 No atomic polarizability available.


 Q-Chem warning in module /opt/software/qchem/qchem-5.0.1/libgen/Atomic_PolEc.C, line 73:

 No atomic polarizability available.

 A restricted hybrid HF-DFT SCF calculation will be
 performed using Pulay DIIS extrapolation
 Exchange:     0.2000 Hartree-Fock + 0.0800 Slater + 0.7200 B88
 Correlation:  0.1900 VWN1RPA + 0.8100 LYP
 Using SG-1 standard quadrature grid
 Dispersion:   Grimme D3
 SCF converges when DIIS error is below 1.0E-08
 using 4 threads for integral computing
 -------------------------------------------------------
 OpenMP Integral computing Module                
 Release: version 1.0, May 2013, Q-Chem Inc. Pittsburgh 
 -------------------------------------------------------
 -------------------------------------------------------
 OpenMP BLAS3 based DFT computing Module                
 Release: version 1.0, May 2013, Q-Chem Inc. Pittsburgh 
 -------------------------------------------------------
 ---------------------------------------
  Cycle       Energy         DIIS Error
 ---------------------------------------
    1    -233.6362294255      2.44E-02
    2    -232.2001022866      2.66E-03
    3    -232.1628017787      3.11E-03
    4    -232.3194577167      2.13E-04
    5    -232.3200312532      3.01E-05
    6    -232.3200441532      2.04E-06
    7    -232.3200442273      5.00E-07
    8    -232.3200442308      1.43E-07
    9    -232.3200442311      3.29E-08
   10    -232.3200442311      6.23E-09 Convergence criterion met
 ---------------------------------------
 SCF time:  CPU 216.44 s  wall 54.30 s
 SCF   energy in the final basis set = -232.32004423
 Total energy in the final basis set = -232.32004423
 
 --------------------------------------------------------------
 
                    Orbital Energies (a.u.)
 --------------------------------------------------------------
 
 Alpha MOs
 -- Occupied --
-10.178 -10.178 -10.178 -10.177 -10.177 -10.177  -0.861  -0.752
 -0.752  -0.609  -0.609  -0.531  -0.467  -0.454  -0.428  -0.428
 -0.374  -0.351  -0.351  -0.260  -0.260
 -- Virtual --
 -0.017  -0.017  -0.008   0.009   0.009   0.022   0.032   0.032
  0.042   0.042   0.057   0.063   0.070   0.070   0.081   0.095
  0.097   0.098   0.102   0.102   0.109   0.109   0.116   0.116
  0.119   0.132   0.132   0.133   0.148   0.148   0.150   0.150
  0.160   0.160   0.168   0.168   0.169   0.172   0.176   0.195
  0.195   0.198   0.198   0.212   0.214   0.214   0.215   0.219
  0.223   0.223   0.245   0.257   0.257   0.257   0.263   0.270
  0.271   0.272   0.272   0.292   0.293   0.299   0.299   0.315
  0.331   0.331   0.339   0.360   0.365   0.365   0.370   0.370
  0.372   0.407   0.407   0.413   0.427   0.428   0.428   0.450
  0.450   0.452   0.500   0.500   0.502   0.539   0.552   0.554
  0.556   0.556   0.567   0.583   0.583   0.599   0.611   0.611
  0.629   0.630   0.659   0.666   0.666   0.682   0.682   0.705
  0.709   0.709   0.728   0.735   0.735   0.736   0.748   0.748
  0.775   0.775   0.807   0.811   0.830   0.830   0.854   0.870
  0.884   0.884   0.891   0.891   0.931   0.932   0.932   0.938
  0.938   0.976   1.012   1.043   1.043   1.099   1.104   1.104
  1.120   1.146   1.146   1.165   1.166   1.195   1.201   1.201
  1.297   1.349   1.395   1.420   1.422   1.422   1.474   1.506
  1.516   1.516   1.528   1.528   1.553   1.573   1.573   1.603
  1.603   1.617   1.664   1.664   1.689   1.689   1.715   1.715
  1.737   1.748   1.748   1.770   1.775   1.775   1.800   1.800
  1.807   1.808   1.853   1.860   1.860   1.893   1.893   1.915
  1.944   1.944   1.958   1.958   1.972   1.972   2.001   2.001
  2.026   2.028   2.028   2.050   2.050   2.057   2.057   2.091
  2.091   2.223   2.240   2.287   2.299   2.312   2.335   2.348
  2.366   2.366   2.396   2.396   2.434   2.434   2.445   2.469
  2.478   2.478   2.509   2.509   2.551   2.561   2.561   2.586
  2.586   2.638   2.638   2.682   2.717   2.766   2.770   2.773
  2.773   2.784   2.784   2.802   2.851   2.851   2.900   2.900
  2.918   2.931   2.931   2.970   2.970   2.986   2.986   3.001
  3.001   3.004   3.109   3.113   3.208   3.208   3.310   3.310
  3.363   3.371   3.423   3.423   3.456   3.513   3.513   3.516
  3.538   3.550   3.550   3.599   3.599   3.601   3.700   3.735
  3.735   3.973   4.011   4.011   4.030   4.030   4.102   4.165
  4.165   4.555   4.847   4.858   4.881   4.881   5.106   5.106
  5.592   7.074   7.142   7.142   7.213   7.213   7.360   7.675
  7.761   7.761   7.770   7.813   7.814   7.955   7.955   7.965
  7.965   8.278   8.883   9.615  10.194  10.195  10.255  10.256
 10.325  23.617  23.994  23.994  24.105  24.105  24.216  69.699
 69.948  69.954  69.976  69.983  70.028
 --------------------------------------------------------------
 
          Ground-State Mulliken Net Atomic Charges

     Atom                 Charge (a.u.)
  ----------------------------------------
      1 C                    -0.176140
      2 C                    -0.173446
      3 C                    -0.173446
      4 C                    -0.176140
      5 C                    -0.173446
      6 C                    -0.173446
      7 H                     0.159015
      8 H                     0.158875
      9 H                     0.158875
     10 H                     0.159015
     11 H                     0.158875
     12 H                     0.158875
     13 GH                    0.009643
     14 GH                    0.012157
     15 GH                    0.012157
     16 GH                    0.009643
     17 GH                    0.012157
     18 GH                    0.012157
     19 GH                    0.004059
     20 GH                    0.004124
     21 GH                    0.004124
     22 GH                    0.004059
     23 GH                    0.004124
     24 GH                    0.004124
  ----------------------------------------
  Sum of atomic charges =     0.000000

 -----------------------------------------------------------------
                    Cartesian Multipole Moments
 -----------------------------------------------------------------
    Charge (ESU x 10^10)
                 0.0000
    Dipole Moment (Debye)
         X       0.0000      Y       0.0000      Z       0.0086
       Tot       0.0086
    Quadrupole Moments (Debye-Ang)
        XX     -32.2466     XY      -0.0000     YY     -32.2510
        XZ       0.0000     YZ       0.0000     ZZ     -40.0970
    Octopole Moments (Debye-Ang^2)
       XXX       0.0000    XXY       0.0000    XYY       0.0000
       YYY       0.0000    XXZ    -112.8503    XYZ      -0.0000
       YYZ    -112.8649    XZZ      -0.0000    YZZ       0.0000
       ZZZ    -421.2725
    Hexadecapole Moments (Debye-Ang^3)
      XXXX    -276.1955   XXXY      -0.0000   XXYY     -92.0707
      XYYY      -0.0000   YYYY    -276.2231   XXXZ       0.0000
      XXYZ       0.0000   XYYZ       0.0000   YYYZ       0.0000
      XXZZ    -460.0035   XYZZ       0.0000   YYZZ    -460.0645
      XZZZ      -0.0000   YZZZ      -0.0000   ZZZZ   -2999.1588
 -----------------------------------------------------------------
Archival summary:
1\1\vega02.cac.cornell.edu\SP\ProcedureUnspecified\BasisUnspecified\66h12\jj585\WedApr1816:07:382018WedApr1816:07:382018\0\\#,ProcedureUnspecified,BasisUnspecified,\\0,1\C\H,1,1.08025\C,1,1.39198,2,120\H,3,1.08025,1,120,2,-0,0\C,1,1.39198,2,120,3,-180,0\H,5,1.08025,1,120,2,-0,0\C,3,1.39198,1,120,2,-180,0\H,7,1.08025,3,120,1,-180,0\C,7,1.39198,3,120,1,-0,0\H,9,1.08025,7,120,3,-180,0\C,9,1.39198,7,120,3,-0,0\H,11,1.08025,9,120,7,-180,0\Gh,4,3.5,3,90,1,90,0\Gh,13,1.08025,4,90,3,-0,0\Gh,14,1.39198,13,120,4,-90,0\Gh,15,1.08025,14,120,13,-0,0\Gh,15,1.39198,14,120,13,-180,0\Gh,17,1.08025,15,120,14,-180,0\Gh,14,1.39198,13,120,4,90,0\Gh,19,1.08025,14,120,13,-0,0\Gh,19,1.39198,14,120,13,-180,0\Gh,21,1.08025,19,120,14,-180,0\Gh,21,1.39198,19,120,14,-0,0\Gh,23,1.08025,21,120,19,-180,0\\\@

 Total job time:  55.00s(wall), 218.37s(cpu) 
 Wed Apr 18 16:07:38 2018

        *************************************************************
        *                                                           *
        *  Thank you very much for using Q-Chem.  Have a nice day.  *
        *                                                           *
        *************************************************************


0 sent ACK to 0 
now end server 0 ... 
