mFile = /opt/software/qchem/qchem-5.0.1//bin/mpi/machines
Process 0 of 1 is on vega02.cac.cornell.edu - thread support 0
initial socket setup ...start
initial socket setup ...done 
now start server 0 ... 
vega02.cac.cornell.edu 10.84.3
Q-Chem Developer Version! Running on 10.84.3.*
                  Welcome to Q-Chem
     A Quantum Leap Into The Future Of Chemistry


 Q-Chem 5.0, Q-Chem, Inc., Pleasanton, CA (2017)

 Yihan Shao,  Zhengting Gan,  E. Epifanovsky,  A. T. B. Gilbert,  M. Wormit,  
 J. Kussmann,  A. W. Lange,  A. Behn,  Jia Deng,  Xintian Feng,  D. Ghosh,  
 M. Goldey,  P. R. Horn,  L. D. Jacobson,  I. Kaliman,  T. Kus,  A. Landau,  
 Jie Liu,  E. I. Proynov,  R. M. Richard,  R. P. Steele,  E. J. Sundstrom,  
 H. L. Woodcock III,  P. M. Zimmerman,  D. Zuev,  B. Albrecht,  E. Alguire,  
 S. A. Baeppler,  Z. Benda,  Y. A. Bernard,  E. J. Berquist,  K. B. Bravaya,  
 D. Casanova,  Chun-Min Chang,  Yunqing Chen,  A. Chien,  K. D. Closser,  
 M. P. Coons,  S. Dasgupta,  M. Diedenhofen,  Hainam Do,  R. G. Edgar,  
 Po-Tung Fang,  S. Fatehi,  Qingguo Feng,  Qinghui Ge,  A. Ghysels,  
 J. Gomes,  J. Gonthier,  A. Gunina,  M. W. D. Hanson-Heine,  
 P. H. P. Harbach,  A. W. Hauser,  J. E. Herr,  E. G. Hohenstein,  
 Z. C. Holden,  Kerwin Hui,  T.-C. Jagau,  Hyunjun Ji,  B. Kaduk,  
 K. Khistyaev,  Jaehoon Kim,  P. Klunzinger,  K. Koh,  D. Kosenkov,  
 T. Kowalczyk,  C. M. Krauter,  A. Kunitsa,  Ka Un Lao,  A. Laurent,  
 K. V. Lawler,  Joonho Lee,  D. Lefrancois,  S. Lehtola,  D. S. Levine,  
 Yi-Pei Li,  You-Sheng Lin,  Fenglai Liu,  E. Livshits,  A. Luenser,  
 P. Manohar,  E. Mansoor,  S. F. Manzer,  Shan-Ping Mao,  Yuezhi Mao,  
 N. Mardirossian,  A. V. Marenich,  L. A. Martinez-Martinez,  S. A. Maurer,  
 N. J. Mayhall,  S. C. McKenzie,  J.-M. Mewes,  A. F. Morrison,  K. Nanda,  
 T. S. Nguyen-Beck,  R. Olivares-Amaya,  J. A. Parkhill,  T. M. Perrine,  
 F. Plasser,  S. Prager,  A. Prociuk,  D. R. Rehn,  F. Rob,  M. Schneider,  
 N. Sergueev,  S. M. Sharada,  S. Sharma,  D. W. Small,  T. Stauch,  
 T. Stein,  Yu-Chuan Su,  A. J. W. Thom,  T. Tsuchimochi,  L. Vogt,  
 O. Vydrov,  M. A. Watson,  J. Wenzel,  M. de Wergifosse,  T. A. Wesolowski,  
 A. White,  J. Witte,  A. Yamada,  Jun Yang,  K. Yao,  S. Yeganeh,  
 S. R. Yost,  Zhi-Qiang You,  A. Zech,  Igor Ying Zhang,  Xing Zhang,  
 Yan Zhao,  Ying Zhu,  B. R. Brooks,  G. K. L. Chan,  C. J. Cramer,  
 M. S. Gordon,  W. J. Hehre,  A. Klamt,  M. W. Schmidt,  C. D. Sherrill,  
 D. G. Truhlar,  A. Aspuru-Guzik,  R. Baer,  A. T. Bell,  N. A. Besley,  
 Jeng-Da Chai,  A. Dreuw,  B. D. Dunietz,  T. R. Furlani,  Chao-Ping Hsu,  
 Yousung Jung,  Jing Kong,  D. S. Lambrecht,  WanZhen Liang,  C. Ochsenfeld,  
 V. A. Rassolov,  L. V. Slipchenko,  J. E. Subotnik,  T. Van Voorhis,  
 J. M. Herbert,  A. I. Krylov,  P. M. W. Gill,  M. Head-Gordon

 Contributors to earlier versions of Q-Chem not listed above: 
 R. D. Adamson,  B. Austin,  J. Baker,  G. J. O. Beran,  K. Brandhorst,  
 S. T. Brown,  E. F. C. Byrd,  A. K. Chakraborty,  C.-L. Cheng,  
 Siu Hung Chien,  D. M. Chipman,  D. L. Crittenden,  H. Dachsel,  
 R. A. DiStasio Jr.,  R. J. Doerksen,  A. D. Dutoi,  L. Fusti-Molnar,  
 W. A. Goddard III,  A. Golubeva-Zadorozhnaya,  S. R. Gwaltney,  G. Hawkins,  
 A. Heyden,  S. Hirata,  G. Kedziora,  F. J. Keil,  C. Kelley,  Jihan Kim,  
 R. A. King,  R. Z. Khaliullin,  P. P. Korambath,  W. Kurlancheek,  
 A. M. Lee,  M. S. Lee,  S. V. Levchenko,  Ching Yeh Lin,  D. Liotard,  
 R. C. Lochan,  I. Lotan,  P. E. Maslen,  N. Nair,  D. P. O'Neill,  
 D. Neuhauser,  E. Neuscamman,  C. M. Oana,  R. Olson,  B. Peters,  
 R. Peverati,  P. A. Pieniazek,  Y. M. Rhee,  J. Ritchie,  M. A. Rohrdanz,  
 E. Rosta,  N. J. Russ,  H. F. Schaefer III,  N. E. Schultz,  N. Shenvi,  
 A. C. Simmonett,  A. Sodt,  D. Stuck,  K. S. Thanthiriwatte,  V. Vanovschi,  
 Tao Wang,  A. Warshel,  C. F. Williams,  Q. Wu,  X. Xu,  W. Zhang

 Please cite Q-Chem as follows:
 Y. Shao et al., Mol. Phys. 113, 184-215 (2015)
 DOI: 10.1080/00268976.2014.952696

 Q-Chem 5.0.1 for Intel X86 EM64T Linux

 Parts of Q-Chem use Armadillo 5.200.1 (Boston Tea Smuggler).
 http://arma.sourceforge.net/

 Q-Chem begins on Wed Apr 18 16:07:41 2018  

Host: vega02.cac.cornell.edu
0

     Scratch files written to /scratch/jj585/vdw/benzene_distance_3.500_11.save//
 Parallel job on  1  processors

Checking the input file for inconsistencies... 	...done.

--------------------------------------------------------------
User input:
--------------------------------------------------------------
$molecule
0  1
--
0  1
C        +0.00000000        +1.39198000        +0.00000000
C        +1.20549000        +0.69599000        +0.00000000
C        +1.20549000        -0.69599000        +0.00000000
C        +0.00000000        -1.39198000        +0.00000000
C        -1.20549000        -0.69599000        +0.00000000
C        -1.20549000        +0.69599000        +0.00000000
H        +0.00000000        +2.47223000        +0.00000000
H        +2.14101000        +1.23612000        +0.00000000
H        +2.14101000        -1.23612000        +0.00000000
H        +0.00000000        -2.47223000        +0.00000000
H        -2.14101000        -1.23612000        +0.00000000
H        -2.14101000        +1.23612000        +0.00000000
--
0  1
C        +0.00000000        +1.39198000        +3.50000000
C        +1.20549000        +0.69599000        +3.50000000
C        +1.20549000        -0.69599000        +3.50000000
C        +0.00000000        -1.39198000        +3.50000000
C        -1.20549000        -0.69599000        +3.50000000
C        -1.20549000        +0.69599000        +3.50000000
H        +0.00000000        +2.47223000        +3.50000000
H        +2.14101000        +1.23612000        +3.50000000
H        +2.14101000        -1.23612000        +3.50000000
H        +0.00000000        -2.47223000        +3.50000000
H        -2.14101000        -1.23612000        +3.50000000
H        -2.14101000        +1.23612000        +3.50000000
$end

$rem
JOBTYPE                   SP
METHOD                    B3LYP
DFT_D                     d3_op
BASIS                     6-311++G(d,p)
SYMMETRY                  False
THRESH                    12
SCF_CONVERGENCE           8
MAX_SUB_FILE_NUM          128
MEM_STATIC                400
MEM_TOTAL                 4000
$end
--------------------------------------------------------------
 Adding empirical dispersion correction 
 ----------------------------------------------------------------
 Doing -D3(op) with
 s6 =   1.00000
 s8 =   0.78311
 a1 =   0.30000
 a2 =   4.25000
 n  =  10.00000
 -D3 energy without 3body term =     -0.0268121075 hartrees
 ----------------------------------------------------------------
             Standard Nuclear Orientation (Angstroms)
    I     Atom           X                Y                Z
 ----------------------------------------------------------------
    1      C      -1.7500000000     1.3919800000     0.0000000000
    2      C      -1.7500000000     0.6959900000    -1.2054900000
    3      C      -1.7500000000    -0.6959900000    -1.2054900000
    4      C      -1.7500000000    -1.3919800000     0.0000000000
    5      C      -1.7500000000    -0.6959900000     1.2054900000
    6      C      -1.7500000000     0.6959900000     1.2054900000
    7      H      -1.7500000000     2.4722300000     0.0000000000
    8      H      -1.7500000000     1.2361200000    -2.1410100000
    9      H      -1.7500000000    -1.2361200000    -2.1410100000
   10      H      -1.7500000000    -2.4722300000     0.0000000000
   11      H      -1.7500000000    -1.2361200000     2.1410100000
   12      H      -1.7500000000     1.2361200000     2.1410100000
   13      C       1.7500000000     1.3919800000    -0.0000000000
   14      C       1.7500000000     0.6959900000    -1.2054900000
   15      C       1.7500000000    -0.6959900000    -1.2054900000
   16      C       1.7500000000    -1.3919800000    -0.0000000000
   17      C       1.7500000000    -0.6959900000     1.2054900000
   18      C       1.7500000000     0.6959900000     1.2054900000
   19      H       1.7500000000     2.4722300000    -0.0000000000
   20      H       1.7500000000     1.2361200000    -2.1410100000
   21      H       1.7500000000    -1.2361200000    -2.1410100000
   22      H       1.7500000000    -2.4722300000     0.0000000000
   23      H       1.7500000000    -1.2361200000     2.1410100000
   24      H       1.7500000000     1.2361200000     2.1410100000
 ----------------------------------------------------------------
 Molecular Point Group                 D2h   NOp =  8
 Largest Abelian Subgroup              D2h   NOp =  8
 Nuclear Repulsion Energy =   636.5458050895 hartrees
 There are       42 alpha and       42 beta electrons
 Requested basis set is 6-311++G(d,p)
 There are 132 shells and 348 basis functions

 Total QAlloc Memory Limit   4000 MB
 Mega-Array Size       392 MB
 MEM_STATIC part       400 MB
 A cutoff of  1.0D-12 yielded   7872 shell pairs
 There are     56292 function pairs (     60282 Cartesian)
 
 -------------------------------------------------------
 OpenMP Integral Computing Module                       
 Release: version 1.0, May 2013, Q-Chem Inc. Pittsburgh 
 -------------------------------------------------------
 Integral Job Info:
 Integral job number is                      11
 Integral operator is                         1
 short-range coefficients                     0
 long-range coefficients              100000000
 Omega coefficients                           0
 if combine SR and LR in K                    0
 Integral screening is                        0
 Integral computing path is                   2
 max size of driver memory is            800000
 size of driver memory is                593474
 size of scratch memory is              2361544
 max col of scratch BK array               1296
 max len of scratch array in speh3          155
 max len of scratch index in speh4           18
 max int batch size is                      520
 min int batch size is                       52
 fixed nKL is                                52
 max L of basis functions is                  2
 order of int derivative is                   0
 number of shells is                        132
 number of basis is                         360
 number of cartesian basis is               360
 number of contracted shell pairs          7872
 number of primitive shell pairs          17916
 maxK2 (contraction) of shell pair           36
 max number of K2 of shell pair               1
 max number of CS2 of shell pair           1392
 max number of PS2 of shell pair           2448
 mem total for path MDJ                   96088
 -------------------------------------------------------
 Smallest overlap matrix eigenvalue = 1.17E-07
 Linear dependence detected in AO basis
 Number of orthogonalized atomic orbitals = 346
 Maximum deviation from orthogonality = 3.744E-11

 Scale SEOQF with 1.000000e-01/1.000000e-01/1.000000e-01

 Standard Electronic Orientation quadrupole field applied
 Nucleus-field energy     =     0.0000000054 hartrees
 Guess from superposition of atomic densities
 Warning:  Energy on first SCF cycle will be non-variational
 A restricted hybrid HF-DFT SCF calculation will be
 performed using Pulay DIIS extrapolation
 Exchange:     0.2000 Hartree-Fock + 0.0800 Slater + 0.7200 B88
 Correlation:  0.1900 VWN1RPA + 0.8100 LYP
 Using SG-1 standard quadrature grid
 Dispersion:   Grimme D3
 SCF converges when DIIS error is below 1.0E-08
 using 4 threads for integral computing
 -------------------------------------------------------
 OpenMP Integral computing Module                
 Release: version 1.0, May 2013, Q-Chem Inc. Pittsburgh 
 -------------------------------------------------------
 -------------------------------------------------------
 OpenMP BLAS3 based DFT computing Module                
 Release: version 1.0, May 2013, Q-Chem Inc. Pittsburgh 
 -------------------------------------------------------
 ---------------------------------------
  Cycle       Energy         DIIS Error
 ---------------------------------------
    1    -467.2952214897      3.46E-02
    2    -464.3953641532      3.82E-03
    3    -464.2923313123      4.66E-03
    4    -464.6388149147      3.68E-04
    5    -464.6405149796      7.51E-05
    6    -464.6405856690      2.81E-05
    7    -464.6405972599      1.82E-06
    8    -464.6405973174      1.52E-07
    9    -464.6405973177      5.25E-08
   10    -464.6405973177      1.23E-08
   11    -464.6405973177      2.74E-10 Convergence criterion met
 ---------------------------------------
 SCF time:  CPU 288.95 s  wall 72.52 s
 SCF   energy in the final basis set = -464.64059732
 Total energy in the final basis set = -464.64059732
 
 --------------------------------------------------------------
             Orbital Energies (a.u.) and Symmetries
 --------------------------------------------------------------
 
 Alpha MOs, Restricted
 -- Occupied --                  
-10.171 -10.171 -10.171 -10.171 -10.171 -10.171 -10.171 -10.171
  1 Ag    1 B3u   1 B1g   1 B2u   1 B2g   1 B1u   2 B3u   2 Ag                 
-10.171 -10.171 -10.170 -10.170  -0.856  -0.853  -0.748  -0.748
  1 Au    1 B3g   2 B1g   2 B2u   3 Ag    3 B3u   2 B1u   3 B2u                
 -0.744  -0.744  -0.605  -0.605  -0.602  -0.602  -0.527  -0.524
  2 B2g   3 B1g   2 B3g   4 Ag    2 Au    4 B3u   5 Ag    5 B3u                
 -0.463  -0.460  -0.448  -0.447  -0.424  -0.424  -0.421  -0.421
  4 B2u   4 B1g   3 B1u   3 B2g   4 B1u   5 B2u   4 B2g   5 B1g                
 -0.382  -0.351  -0.346  -0.346  -0.344  -0.344  -0.268  -0.268
  6 Ag    6 B3u   3 B3g   7 Ag    3 Au    7 B3u   6 B2u   5 B1u                
 -0.239  -0.239
  6 B1g   5 B2g                                                                
 -- Virtual --                   
 -0.026  -0.026  -0.012   0.004   0.004   0.005   0.005   0.011
  4 B3g   8 Ag    9 Ag    7 B2u   6 B1u   4 Au    8 B3u   9 B3u                
  0.025   0.025   0.029   0.029   0.055   0.055   0.055   0.061
  5 B3g  10 Ag    7 B1g   6 B2g   8 B2u   5 Au   10 B3u  11 Ag                 
  0.075   0.081   0.088   0.098   0.099   0.108   0.109   0.110
 11 B3u   8 B1g   7 B1u   9 B2u   8 B1u  12 Ag    6 B3g  13 Ag                 
  0.113   0.113   0.118   0.121   0.125   0.126   0.126   0.135
 10 B2u   9 B1u  11 B2u   7 B2g   9 B1g   8 B2g  12 B3u  10 B1g                
  0.135   0.137   0.137   0.145   0.145   0.150   0.153   0.154
  9 B2g   6 Au   13 B3u   7 B3g  14 Ag   15 Ag    8 B3g  16 Ag                 
  0.159   0.168   0.168   0.169   0.179   0.184   0.184   0.189
 11 B1g   7 Au   14 B3u  12 B2u  12 B1g  10 B1u  13 B2u   8 Au                 
  0.190   0.203   0.203   0.211   0.220   0.221   0.228   0.245
 15 B3u  14 B2u  11 B1u  15 B2u  10 B2g  13 B1g  16 B3u  14 B1g                
  0.254   0.254   0.257   0.266   0.267   0.283   0.283   0.284
 17 Ag    9 B3g  17 B3u  10 B3g  18 Ag   15 B1g  11 B2g   9 Au                 
  0.284   0.288   0.288   0.291   0.300   0.300   0.316   0.317
 18 B3u  16 B2u  12 B1u  10 Au   11 B3g  19 Ag   16 B1g  12 B2g                
  0.332   0.342   0.342   0.346   0.361   0.361   0.368   0.368
 17 B2u  19 B3u  11 Au   17 B1g  20 Ag   12 B3g  18 B2u  13 B1u                
  0.375   0.375   0.395   0.395   0.445   0.472   0.479   0.497
 13 B2g  18 B1g  12 Au   20 B3u  14 B1u  14 B2g  21 Ag   22 Ag                 
  0.503   0.538   0.539   0.539   0.552   0.561   0.579   0.582
 21 B3u  19 B2u  20 B2u  15 B1u  13 B3g  13 Au   19 B1g  21 B2u                
  0.582   0.588   0.588   0.609   0.609   0.623   0.659   0.659
 16 B1u  14 B3g  23 Ag   15 B3g  24 Ag   22 B2u  20 B1g  15 B2g                
  0.674   0.675   0.697   0.701   0.701   0.706   0.706   0.713
 14 Au   22 B3u  25 Ag   15 Au   23 B3u  21 B1g  16 B2g  16 B3g                
  0.713   0.722   0.723   0.731   0.732   0.744   0.750   0.753
 26 Ag   22 B1g  24 B3u  23 B2u  17 B1u  24 B2u  25 B3u  23 B1g                
  0.753   0.766   0.766   0.804   0.811   0.811   0.820   0.827
 17 B2g  16 Au   26 B3u  27 B3u  25 B2u  18 B1u  26 B2u  24 B1g                
  0.848   0.869   0.869   0.869   0.889   0.891   0.891   0.927
 27 Ag   17 B3g  18 B3g  28 Ag   17 Au   25 B1g  18 B2g  27 B2u                
  0.927   0.954   0.954   0.962   0.962   0.964   0.983   0.983
 19 B1u  18 Au   28 B3u  19 B3g  29 Ag   26 B1g  27 B1g  19 B2g                
  0.987   0.988   1.018   1.019   1.104   1.104   1.107   1.107
 30 Ag   29 B3u  20 B1u  20 B2g  19 Au   30 B3u  28 B2u  21 B1u                
  1.150   1.150   1.165   1.165   1.181   1.181   1.254   1.317
 20 B3g  31 Ag   28 B1g  21 B2g  20 Au   31 B3u  29 B2u  32 B3u                
  1.349   1.431   1.432   1.501   1.509   1.509   1.520   1.542
 32 Ag   22 B1u  29 B1g  22 B2g  23 B1u  30 B2u  33 Ag   31 B2u                
  1.547   1.547   1.557   1.557   1.565   1.648   1.648   1.650
 21 B3g  34 Ag   23 B2g  30 B1g  33 B3u  32 B2u  24 B1u  22 B3g                
  1.650   1.700   1.700   1.713   1.715   1.715   1.738   1.738
 35 Ag   21 Au   34 B3u  36 Ag   22 Au   35 B3u  31 B1g  24 B2g                
  1.746   1.786   1.786   1.790   1.812   1.812   1.814   1.814
 32 B1g  25 B1u  33 B2u  36 B3u  25 B2g  33 B1g  23 B3g  37 Ag                 
  1.851   1.868   1.903   1.904   1.911   1.911   1.930   1.940
 26 B1u  26 B2g  23 Au   37 B3u  34 B2u  27 B1u  24 B3g  35 B2u                
  1.940   1.955   1.955   1.995   2.000   2.036   2.036   2.063
 28 B1u  34 B1g  27 B2g  36 B2u  24 Au   25 B3g  38 Ag   35 B1g                
  2.063   2.069   2.069   2.081   2.095   2.095   2.100   2.100
 28 B2g  25 Au   38 B3u  36 B1g  26 B3g  39 Ag   26 Au   39 B3u                
  2.331   2.345   2.353   2.354   2.417   2.417   2.442   2.462
 37 B1g  37 B2u  27 B3g  27 Au   28 B3g  40 Ag   41 Ag   29 B1u                
  2.462   2.484   2.484   2.500   2.507   2.507   2.605   2.634
 38 B2u  28 Au   40 B3u  41 B3u  29 B2g  38 B1g  39 B2u  40 B2u                
  2.634   2.646   2.646   2.646   2.670   2.694   2.720   2.720
 30 B1u  42 Ag   39 B1g  30 B2g  43 Ag   41 B2u  42 B2u  31 B1u                
  2.724   2.724   2.748   2.776   2.812   2.812   2.812   2.812
 29 B3g  44 Ag   40 B1g  42 B3u  43 B2u  32 B1u  41 B1g  31 B2g                
  2.846   2.846   2.864   2.916   2.916   2.917   2.922   2.934
 29 Au   43 B3u  44 B3u  45 Ag   30 B3g  31 B3g  42 B1g  30 Au                 
  2.956   2.956   2.964   2.964   2.967   2.967   3.004   3.004
 43 B1g  32 B2g  32 B3g  46 Ag   31 Au   45 B3u  32 Au   46 B3u                
  3.101   3.107   3.130   3.213   3.323   3.323   3.471   3.471
 44 B2u  33 B1u  33 B2g  44 B1g  33 B3g  47 Ag   33 Au   47 B3u                
  3.471   3.471   3.515   3.573   3.589   3.589   3.695   3.721
 45 B2u  34 B1u  48 Ag   48 B3u  45 B1g  34 B2g  46 B2u  46 B1g                
  4.005   4.005   4.028   4.028   4.083   4.124   4.169   4.169
 34 B3g  49 Ag   34 Au   49 B3u  47 B2u  47 B1g  48 B2u  35 B1u                
  4.173   4.173   4.852   4.856  23.605  23.642  23.994  23.994
 48 B1g  35 B2g  35 B3g  35 Au   50 B3u  50 Ag   49 B2u  36 B1u                
 24.006  24.006  24.109  24.109  24.114  24.114  24.208  24.238
 49 B1g  36 B2g  51 Ag   36 B3g  51 B3u  36 Au   50 B2u  50 B1g                
 
 Beta MOs, Restricted
 -- Occupied --                  
-10.171 -10.171 -10.171 -10.171 -10.171 -10.171 -10.171 -10.171
  1 Ag    1 B3u   1 B1g   1 B2u   1 B2g   1 B1u   2 B3u   2 Ag                 
-10.171 -10.171 -10.170 -10.170  -0.856  -0.853  -0.748  -0.748
  1 Au    1 B3g   2 B1g   2 B2u   3 Ag    3 B3u   2 B1u   3 B2u                
 -0.744  -0.744  -0.605  -0.605  -0.602  -0.602  -0.527  -0.524
  2 B2g   3 B1g   2 B3g   4 Ag    2 Au    4 B3u   5 Ag    5 B3u                
 -0.463  -0.460  -0.448  -0.447  -0.424  -0.424  -0.421  -0.421
  4 B2u   4 B1g   3 B1u   3 B2g   4 B1u   5 B2u   4 B2g   5 B1g                
 -0.382  -0.351  -0.346  -0.346  -0.344  -0.344  -0.268  -0.268
  6 Ag    6 B3u   3 B3g   7 Ag    3 Au    7 B3u   6 B2u   5 B1u                
 -0.239  -0.239
  6 B1g   5 B2g                                                                
 -- Virtual --                   
 -0.026  -0.026  -0.012   0.004   0.004   0.005   0.005   0.011
  4 B3g   8 Ag    9 Ag    7 B2u   6 B1u   4 Au    8 B3u   9 B3u                
  0.025   0.025   0.029   0.029   0.055   0.055   0.055   0.061
  5 B3g  10 Ag    7 B1g   6 B2g   8 B2u   5 Au   10 B3u  11 Ag                 
  0.075   0.081   0.088   0.098   0.099   0.108   0.109   0.110
 11 B3u   8 B1g   7 B1u   9 B2u   8 B1u  12 Ag    6 B3g  13 Ag                 
  0.113   0.113   0.118   0.121   0.125   0.126   0.126   0.135
 10 B2u   9 B1u  11 B2u   7 B2g   9 B1g   8 B2g  12 B3u  10 B1g                
  0.135   0.137   0.137   0.145   0.145   0.150   0.153   0.154
  9 B2g   6 Au   13 B3u   7 B3g  14 Ag   15 Ag    8 B3g  16 Ag                 
  0.159   0.168   0.168   0.169   0.179   0.184   0.184   0.189
 11 B1g   7 Au   14 B3u  12 B2u  12 B1g  10 B1u  13 B2u   8 Au                 
  0.190   0.203   0.203   0.211   0.220   0.221   0.228   0.245
 15 B3u  14 B2u  11 B1u  15 B2u  10 B2g  13 B1g  16 B3u  14 B1g                
  0.254   0.254   0.257   0.266   0.267   0.283   0.283   0.284
 17 Ag    9 B3g  17 B3u  10 B3g  18 Ag   15 B1g  11 B2g   9 Au                 
  0.284   0.288   0.288   0.291   0.300   0.300   0.316   0.317
 18 B3u  16 B2u  12 B1u  10 Au   11 B3g  19 Ag   16 B1g  12 B2g                
  0.332   0.342   0.342   0.346   0.361   0.361   0.368   0.368
 17 B2u  19 B3u  11 Au   17 B1g  20 Ag   12 B3g  18 B2u  13 B1u                
  0.375   0.375   0.395   0.395   0.445   0.472   0.479   0.497
 13 B2g  18 B1g  12 Au   20 B3u  14 B1u  14 B2g  21 Ag   22 Ag                 
  0.503   0.538   0.539   0.539   0.552   0.561   0.579   0.582
 21 B3u  19 B2u  20 B2u  15 B1u  13 B3g  13 Au   19 B1g  21 B2u                
  0.582   0.588   0.588   0.609   0.609   0.623   0.659   0.659
 16 B1u  14 B3g  23 Ag   15 B3g  24 Ag   22 B2u  20 B1g  15 B2g                
  0.674   0.675   0.697   0.701   0.701   0.706   0.706   0.713
 14 Au   22 B3u  25 Ag   15 Au   23 B3u  21 B1g  16 B2g  16 B3g                
  0.713   0.722   0.723   0.731   0.732   0.744   0.750   0.753
 26 Ag   22 B1g  24 B3u  23 B2u  17 B1u  24 B2u  25 B3u  23 B1g                
  0.753   0.766   0.766   0.804   0.811   0.811   0.820   0.827
 17 B2g  16 Au   26 B3u  27 B3u  25 B2u  18 B1u  26 B2u  24 B1g                
  0.848   0.869   0.869   0.869   0.889   0.891   0.891   0.927
 27 Ag   17 B3g  18 B3g  28 Ag   17 Au   25 B1g  18 B2g  27 B2u                
  0.927   0.954   0.954   0.962   0.962   0.964   0.983   0.983
 19 B1u  18 Au   28 B3u  19 B3g  29 Ag   26 B1g  27 B1g  19 B2g                
  0.987   0.988   1.018   1.019   1.104   1.104   1.107   1.107
 30 Ag   29 B3u  20 B1u  20 B2g  19 Au   30 B3u  28 B2u  21 B1u                
  1.150   1.150   1.165   1.165   1.181   1.181   1.254   1.317
 20 B3g  31 Ag   28 B1g  21 B2g  20 Au   31 B3u  29 B2u  32 B3u                
  1.349   1.431   1.432   1.501   1.509   1.509   1.520   1.542
 32 Ag   22 B1u  29 B1g  22 B2g  23 B1u  30 B2u  33 Ag   31 B2u                
  1.547   1.547   1.557   1.557   1.565   1.648   1.648   1.650
 21 B3g  34 Ag   23 B2g  30 B1g  33 B3u  32 B2u  24 B1u  22 B3g                
  1.650   1.700   1.700   1.713   1.715   1.715   1.738   1.738
 35 Ag   21 Au   34 B3u  36 Ag   22 Au   35 B3u  31 B1g  24 B2g                
  1.746   1.786   1.786   1.790   1.812   1.812   1.814   1.814
 32 B1g  25 B1u  33 B2u  36 B3u  25 B2g  33 B1g  23 B3g  37 Ag                 
  1.851   1.868   1.903   1.904   1.911   1.911   1.930   1.940
 26 B1u  26 B2g  23 Au   37 B3u  34 B2u  27 B1u  24 B3g  35 B2u                
  1.940   1.955   1.955   1.995   2.000   2.036   2.036   2.063
 28 B1u  34 B1g  27 B2g  36 B2u  24 Au   25 B3g  38 Ag   35 B1g                
  2.063   2.069   2.069   2.081   2.095   2.095   2.100   2.100
 28 B2g  25 Au   38 B3u  36 B1g  26 B3g  39 Ag   26 Au   39 B3u                
  2.331   2.345   2.353   2.354   2.417   2.417   2.442   2.462
 37 B1g  37 B2u  27 B3g  27 Au   28 B3g  40 Ag   41 Ag   29 B1u                
  2.462   2.484   2.484   2.500   2.507   2.507   2.605   2.634
 38 B2u  28 Au   40 B3u  41 B3u  29 B2g  38 B1g  39 B2u  40 B2u                
  2.634   2.646   2.646   2.646   2.670   2.694   2.720   2.720
 30 B1u  42 Ag   39 B1g  30 B2g  43 Ag   41 B2u  42 B2u  31 B1u                
  2.724   2.724   2.748   2.776   2.812   2.812   2.812   2.812
 29 B3g  44 Ag   40 B1g  42 B3u  43 B2u  32 B1u  41 B1g  31 B2g                
  2.846   2.846   2.864   2.916   2.916   2.917   2.922   2.934
 29 Au   43 B3u  44 B3u  45 Ag   30 B3g  31 B3g  42 B1g  30 Au                 
  2.956   2.956   2.964   2.964   2.967   2.967   3.004   3.004
 43 B1g  32 B2g  32 B3g  46 Ag   31 Au   45 B3u  32 Au   46 B3u                
  3.101   3.107   3.130   3.213   3.323   3.323   3.471   3.471
 44 B2u  33 B1u  33 B2g  44 B1g  33 B3g  47 Ag   33 Au   47 B3u                
  3.471   3.471   3.515   3.573   3.589   3.589   3.695   3.721
 45 B2u  34 B1u  48 Ag   48 B3u  45 B1g  34 B2g  46 B2u  46 B1g                
  4.005   4.005   4.028   4.028   4.083   4.124   4.169   4.169
 34 B3g  49 Ag   34 Au   49 B3u  47 B2u  47 B1g  48 B2u  35 B1u                
  4.173   4.173   4.852   4.856  23.605  23.642  23.994  23.994
 48 B1g  35 B2g  35 B3g  35 Au   50 B3u  50 Ag   49 B2u  36 B1u                
 24.006  24.006  24.109  24.109  24.114  24.114  24.208  24.238
 49 B1g  36 B2g  51 Ag   36 B3g  51 B3u  36 Au   50 B2u  50 B1g                
 --------------------------------------------------------------
 
          Ground-State Mulliken Net Atomic Charges

     Atom                 Charge (a.u.)
  ----------------------------------------
      1 C                    -0.159592
      2 C                    -0.154251
      3 C                    -0.154251
      4 C                    -0.159592
      5 C                    -0.154251
      6 C                    -0.154251
      7 H                     0.156040
      8 H                     0.156027
      9 H                     0.156027
     10 H                     0.156040
     11 H                     0.156027
     12 H                     0.156027
     13 C                    -0.159592
     14 C                    -0.154251
     15 C                    -0.154251
     16 C                    -0.159592
     17 C                    -0.154251
     18 C                    -0.154251
     19 H                     0.156040
     20 H                     0.156027
     21 H                     0.156027
     22 H                     0.156040
     23 H                     0.156027
     24 H                     0.156027
  ----------------------------------------
  Sum of atomic charges =    -0.000000

 -----------------------------------------------------------------
                    Cartesian Multipole Moments
 -----------------------------------------------------------------
    Charge (ESU x 10^10)
                -0.0000
    Dipole Moment (Debye)
         X      -0.0000      Y      -0.0000      Z       0.0000
       Tot       0.0000
    Quadrupole Moments (Debye-Ang)
        XX     -82.1685     XY      -0.0000     YY     -64.9834
        XZ       0.0000     YZ       0.0000     ZZ     -64.9755
    Octopole Moments (Debye-Ang^2)
       XXX      -0.0000    XXY       0.0000    XYY      -0.0000
       YYY      -0.0000    XXZ       0.0000    XYZ      -0.0000
       YYZ      -0.0000    XZZ      -0.0000    YZZ      -0.0000
       ZZZ      -0.0000
    Hexadecapole Moments (Debye-Ang^3)
      XXXX   -1592.4828   XXXY       0.0000   XXYY    -332.5064
      XYYY      -0.0000   YYYY    -556.9774   XXXZ      -0.0000
      XXYZ       0.0000   XYYZ       0.0000   YYYZ       0.0000
      XXZZ    -332.4573   XYZZ      -0.0000   YYZZ    -185.6536
      XZZZ       0.0000   YZZZ      -0.0000   ZZZZ    -556.9318
 -----------------------------------------------------------------
Archival summary:
1\1\vega02.cac.cornell.edu\SP\ProcedureUnspecified\BasisUnspecified\1212\jj585\WedApr1816:08:542018WedApr1816:08:542018\0\\#,ProcedureUnspecified,BasisUnspecified,\\0,1\C\H,1,1.08025\C,1,1.39198,2,120\H,3,1.08025,1,120,2,-0,0\C,1,1.39198,2,120,3,180,0\H,5,1.08025,1,120,2,0,0\C,3,1.39198,1,120,2,180,0\H,7,1.08025,3,120,1,180,0\C,7,1.39198,3,120,1,-0,0\H,9,1.08025,7,120,3,180,0\C,9,1.39198,7,120,3,0,0\H,11,1.08025,9,120,7,180,0\H,4,3.5,3,90,1,-90,0\C,13,1.08025,4,90,3,0,0\C,14,1.39198,13,120,4,90,0\H,15,1.08025,14,120,13,-0,0\C,15,1.39198,14,120,13,-180,0\H,17,1.08025,15,120,14,180,0\C,14,1.39198,13,120,4,-90,0\H,19,1.08025,14,120,13,0,0\C,19,1.39198,14,120,13,180,0\H,21,1.08025,19,120,14,180,0\C,21,1.39198,19,120,14,0,0\H,23,1.08025,21,120,19,180,0\\\@

 Total job time:  73.55s(wall), 291.59s(cpu) 
 Wed Apr 18 16:08:54 2018

        *************************************************************
        *                                                           *
        *  Thank you very much for using Q-Chem.  Have a nice day.  *
        *                                                           *
        *************************************************************


0 sent ACK to 0 
now end server 0 ... 
