mFile = /opt/software/qchem/qchem-5.0.1//bin/mpi/machines
Process 0 of 1 is on vega02.cac.cornell.edu - thread support 0
initial socket setup ...start
initial socket setup ...done 
now start server 0 ... 
vega02.cac.cornell.edu 10.84.3
Q-Chem Developer Version! Running on 10.84.3.*
                  Welcome to Q-Chem
     A Quantum Leap Into The Future Of Chemistry


 Q-Chem 5.0, Q-Chem, Inc., Pleasanton, CA (2017)

 Yihan Shao,  Zhengting Gan,  E. Epifanovsky,  A. T. B. Gilbert,  M. Wormit,  
 J. Kussmann,  A. W. Lange,  A. Behn,  Jia Deng,  Xintian Feng,  D. Ghosh,  
 M. Goldey,  P. R. Horn,  L. D. Jacobson,  I. Kaliman,  T. Kus,  A. Landau,  
 Jie Liu,  E. I. Proynov,  R. M. Richard,  R. P. Steele,  E. J. Sundstrom,  
 H. L. Woodcock III,  P. M. Zimmerman,  D. Zuev,  B. Albrecht,  E. Alguire,  
 S. A. Baeppler,  Z. Benda,  Y. A. Bernard,  E. J. Berquist,  K. B. Bravaya,  
 D. Casanova,  Chun-Min Chang,  Yunqing Chen,  A. Chien,  K. D. Closser,  
 M. P. Coons,  S. Dasgupta,  M. Diedenhofen,  Hainam Do,  R. G. Edgar,  
 Po-Tung Fang,  S. Fatehi,  Qingguo Feng,  Qinghui Ge,  A. Ghysels,  
 J. Gomes,  J. Gonthier,  A. Gunina,  M. W. D. Hanson-Heine,  
 P. H. P. Harbach,  A. W. Hauser,  J. E. Herr,  E. G. Hohenstein,  
 Z. C. Holden,  Kerwin Hui,  T.-C. Jagau,  Hyunjun Ji,  B. Kaduk,  
 K. Khistyaev,  Jaehoon Kim,  P. Klunzinger,  K. Koh,  D. Kosenkov,  
 T. Kowalczyk,  C. M. Krauter,  A. Kunitsa,  Ka Un Lao,  A. Laurent,  
 K. V. Lawler,  Joonho Lee,  D. Lefrancois,  S. Lehtola,  D. S. Levine,  
 Yi-Pei Li,  You-Sheng Lin,  Fenglai Liu,  E. Livshits,  A. Luenser,  
 P. Manohar,  E. Mansoor,  S. F. Manzer,  Shan-Ping Mao,  Yuezhi Mao,  
 N. Mardirossian,  A. V. Marenich,  L. A. Martinez-Martinez,  S. A. Maurer,  
 N. J. Mayhall,  S. C. McKenzie,  J.-M. Mewes,  A. F. Morrison,  K. Nanda,  
 T. S. Nguyen-Beck,  R. Olivares-Amaya,  J. A. Parkhill,  T. M. Perrine,  
 F. Plasser,  S. Prager,  A. Prociuk,  D. R. Rehn,  F. Rob,  M. Schneider,  
 N. Sergueev,  S. M. Sharada,  S. Sharma,  D. W. Small,  T. Stauch,  
 T. Stein,  Yu-Chuan Su,  A. J. W. Thom,  T. Tsuchimochi,  L. Vogt,  
 O. Vydrov,  M. A. Watson,  J. Wenzel,  M. de Wergifosse,  T. A. Wesolowski,  
 A. White,  J. Witte,  A. Yamada,  Jun Yang,  K. Yao,  S. Yeganeh,  
 S. R. Yost,  Zhi-Qiang You,  A. Zech,  Igor Ying Zhang,  Xing Zhang,  
 Yan Zhao,  Ying Zhu,  B. R. Brooks,  G. K. L. Chan,  C. J. Cramer,  
 M. S. Gordon,  W. J. Hehre,  A. Klamt,  M. W. Schmidt,  C. D. Sherrill,  
 D. G. Truhlar,  A. Aspuru-Guzik,  R. Baer,  A. T. Bell,  N. A. Besley,  
 Jeng-Da Chai,  A. Dreuw,  B. D. Dunietz,  T. R. Furlani,  Chao-Ping Hsu,  
 Yousung Jung,  Jing Kong,  D. S. Lambrecht,  WanZhen Liang,  C. Ochsenfeld,  
 V. A. Rassolov,  L. V. Slipchenko,  J. E. Subotnik,  T. Van Voorhis,  
 J. M. Herbert,  A. I. Krylov,  P. M. W. Gill,  M. Head-Gordon

 Contributors to earlier versions of Q-Chem not listed above: 
 R. D. Adamson,  B. Austin,  J. Baker,  G. J. O. Beran,  K. Brandhorst,  
 S. T. Brown,  E. F. C. Byrd,  A. K. Chakraborty,  C.-L. Cheng,  
 Siu Hung Chien,  D. M. Chipman,  D. L. Crittenden,  H. Dachsel,  
 R. A. DiStasio Jr.,  R. J. Doerksen,  A. D. Dutoi,  L. Fusti-Molnar,  
 W. A. Goddard III,  A. Golubeva-Zadorozhnaya,  S. R. Gwaltney,  G. Hawkins,  
 A. Heyden,  S. Hirata,  G. Kedziora,  F. J. Keil,  C. Kelley,  Jihan Kim,  
 R. A. King,  R. Z. Khaliullin,  P. P. Korambath,  W. Kurlancheek,  
 A. M. Lee,  M. S. Lee,  S. V. Levchenko,  Ching Yeh Lin,  D. Liotard,  
 R. C. Lochan,  I. Lotan,  P. E. Maslen,  N. Nair,  D. P. O'Neill,  
 D. Neuhauser,  E. Neuscamman,  C. M. Oana,  R. Olson,  B. Peters,  
 R. Peverati,  P. A. Pieniazek,  Y. M. Rhee,  J. Ritchie,  M. A. Rohrdanz,  
 E. Rosta,  N. J. Russ,  H. F. Schaefer III,  N. E. Schultz,  N. Shenvi,  
 A. C. Simmonett,  A. Sodt,  D. Stuck,  K. S. Thanthiriwatte,  V. Vanovschi,  
 Tao Wang,  A. Warshel,  C. F. Williams,  Q. Wu,  X. Xu,  W. Zhang

 Please cite Q-Chem as follows:
 Y. Shao et al., Mol. Phys. 113, 184-215 (2015)
 DOI: 10.1080/00268976.2014.952696

 Q-Chem 5.0.1 for Intel X86 EM64T Linux

 Parts of Q-Chem use Armadillo 5.200.1 (Boston Tea Smuggler).
 http://arma.sourceforge.net/

 Q-Chem begins on Wed Apr 18 16:05:46 2018  

Host: vega02.cac.cornell.edu
0

     Scratch files written to /scratch/jj585/vdw/benzene_distance_4.700_10.save//
 Parallel job on  1  processors

Checking the input file for inconsistencies... 	...done.

--------------------------------------------------------------
User input:
--------------------------------------------------------------
$molecule
0  1
C        +0.00000000        +1.39198000        +0.00000000
C        +1.20549000        +0.69599000        +0.00000000
C        +1.20549000        -0.69599000        +0.00000000
C        +0.00000000        -1.39198000        +0.00000000
C        -1.20549000        -0.69599000        +0.00000000
C        -1.20549000        +0.69599000        +0.00000000
H        +0.00000000        +2.47223000        +0.00000000
H        +2.14101000        +1.23612000        +0.00000000
H        +2.14101000        -1.23612000        +0.00000000
H        +0.00000000        -2.47223000        +0.00000000
H        -2.14101000        -1.23612000        +0.00000000
H        -2.14101000        +1.23612000        +0.00000000
@C        +0.00000000        +1.39198000        +4.70000000
@C        +1.20549000        +0.69599000        +4.70000000
@C        +1.20549000        -0.69599000        +4.70000000
@C        +0.00000000        -1.39198000        +4.70000000
@C        -1.20549000        -0.69599000        +4.70000000
@C        -1.20549000        +0.69599000        +4.70000000
@H        +0.00000000        +2.47223000        +4.70000000
@H        +2.14101000        +1.23612000        +4.70000000
@H        +2.14101000        -1.23612000        +4.70000000
@H        +0.00000000        -2.47223000        +4.70000000
@H        -2.14101000        -1.23612000        +4.70000000
@H        -2.14101000        +1.23612000        +4.70000000
$end

$rem
JOBTYPE                   SP
METHOD                    B3LYP
DFT_D                     d3_op
BASIS                     6-311++G(d,p)
SYMMETRY                  False
THRESH                    12
SCF_CONVERGENCE           8
MAX_SUB_FILE_NUM          128
MEM_STATIC                400
MEM_TOTAL                 4000
$end
--------------------------------------------------------------
 Adding empirical dispersion correction 
 ----------------------------------------------------------------
 Doing -D3(op) with
 s6 =   1.00000
 s8 =   0.78311
 a1 =   0.30000
 a2 =   4.25000
 n  =  10.00000
 -D3 energy without 3body term =     -0.0081861633 hartrees
 ----------------------------------------------------------------
             Standard Nuclear Orientation (Angstroms)
    I     Atom           X                Y                Z
 ----------------------------------------------------------------
    1      C       0.0000000000     1.3919800000     0.0000000000
    2      C       1.2054900000     0.6959900000     0.0000000000
    3      C       1.2054900000    -0.6959900000     0.0000000000
    4      C       0.0000000000    -1.3919800000     0.0000000000
    5      C      -1.2054900000    -0.6959900000     0.0000000000
    6      C      -1.2054900000     0.6959900000     0.0000000000
    7      H       0.0000000000     2.4722300000     0.0000000000
    8      H       2.1410100000     1.2361200000     0.0000000000
    9      H       2.1410100000    -1.2361200000     0.0000000000
   10      H       0.0000000000    -2.4722300000     0.0000000000
   11      H      -2.1410100000    -1.2361200000     0.0000000000
   12      H      -2.1410100000     1.2361200000     0.0000000000
   13      GH      0.0000000000     1.3919800000     4.7000000000
   14      GH      1.2054900000     0.6959900000     4.7000000000
   15      GH      1.2054900000    -0.6959900000     4.7000000000
   16      GH      0.0000000000    -1.3919800000     4.7000000000
   17      GH     -1.2054900000    -0.6959900000     4.7000000000
   18      GH     -1.2054900000     0.6959900000     4.7000000000
   19      GH      0.0000000000     2.4722300000     4.7000000000
   20      GH      2.1410100000     1.2361200000     4.7000000000
   21      GH      2.1410100000    -1.2361200000     4.7000000000
   22      GH      0.0000000000    -2.4722300000     4.7000000000
   23      GH     -2.1410100000    -1.2361200000     4.7000000000
   24      GH     -2.1410100000     1.2361200000     4.7000000000
 ----------------------------------------------------------------
 Nuclear Repulsion Energy =   203.9449308443 hartrees
 There are       21 alpha and       21 beta electrons
 Requested basis set is 6-311++G(d,p)
 There are 132 shells and 348 basis functions

 Total QAlloc Memory Limit   4000 MB
 Mega-Array Size       392 MB
 MEM_STATIC part       400 MB
 A cutoff of  1.0D-12 yielded   7272 shell pairs
 There are     50676 function pairs (     53988 Cartesian)
 
 -------------------------------------------------------
 OpenMP Integral Computing Module                       
 Release: version 1.0, May 2013, Q-Chem Inc. Pittsburgh 
 -------------------------------------------------------
 Integral Job Info:
 Integral job number is                      11
 Integral operator is                         1
 short-range coefficients                     0
 long-range coefficients              100000000
 Omega coefficients                           0
 if combine SR and LR in K                    0
 Integral screening is                        0
 Integral computing path is                   2
 max size of driver memory is            800000
 size of driver memory is                593474
 size of scratch memory is              2361544
 max col of scratch BK array               1296
 max len of scratch array in speh3          155
 max len of scratch index in speh4           18
 max int batch size is                      520
 min int batch size is                       52
 fixed nKL is                                52
 max L of basis functions is                  2
 order of int derivative is                   0
 number of shells is                        132
 number of basis is                         360
 number of cartesian basis is               360
 number of contracted shell pairs          7272
 number of primitive shell pairs          16596
 maxK2 (contraction) of shell pair           36
 max number of K2 of shell pair               1
 max number of CS2 of shell pair           1356
 max number of PS2 of shell pair           2268
 mem total for path MDJ                   88600
 -------------------------------------------------------
 Smallest overlap matrix eigenvalue = 3.62E-07
 Linear dependence detected in AO basis
 Number of orthogonalized atomic orbitals = 346
 Maximum deviation from orthogonality = 1.394E-11

 Scale SEOQF with 1.000000e-01/1.000000e-01/1.000000e-01

 Standard Electronic Orientation quadrupole field applied
 Nucleus-field energy     =     0.0000000057 hartrees
 Guess from superposition of atomic densities
 Warning:  Energy on first SCF cycle will be non-variational

 Q-Chem warning in module /opt/software/qchem/qchem-5.0.1/libgen/Atomic_PolEc.C, line 58:

 No atomic polarizability available.


 Q-Chem warning in module /opt/software/qchem/qchem-5.0.1/libgen/Atomic_PolEc.C, line 73:

 No atomic polarizability available.


 Q-Chem warning in module /opt/software/qchem/qchem-5.0.1/libgen/Atomic_PolEc.C, line 58:

 No atomic polarizability available.


 Q-Chem warning in module /opt/software/qchem/qchem-5.0.1/libgen/Atomic_PolEc.C, line 73:

 No atomic polarizability available.


 Q-Chem warning in module /opt/software/qchem/qchem-5.0.1/libgen/Atomic_PolEc.C, line 58:

 No atomic polarizability available.


 Q-Chem warning in module /opt/software/qchem/qchem-5.0.1/libgen/Atomic_PolEc.C, line 73:

 No atomic polarizability available.


 Q-Chem warning in module /opt/software/qchem/qchem-5.0.1/libgen/Atomic_PolEc.C, line 58:

 No atomic polarizability available.


 Q-Chem warning in module /opt/software/qchem/qchem-5.0.1/libgen/Atomic_PolEc.C, line 73:

 No atomic polarizability available.


 Q-Chem warning in module /opt/software/qchem/qchem-5.0.1/libgen/Atomic_PolEc.C, line 58:

 No atomic polarizability available.


 Q-Chem warning in module /opt/software/qchem/qchem-5.0.1/libgen/Atomic_PolEc.C, line 73:

 No atomic polarizability available.


 Q-Chem warning in module /opt/software/qchem/qchem-5.0.1/libgen/Atomic_PolEc.C, line 58:

 No atomic polarizability available.


 Q-Chem warning in module /opt/software/qchem/qchem-5.0.1/libgen/Atomic_PolEc.C, line 73:

 No atomic polarizability available.


 Q-Chem warning in module /opt/software/qchem/qchem-5.0.1/libgen/Atomic_PolEc.C, line 58:

 No atomic polarizability available.


 Q-Chem warning in module /opt/software/qchem/qchem-5.0.1/libgen/Atomic_PolEc.C, line 73:

 No atomic polarizability available.


 Q-Chem warning in module /opt/software/qchem/qchem-5.0.1/libgen/Atomic_PolEc.C, line 58:

 No atomic polarizability available.


 Q-Chem warning in module /opt/software/qchem/qchem-5.0.1/libgen/Atomic_PolEc.C, line 73:

 No atomic polarizability available.


 Q-Chem warning in module /opt/software/qchem/qchem-5.0.1/libgen/Atomic_PolEc.C, line 58:

 No atomic polarizability available.


 Q-Chem warning in module /opt/software/qchem/qchem-5.0.1/libgen/Atomic_PolEc.C, line 73:

 No atomic polarizability available.


 Q-Chem warning in module /opt/software/qchem/qchem-5.0.1/libgen/Atomic_PolEc.C, line 58:

 No atomic polarizability available.


 Q-Chem warning in module /opt/software/qchem/qchem-5.0.1/libgen/Atomic_PolEc.C, line 73:

 No atomic polarizability available.


 Q-Chem warning in module /opt/software/qchem/qchem-5.0.1/libgen/Atomic_PolEc.C, line 58:

 No atomic polarizability available.


 Q-Chem warning in module /opt/software/qchem/qchem-5.0.1/libgen/Atomic_PolEc.C, line 73:

 No atomic polarizability available.


 Q-Chem warning in module /opt/software/qchem/qchem-5.0.1/libgen/Atomic_PolEc.C, line 58:

 No atomic polarizability available.


 Q-Chem warning in module /opt/software/qchem/qchem-5.0.1/libgen/Atomic_PolEc.C, line 73:

 No atomic polarizability available.

 A restricted hybrid HF-DFT SCF calculation will be
 performed using Pulay DIIS extrapolation
 Exchange:     0.2000 Hartree-Fock + 0.0800 Slater + 0.7200 B88
 Correlation:  0.1900 VWN1RPA + 0.8100 LYP
 Using SG-1 standard quadrature grid
 Dispersion:   Grimme D3
 SCF converges when DIIS error is below 1.0E-08
 using 4 threads for integral computing
 -------------------------------------------------------
 OpenMP Integral computing Module                
 Release: version 1.0, May 2013, Q-Chem Inc. Pittsburgh 
 -------------------------------------------------------
 -------------------------------------------------------
 OpenMP BLAS3 based DFT computing Module                
 Release: version 1.0, May 2013, Q-Chem Inc. Pittsburgh 
 -------------------------------------------------------
 ---------------------------------------
  Cycle       Energy         DIIS Error
 ---------------------------------------
    1    -233.6360596836      2.44E-02
    2    -232.1994508591      2.66E-03
    3    -232.1628135654      3.10E-03
    4    -232.3189552907      2.10E-04
    5    -232.3195098919      3.00E-05
    6    -232.3195226452      1.95E-06
    7    -232.3195227141      4.05E-07
    8    -232.3195227163      1.41E-07
    9    -232.3195227166      2.65E-08
   10    -232.3195227166      7.04E-09 Convergence criterion met
 ---------------------------------------
 SCF time:  CPU 173.15 s  wall 43.46 s
 SCF   energy in the final basis set = -232.31952272
 Total energy in the final basis set = -232.31952272
 
 --------------------------------------------------------------
 
                    Orbital Energies (a.u.)
 --------------------------------------------------------------
 
 Alpha MOs
 -- Occupied --
-10.178 -10.178 -10.178 -10.177 -10.177 -10.177  -0.861  -0.752
 -0.752  -0.609  -0.609  -0.531  -0.467  -0.454  -0.428  -0.428
 -0.374  -0.351  -0.351  -0.260  -0.260
 -- Virtual --
 -0.017  -0.017  -0.008   0.009   0.009   0.022   0.032   0.032
  0.041   0.041   0.061   0.063   0.067   0.067   0.071   0.093
  0.096   0.096   0.098   0.099   0.111   0.112   0.118   0.118
  0.118   0.130   0.130   0.130   0.142   0.142   0.146   0.146
  0.156   0.156   0.158   0.166   0.166   0.167   0.176   0.196
  0.196   0.196   0.196   0.203   0.205   0.205   0.205   0.206
  0.207   0.225   0.245   0.246   0.250   0.251   0.261   0.261
  0.264   0.264   0.264   0.287   0.287   0.294   0.294   0.309
  0.324   0.324   0.330   0.343   0.357   0.357   0.362   0.362
  0.393   0.393   0.400   0.410   0.426   0.426   0.441   0.453
  0.480   0.480   0.508   0.514   0.514   0.548   0.550   0.551
  0.563   0.575   0.575   0.578   0.580   0.581   0.600   0.600
  0.608   0.608   0.634   0.634   0.645   0.645   0.656   0.682
  0.707   0.725   0.725   0.728   0.736   0.736   0.737   0.737
  0.752   0.753   0.759   0.799   0.839   0.839   0.840   0.869
  0.869   0.873   0.889   0.889   0.921   0.921   0.944   0.944
  0.947   0.956   1.012   1.023   1.023   1.085   1.085   1.114
  1.116   1.141   1.141   1.157   1.180   1.180   1.211   1.211
  1.311   1.315   1.364   1.421   1.421   1.446   1.459   1.505
  1.522   1.522   1.523   1.523   1.537   1.554   1.554   1.569
  1.577   1.577   1.654   1.654   1.666   1.666   1.705   1.705
  1.712   1.713   1.713   1.733   1.733   1.734   1.782   1.782
  1.786   1.793   1.834   1.834   1.853   1.869   1.894   1.895
  1.933   1.933   1.950   1.950   1.958   1.969   1.973   1.973
  2.007   2.020   2.020   2.026   2.026   2.036   2.036   2.088
  2.088   2.234   2.246   2.278   2.306   2.314   2.332   2.347
  2.387   2.387   2.413   2.413   2.426   2.426   2.441   2.463
  2.471   2.471   2.491   2.491   2.564   2.569   2.569   2.594
  2.594   2.632   2.632   2.657   2.671   2.719   2.740   2.754
  2.754   2.771   2.771   2.783   2.824   2.824   2.898   2.898
  2.905   2.905   2.919   2.964   2.964   2.995   2.995   2.996
  2.996   3.017   3.084   3.111   3.199   3.199   3.304   3.304
  3.356   3.356   3.370   3.378   3.382   3.497   3.497   3.519
  3.525   3.532   3.533   3.535   3.587   3.587   3.699   3.719
  3.719   3.948   4.003   4.003   4.032   4.032   4.087   4.161
  4.161   4.530   4.847   4.866   4.866   4.880   5.083   5.083
  5.576   7.055   7.129   7.129   7.223   7.223   7.364   7.696
  7.739   7.739   7.763   7.795   7.795   7.970   7.970   7.987
  7.987   8.286   8.901   9.617  10.201  10.201  10.255  10.255
 10.317  23.604  23.988  23.988  24.104  24.104  24.211  69.791
 70.048  70.048  70.079  70.079  70.124
 --------------------------------------------------------------
 
          Ground-State Mulliken Net Atomic Charges

     Atom                 Charge (a.u.)
  ----------------------------------------
      1 C                    -0.157394
      2 C                    -0.155097
      3 C                    -0.155097
      4 C                    -0.157394
      5 C                    -0.155097
      6 C                    -0.155097
      7 H                     0.156361
      8 H                     0.156170
      9 H                     0.156170
     10 H                     0.156361
     11 H                     0.156170
     12 H                     0.156170
     13 GH                   -0.002021
     14 GH                   -0.001504
     15 GH                   -0.001504
     16 GH                   -0.002021
     17 GH                   -0.001504
     18 GH                   -0.001504
     19 GH                    0.001286
     20 GH                    0.001314
     21 GH                    0.001314
     22 GH                    0.001286
     23 GH                    0.001314
     24 GH                    0.001314
  ----------------------------------------
  Sum of atomic charges =    -0.000000

 -----------------------------------------------------------------
                    Cartesian Multipole Moments
 -----------------------------------------------------------------
    Charge (ESU x 10^10)
                -0.0000
    Dipole Moment (Debye)
         X      -0.0000      Y      -0.0000      Z       0.0015
       Tot       0.0015
    Quadrupole Moments (Debye-Ang)
        XX     -32.1539     XY      -0.0000     YY     -32.1566
        XZ       0.0000     YZ      -0.0000     ZZ     -40.2274
    Octopole Moments (Debye-Ang^2)
       XXX       0.0000    XXY       0.0000    XYY      -0.0000
       YYY      -0.0000    XXZ      -0.0007    XYZ       0.0000
       YYZ       0.0024    XZZ       0.0000    YZZ      -0.0000
       ZZZ      -0.0112
    Hexadecapole Moments (Debye-Ang^3)
      XXXX    -275.2418   XXXY       0.0000   XXYY     -91.7477
      XYYY      -0.0000   YYYY    -275.2565   XXXZ       0.0000
      XXYZ       0.0000   XYYZ       0.0000   YYYZ      -0.0000
      XXZZ     -64.9335   XYZZ       0.0000   YYZZ     -64.9416
      XZZZ      -0.0000   YZZZ      -0.0000   ZZZZ     -49.8768
 -----------------------------------------------------------------
Archival summary:
1\1\vega02.cac.cornell.edu\SP\ProcedureUnspecified\BasisUnspecified\66h12\jj585\WedApr1816:06:302018WedApr1816:06:302018\0\\#,ProcedureUnspecified,BasisUnspecified,\\0,1\C\H,1,1.08025\C,1,1.39198,2,120\H,3,1.08025,1,120,2,-0,0\C,1,1.39198,2,120,3,-180,0\H,5,1.08025,1,120,2,-0,0\C,3,1.39198,1,120,2,-180,0\H,7,1.08025,3,120,1,-180,0\C,7,1.39198,3,120,1,-0,0\H,9,1.08025,7,120,3,-180,0\C,9,1.39198,7,120,3,-0,0\H,11,1.08025,9,120,7,-180,0\Gh,4,4.7,3,90,1,-90,0\Gh,13,1.08025,4,90,3,-0,0\Gh,14,1.39198,13,120,4,90,0\Gh,15,1.08025,14,120,13,-0,0\Gh,15,1.39198,14,120,13,-180,0\Gh,17,1.08025,15,120,14,-180,0\Gh,14,1.39198,13,120,4,-90,0\Gh,19,1.08025,14,120,13,-0,0\Gh,19,1.39198,14,120,13,-180,0\Gh,21,1.08025,19,120,14,-180,0\Gh,21,1.39198,19,120,14,-0,0\Gh,23,1.08025,21,120,19,-180,0\\\@

 Total job time:  44.19s(wall), 175.06s(cpu) 
 Wed Apr 18 16:06:30 2018

        *************************************************************
        *                                                           *
        *  Thank you very much for using Q-Chem.  Have a nice day.  *
        *                                                           *
        *************************************************************


0 sent ACK to 0 
now end server 0 ... 
