mFile = /opt/software/qchem/qchem-5.0.1//bin/mpi/machines
Process 0 of 1 is on vega02.cac.cornell.edu - thread support 0
initial socket setup ...start
initial socket setup ...done 
now start server 0 ... 
vega02.cac.cornell.edu 10.84.3
Q-Chem Developer Version! Running on 10.84.3.*
                  Welcome to Q-Chem
     A Quantum Leap Into The Future Of Chemistry


 Q-Chem 5.0, Q-Chem, Inc., Pleasanton, CA (2017)

 Yihan Shao,  Zhengting Gan,  E. Epifanovsky,  A. T. B. Gilbert,  M. Wormit,  
 J. Kussmann,  A. W. Lange,  A. Behn,  Jia Deng,  Xintian Feng,  D. Ghosh,  
 M. Goldey,  P. R. Horn,  L. D. Jacobson,  I. Kaliman,  T. Kus,  A. Landau,  
 Jie Liu,  E. I. Proynov,  R. M. Richard,  R. P. Steele,  E. J. Sundstrom,  
 H. L. Woodcock III,  P. M. Zimmerman,  D. Zuev,  B. Albrecht,  E. Alguire,  
 S. A. Baeppler,  Z. Benda,  Y. A. Bernard,  E. J. Berquist,  K. B. Bravaya,  
 D. Casanova,  Chun-Min Chang,  Yunqing Chen,  A. Chien,  K. D. Closser,  
 M. P. Coons,  S. Dasgupta,  M. Diedenhofen,  Hainam Do,  R. G. Edgar,  
 Po-Tung Fang,  S. Fatehi,  Qingguo Feng,  Qinghui Ge,  A. Ghysels,  
 J. Gomes,  J. Gonthier,  A. Gunina,  M. W. D. Hanson-Heine,  
 P. H. P. Harbach,  A. W. Hauser,  J. E. Herr,  E. G. Hohenstein,  
 Z. C. Holden,  Kerwin Hui,  T.-C. Jagau,  Hyunjun Ji,  B. Kaduk,  
 K. Khistyaev,  Jaehoon Kim,  P. Klunzinger,  K. Koh,  D. Kosenkov,  
 T. Kowalczyk,  C. M. Krauter,  A. Kunitsa,  Ka Un Lao,  A. Laurent,  
 K. V. Lawler,  Joonho Lee,  D. Lefrancois,  S. Lehtola,  D. S. Levine,  
 Yi-Pei Li,  You-Sheng Lin,  Fenglai Liu,  E. Livshits,  A. Luenser,  
 P. Manohar,  E. Mansoor,  S. F. Manzer,  Shan-Ping Mao,  Yuezhi Mao,  
 N. Mardirossian,  A. V. Marenich,  L. A. Martinez-Martinez,  S. A. Maurer,  
 N. J. Mayhall,  S. C. McKenzie,  J.-M. Mewes,  A. F. Morrison,  K. Nanda,  
 T. S. Nguyen-Beck,  R. Olivares-Amaya,  J. A. Parkhill,  T. M. Perrine,  
 F. Plasser,  S. Prager,  A. Prociuk,  D. R. Rehn,  F. Rob,  M. Schneider,  
 N. Sergueev,  S. M. Sharada,  S. Sharma,  D. W. Small,  T. Stauch,  
 T. Stein,  Yu-Chuan Su,  A. J. W. Thom,  T. Tsuchimochi,  L. Vogt,  
 O. Vydrov,  M. A. Watson,  J. Wenzel,  M. de Wergifosse,  T. A. Wesolowski,  
 A. White,  J. Witte,  A. Yamada,  Jun Yang,  K. Yao,  S. Yeganeh,  
 S. R. Yost,  Zhi-Qiang You,  A. Zech,  Igor Ying Zhang,  Xing Zhang,  
 Yan Zhao,  Ying Zhu,  B. R. Brooks,  G. K. L. Chan,  C. J. Cramer,  
 M. S. Gordon,  W. J. Hehre,  A. Klamt,  M. W. Schmidt,  C. D. Sherrill,  
 D. G. Truhlar,  A. Aspuru-Guzik,  R. Baer,  A. T. Bell,  N. A. Besley,  
 Jeng-Da Chai,  A. Dreuw,  B. D. Dunietz,  T. R. Furlani,  Chao-Ping Hsu,  
 Yousung Jung,  Jing Kong,  D. S. Lambrecht,  WanZhen Liang,  C. Ochsenfeld,  
 V. A. Rassolov,  L. V. Slipchenko,  J. E. Subotnik,  T. Van Voorhis,  
 J. M. Herbert,  A. I. Krylov,  P. M. W. Gill,  M. Head-Gordon

 Contributors to earlier versions of Q-Chem not listed above: 
 R. D. Adamson,  B. Austin,  J. Baker,  G. J. O. Beran,  K. Brandhorst,  
 S. T. Brown,  E. F. C. Byrd,  A. K. Chakraborty,  C.-L. Cheng,  
 Siu Hung Chien,  D. M. Chipman,  D. L. Crittenden,  H. Dachsel,  
 R. A. DiStasio Jr.,  R. J. Doerksen,  A. D. Dutoi,  L. Fusti-Molnar,  
 W. A. Goddard III,  A. Golubeva-Zadorozhnaya,  S. R. Gwaltney,  G. Hawkins,  
 A. Heyden,  S. Hirata,  G. Kedziora,  F. J. Keil,  C. Kelley,  Jihan Kim,  
 R. A. King,  R. Z. Khaliullin,  P. P. Korambath,  W. Kurlancheek,  
 A. M. Lee,  M. S. Lee,  S. V. Levchenko,  Ching Yeh Lin,  D. Liotard,  
 R. C. Lochan,  I. Lotan,  P. E. Maslen,  N. Nair,  D. P. O'Neill,  
 D. Neuhauser,  E. Neuscamman,  C. M. Oana,  R. Olson,  B. Peters,  
 R. Peverati,  P. A. Pieniazek,  Y. M. Rhee,  J. Ritchie,  M. A. Rohrdanz,  
 E. Rosta,  N. J. Russ,  H. F. Schaefer III,  N. E. Schultz,  N. Shenvi,  
 A. C. Simmonett,  A. Sodt,  D. Stuck,  K. S. Thanthiriwatte,  V. Vanovschi,  
 Tao Wang,  A. Warshel,  C. F. Williams,  Q. Wu,  X. Xu,  W. Zhang

 Please cite Q-Chem as follows:
 Y. Shao et al., Mol. Phys. 113, 184-215 (2015)
 DOI: 10.1080/00268976.2014.952696

 Q-Chem 5.0.1 for Intel X86 EM64T Linux

 Parts of Q-Chem use Armadillo 5.200.1 (Boston Tea Smuggler).
 http://arma.sourceforge.net/

 Q-Chem begins on Wed Apr 18 16:09:51 2018  

Host: vega02.cac.cornell.edu
0

     Scratch files written to /scratch/jj585/vdw/benzene_distance_5.600_11.save//
 Parallel job on  1  processors

Checking the input file for inconsistencies... 	...done.

--------------------------------------------------------------
User input:
--------------------------------------------------------------
$molecule
0  1
--
0  1
C        +0.00000000        +1.39198000        +0.00000000
C        +1.20549000        +0.69599000        +0.00000000
C        +1.20549000        -0.69599000        +0.00000000
C        +0.00000000        -1.39198000        +0.00000000
C        -1.20549000        -0.69599000        +0.00000000
C        -1.20549000        +0.69599000        +0.00000000
H        +0.00000000        +2.47223000        +0.00000000
H        +2.14101000        +1.23612000        +0.00000000
H        +2.14101000        -1.23612000        +0.00000000
H        +0.00000000        -2.47223000        +0.00000000
H        -2.14101000        -1.23612000        +0.00000000
H        -2.14101000        +1.23612000        +0.00000000
--
0  1
C        +0.00000000        +1.39198000        +5.60000000
C        +1.20549000        +0.69599000        +5.60000000
C        +1.20549000        -0.69599000        +5.60000000
C        +0.00000000        -1.39198000        +5.60000000
C        -1.20549000        -0.69599000        +5.60000000
C        -1.20549000        +0.69599000        +5.60000000
H        +0.00000000        +2.47223000        +5.60000000
H        +2.14101000        +1.23612000        +5.60000000
H        +2.14101000        -1.23612000        +5.60000000
H        +0.00000000        -2.47223000        +5.60000000
H        -2.14101000        -1.23612000        +5.60000000
H        -2.14101000        +1.23612000        +5.60000000
$end

$rem
JOBTYPE                   SP
METHOD                    B3LYP
DFT_D                     d3_op
BASIS                     6-311++G(d,p)
SYMMETRY                  False
THRESH                    12
SCF_CONVERGENCE           8
MAX_SUB_FILE_NUM          128
MEM_STATIC                400
MEM_TOTAL                 4000
$end
--------------------------------------------------------------
 Adding empirical dispersion correction 
 ----------------------------------------------------------------
 Doing -D3(op) with
 s6 =   1.00000
 s8 =   0.78311
 a1 =   0.30000
 a2 =   4.25000
 n  =  10.00000
 -D3 energy without 3body term =     -0.0172511919 hartrees
 ----------------------------------------------------------------
             Standard Nuclear Orientation (Angstroms)
    I     Atom           X                Y                Z
 ----------------------------------------------------------------
    1      C      -2.8000000000     1.3919800000     0.0000000000
    2      C      -2.8000000000     0.6959900000    -1.2054900000
    3      C      -2.8000000000    -0.6959900000    -1.2054900000
    4      C      -2.8000000000    -1.3919800000     0.0000000000
    5      C      -2.8000000000    -0.6959900000     1.2054900000
    6      C      -2.8000000000     0.6959900000     1.2054900000
    7      H      -2.8000000000     2.4722300000     0.0000000000
    8      H      -2.8000000000     1.2361200000    -2.1410100000
    9      H      -2.8000000000    -1.2361200000    -2.1410100000
   10      H      -2.8000000000    -2.4722300000    -0.0000000000
   11      H      -2.8000000000    -1.2361200000     2.1410100000
   12      H      -2.8000000000     1.2361200000     2.1410100000
   13      C       2.8000000000     1.3919800000     0.0000000000
   14      C       2.8000000000     0.6959900000    -1.2054900000
   15      C       2.8000000000    -0.6959900000    -1.2054900000
   16      C       2.8000000000    -1.3919800000    -0.0000000000
   17      C       2.8000000000    -0.6959900000     1.2054900000
   18      C       2.8000000000     0.6959900000     1.2054900000
   19      H       2.8000000000     2.4722300000     0.0000000000
   20      H       2.8000000000     1.2361200000    -2.1410100000
   21      H       2.8000000000    -1.2361200000    -2.1410100000
   22      H       2.8000000000    -2.4722300000    -0.0000000000
   23      H       2.8000000000    -1.2361200000     2.1410100000
   24      H       2.8000000000     1.2361200000     2.1410100000
 ----------------------------------------------------------------
 Molecular Point Group                 D2h   NOp =  8
 Largest Abelian Subgroup              D2h   NOp =  8
 Nuclear Repulsion Energy =   563.2461330915 hartrees
 There are       42 alpha and       42 beta electrons
 Requested basis set is 6-311++G(d,p)
 There are 132 shells and 348 basis functions

 Total QAlloc Memory Limit   4000 MB
 Mega-Array Size       392 MB
 MEM_STATIC part       400 MB
 A cutoff of  1.0D-12 yielded   6966 shell pairs
 There are     48126 function pairs (     51048 Cartesian)
 
 -------------------------------------------------------
 OpenMP Integral Computing Module                       
 Release: version 1.0, May 2013, Q-Chem Inc. Pittsburgh 
 -------------------------------------------------------
 Integral Job Info:
 Integral job number is                      11
 Integral operator is                         1
 short-range coefficients                     0
 long-range coefficients              100000000
 Omega coefficients                           0
 if combine SR and LR in K                    0
 Integral screening is                        0
 Integral computing path is                   2
 max size of driver memory is            800000
 size of driver memory is                593474
 size of scratch memory is              2361544
 max col of scratch BK array               1296
 max len of scratch array in speh3          155
 max len of scratch index in speh4           18
 max int batch size is                      520
 min int batch size is                       52
 fixed nKL is                                52
 max L of basis functions is                  2
 order of int derivative is                   0
 number of shells is                        132
 number of basis is                         360
 number of cartesian basis is               360
 number of contracted shell pairs          6966
 number of primitive shell pairs          16218
 maxK2 (contraction) of shell pair           36
 max number of K2 of shell pair               1
 max number of CS2 of shell pair           1296
 max number of PS2 of shell pair           2232
 mem total for path MDJ                   87402
 -------------------------------------------------------
 Smallest overlap matrix eigenvalue = 5.60E-07
 Linear dependence detected in AO basis
 Number of orthogonalized atomic orbitals = 347
 Maximum deviation from orthogonality = 8.450E-11

 Scale SEOQF with 1.000000e-01/1.000000e-01/1.000000e-01

 Standard Electronic Orientation quadrupole field applied
 Nucleus-field energy     =     0.0000000197 hartrees
 Guess from superposition of atomic densities
 Warning:  Energy on first SCF cycle will be non-variational
 A restricted hybrid HF-DFT SCF calculation will be
 performed using Pulay DIIS extrapolation
 Exchange:     0.2000 Hartree-Fock + 0.0800 Slater + 0.7200 B88
 Correlation:  0.1900 VWN1RPA + 0.8100 LYP
 Using SG-1 standard quadrature grid
 Dispersion:   Grimme D3
 SCF converges when DIIS error is below 1.0E-08
 using 4 threads for integral computing
 -------------------------------------------------------
 OpenMP Integral computing Module                
 Release: version 1.0, May 2013, Q-Chem Inc. Pittsburgh 
 -------------------------------------------------------
 -------------------------------------------------------
 OpenMP BLAS3 based DFT computing Module                
 Release: version 1.0, May 2013, Q-Chem Inc. Pittsburgh 
 -------------------------------------------------------
 ---------------------------------------
  Cycle       Energy         DIIS Error
 ---------------------------------------
    1    -467.2729611145      3.44E-02
    2    -464.3975959428      3.76E-03
    3    -464.3206678881      4.42E-03
    4    -464.6379443340      2.98E-04
    5    -464.6390618795      4.38E-05
    6    -464.6390887484      6.52E-06
    7    -464.6390893499      2.10E-06
    8    -464.6390894181      1.36E-07
    9    -464.6390894183      7.37E-08
   10    -464.6390894183      6.63E-09 Convergence criterion met
 ---------------------------------------
 SCF time:  CPU 156.62 s  wall 39.31 s
 SCF   energy in the final basis set = -464.63908942
 Total energy in the final basis set = -464.63908942
 
 --------------------------------------------------------------
             Orbital Energies (a.u.) and Symmetries
 --------------------------------------------------------------
 
 Alpha MOs, Restricted
 -- Occupied --                  
-10.175 -10.175 -10.175 -10.175 -10.175 -10.175 -10.174 -10.174
  1 B3u   1 Ag    1 B1g   1 B2u   1 B2g   1 B1u   2 Ag    2 B3u                
-10.174 -10.174 -10.174 -10.174  -0.858  -0.858  -0.749  -0.749
  1 B3g   1 Au    2 B2u   2 B1g   3 B3u   3 Ag    2 B1u   3 B2u                
 -0.749  -0.749  -0.606  -0.606  -0.606  -0.606  -0.528  -0.528
  2 B2g   3 B1g   2 B3g   4 Ag    2 Au    4 B3u   5 Ag    5 B3u                
 -0.464  -0.464  -0.451  -0.451  -0.426  -0.426  -0.426  -0.426
  4 B2u   4 B1g   3 B1u   3 B2g   4 B1u   5 B2u   4 B2g   5 B1g                
 -0.371  -0.370  -0.348  -0.348  -0.348  -0.348  -0.258  -0.258
  6 Ag    6 B3u   3 B3g   7 Ag    3 Au    7 B3u   6 B2u   5 B1u                
 -0.257  -0.256
  6 B1g   5 B2g                                                                
 -- Virtual --                   
 -0.016  -0.016  -0.012  -0.012  -0.011   0.003   0.006   0.006
  4 B3g   8 Ag    4 Au    8 B3u   9 Ag    9 B3u   7 B2u   6 B1u                
  0.021   0.021   0.028   0.028   0.043   0.043   0.056   0.059
  7 B1g   6 B2g   5 B3g  10 Ag    5 Au   10 B3u   8 B2u  11 Ag                 
  0.068   0.071   0.073   0.087   0.088   0.095   0.107   0.114
 12 Ag   11 B3u   8 B1g   9 B2u   7 B1u   8 B1u   7 B2g  10 B2u                
  0.114   0.115   0.115   0.115   0.117   0.117   0.121   0.124
  9 B1u  13 Ag    9 B1g   8 B2g   6 B3g  14 Ag   12 B3u  11 B2u                
  0.126   0.126   0.129   0.129   0.136   0.138   0.138   0.145
  6 Au   13 B3u  10 B1g   9 B2g  11 B1g   7 B3g  15 Ag   12 B2u                
  0.146   0.151   0.152   0.152   0.162   0.162   0.173   0.173
 10 B1u  13 B2u   8 B3g  16 Ag    7 Au   14 B3u   8 Au   15 B3u                
  0.183   0.187   0.196   0.196   0.200   0.204   0.204   0.221
 12 B1g  16 B3u  11 B1u  14 B2u  15 B2u  10 B2g  13 B1g   9 B3g                
  0.222   0.227   0.230   0.234   0.235   0.259   0.260   0.276
 17 Ag   14 B1g  18 Ag   15 B1g  11 B2g  17 B3u  10 B3g   9 Au                 
  0.280   0.281   0.282   0.285   0.286   0.293   0.293   0.297
 16 B2u  12 B1u  17 B2u  10 Au   18 B3u  16 B1g  12 B2g  19 Ag                 
  0.297   0.313   0.313   0.324   0.345   0.355   0.355   0.360
 11 B3g  11 Au   19 B3u  18 B2u  17 B1g  12 B3g  20 Ag   13 B1u                
  0.360   0.367   0.367   0.374   0.374   0.449   0.459   0.460
 19 B2u  20 B3u  12 Au   18 B1g  13 B2g  14 B1u  14 B2g  21 Ag                 
  0.496   0.542   0.546   0.546   0.553   0.555   0.559   0.561
 21 B3u  20 B2u  21 B2u  15 B1u  13 B3g  13 Au   22 B3u  22 Ag                 
  0.561   0.565   0.565   0.573   0.573   0.599   0.599   0.603
 19 B1g  14 B3g  23 Ag   20 B1g  15 B2g  22 B2u  16 B1u  14 Au                 
  0.603   0.628   0.628   0.633   0.662   0.662   0.663   0.663
 23 B3u  15 B3g  24 Ag   25 Ag   21 B1g  16 B2g  15 Au   24 B3u                
  0.679   0.681   0.724   0.724   0.730   0.730   0.734   0.734
 23 B2u  22 B1g  16 B3g  26 Ag   16 Au   25 B3u  24 B2u  17 B1u                
  0.737   0.742   0.742   0.745   0.771   0.804   0.814   0.837
 26 B3u  23 B1g  17 B2g  24 B1g  27 Ag   25 B2u  27 B3u  26 B2u                
  0.837   0.842   0.854   0.855   0.874   0.877   0.886   0.886
 18 B1u  25 B1g  26 B1g  18 B2g  17 B3g  17 Au   18 B3g  28 Ag                 
  0.898   0.898   0.898   0.908   0.908   0.929   0.929   0.940
 18 Au   28 B3u  27 B2u  28 B2u  19 B1u  27 B1g  19 B2g  29 Ag                 
  0.962   1.015   1.015   1.019   1.019   1.026   1.026   1.082
 29 B3u  20 B1u  20 B2g  30 Ag   19 B3g  19 Au   30 B3u  29 B2u                
  1.082   1.089   1.089   1.143   1.143   1.144   1.144   1.308
 21 B1u  28 B1g  21 B2g  20 B3g  31 Ag   20 Au   31 B3u  32 Ag                 
  1.315   1.315   1.316   1.460   1.461   1.518   1.518   1.532
 32 B3u  29 B1g  30 B2u  22 B1u  22 B2g  23 B1u  31 B2u  23 B2g                
  1.532   1.534   1.535   1.571   1.572   1.574   1.574   1.577
 30 B1g  33 Ag   33 B3u  31 B1g  32 B2u  21 Au   34 B3u  21 B3g                
  1.577   1.645   1.645   1.661   1.661   1.667   1.668   1.672
 34 Ag   35 Ag   22 B3g  22 Au   35 B3u  33 B2u  24 B1u  32 B1g                
  1.672   1.718   1.722   1.779   1.779   1.780   1.780   1.824
 24 B2g  36 B3u  36 Ag   25 B1u  34 B2u  25 B2g  33 B1g  23 B3g                
  1.824   1.838   1.838   1.855   1.856   1.932   1.932   1.933
 37 Ag   23 Au   37 B3u  26 B1u  26 B2g  34 B1g  27 B2g  35 B2u                
  1.933   1.950   1.950   1.954   1.954   1.959   1.962   1.995
 27 B1u  35 B1g  28 B2g  36 B2u  28 B1u  24 B3g  24 Au   37 B2u                
  2.011   2.027   2.027   2.030   2.030   2.087   2.087   2.090
 36 B1g  25 B3g  38 Ag   25 Au   38 B3u  26 B3g  39 Ag   26 Au                 
  2.090   2.330   2.335   2.350   2.350   2.380   2.426   2.426
 39 B3u  38 B2u  37 B1g  27 B3g  27 Au   40 Ag   28 B3g  41 Ag                 
  2.429   2.429   2.445   2.445   2.446   2.480   2.480   2.634
 28 Au   40 B3u  29 B1u  39 B2u  41 B3u  29 B2g  38 B1g  40 B2u                
  2.634   2.635   2.635   2.653   2.665   2.672   2.675   2.691
 30 B1u  39 B1g  30 B2g  40 B1g  42 B3u  41 B2u  42 Ag   43 Ag                 
  2.717   2.723   2.723   2.756   2.756   2.761   2.761   2.767
 41 B1g  42 B2u  31 B1u  29 B3g  44 Ag   42 B1g  31 B2g  43 B3u                
  2.777   2.777   2.806   2.810   2.810   2.835   2.835   2.894
 29 Au   44 B3u  43 B2u  44 B2u  32 B1u  43 B1g  32 B2g  30 B3g                
  2.894   2.907   2.907   2.922   2.922   2.960   2.960   2.968
 45 Ag   30 Au   45 B3u  31 B3g  31 Au   32 B3g  46 Ag   32 Au                 
  2.968   3.083   3.088   3.112   3.115   3.349   3.349   3.359
 46 B3u  45 B2u  44 B1g  33 B1u  33 B2g  47 Ag   33 B3g  33 Au                 
  3.359   3.491   3.491   3.499   3.499   3.516   3.535   3.699
 47 B3u  46 B2u  34 B1u  45 B1g  34 B2g  48 Ag   48 B3u  47 B2u                
  3.702   4.002   4.002   4.007   4.007   4.090   4.091   4.158
 46 B1g  34 B3g  49 Ag   34 Au   49 B3u  47 B1g  48 B2u  49 B2u                
  4.158   4.166   4.166   4.850   4.851  23.591  23.612  23.985
 35 B1u  48 B1g  35 B2g  35 B3g  35 Au   50 Ag   50 B3u  50 B2u                
 23.985  23.991  23.991  24.107  24.107  24.107  24.107  24.213
 36 B1u  49 B1g  36 B2g  51 Ag   36 B3g  51 B3u  36 Au   50 B1g                
 24.218
 51 B2u                                                                        
 
 Beta MOs, Restricted
 -- Occupied --                  
-10.175 -10.175 -10.175 -10.175 -10.175 -10.175 -10.174 -10.174
  1 B3u   1 Ag    1 B1g   1 B2u   1 B2g   1 B1u   2 Ag    2 B3u                
-10.174 -10.174 -10.174 -10.174  -0.858  -0.858  -0.749  -0.749
  1 B3g   1 Au    2 B2u   2 B1g   3 B3u   3 Ag    2 B1u   3 B2u                
 -0.749  -0.749  -0.606  -0.606  -0.606  -0.606  -0.528  -0.528
  2 B2g   3 B1g   2 B3g   4 Ag    2 Au    4 B3u   5 Ag    5 B3u                
 -0.464  -0.464  -0.451  -0.451  -0.426  -0.426  -0.426  -0.426
  4 B2u   4 B1g   3 B1u   3 B2g   4 B1u   5 B2u   4 B2g   5 B1g                
 -0.371  -0.370  -0.348  -0.348  -0.348  -0.348  -0.258  -0.258
  6 Ag    6 B3u   3 B3g   7 Ag    3 Au    7 B3u   6 B2u   5 B1u                
 -0.257  -0.256
  6 B1g   5 B2g                                                                
 -- Virtual --                   
 -0.016  -0.016  -0.012  -0.012  -0.011   0.003   0.006   0.006
  4 B3g   8 Ag    4 Au    8 B3u   9 Ag    9 B3u   7 B2u   6 B1u                
  0.021   0.021   0.028   0.028   0.043   0.043   0.056   0.059
  7 B1g   6 B2g   5 B3g  10 Ag    5 Au   10 B3u   8 B2u  11 Ag                 
  0.068   0.071   0.073   0.087   0.088   0.095   0.107   0.114
 12 Ag   11 B3u   8 B1g   9 B2u   7 B1u   8 B1u   7 B2g  10 B2u                
  0.114   0.115   0.115   0.115   0.117   0.117   0.121   0.124
  9 B1u  13 Ag    9 B1g   8 B2g   6 B3g  14 Ag   12 B3u  11 B2u                
  0.126   0.126   0.129   0.129   0.136   0.138   0.138   0.145
  6 Au   13 B3u  10 B1g   9 B2g  11 B1g   7 B3g  15 Ag   12 B2u                
  0.146   0.151   0.152   0.152   0.162   0.162   0.173   0.173
 10 B1u  13 B2u   8 B3g  16 Ag    7 Au   14 B3u   8 Au   15 B3u                
  0.183   0.187   0.196   0.196   0.200   0.204   0.204   0.221
 12 B1g  16 B3u  11 B1u  14 B2u  15 B2u  10 B2g  13 B1g   9 B3g                
  0.222   0.227   0.230   0.234   0.235   0.259   0.260   0.276
 17 Ag   14 B1g  18 Ag   15 B1g  11 B2g  17 B3u  10 B3g   9 Au                 
  0.280   0.281   0.282   0.285   0.286   0.293   0.293   0.297
 16 B2u  12 B1u  17 B2u  10 Au   18 B3u  16 B1g  12 B2g  19 Ag                 
  0.297   0.313   0.313   0.324   0.345   0.355   0.355   0.360
 11 B3g  11 Au   19 B3u  18 B2u  17 B1g  12 B3g  20 Ag   13 B1u                
  0.360   0.367   0.367   0.374   0.374   0.449   0.459   0.460
 19 B2u  20 B3u  12 Au   18 B1g  13 B2g  14 B1u  14 B2g  21 Ag                 
  0.496   0.542   0.546   0.546   0.553   0.555   0.559   0.561
 21 B3u  20 B2u  21 B2u  15 B1u  13 B3g  13 Au   22 B3u  22 Ag                 
  0.561   0.565   0.565   0.573   0.573   0.599   0.599   0.603
 19 B1g  14 B3g  23 Ag   20 B1g  15 B2g  22 B2u  16 B1u  14 Au                 
  0.603   0.628   0.628   0.633   0.662   0.662   0.663   0.663
 23 B3u  15 B3g  24 Ag   25 Ag   21 B1g  16 B2g  15 Au   24 B3u                
  0.679   0.681   0.724   0.724   0.730   0.730   0.734   0.734
 23 B2u  22 B1g  16 B3g  26 Ag   16 Au   25 B3u  24 B2u  17 B1u                
  0.737   0.742   0.742   0.745   0.771   0.804   0.814   0.837
 26 B3u  23 B1g  17 B2g  24 B1g  27 Ag   25 B2u  27 B3u  26 B2u                
  0.837   0.842   0.854   0.855   0.874   0.877   0.886   0.886
 18 B1u  25 B1g  26 B1g  18 B2g  17 B3g  17 Au   18 B3g  28 Ag                 
  0.898   0.898   0.898   0.908   0.908   0.929   0.929   0.940
 18 Au   28 B3u  27 B2u  28 B2u  19 B1u  27 B1g  19 B2g  29 Ag                 
  0.962   1.015   1.015   1.019   1.019   1.026   1.026   1.082
 29 B3u  20 B1u  20 B2g  30 Ag   19 B3g  19 Au   30 B3u  29 B2u                
  1.082   1.089   1.089   1.143   1.143   1.144   1.144   1.308
 21 B1u  28 B1g  21 B2g  20 B3g  31 Ag   20 Au   31 B3u  32 Ag                 
  1.315   1.315   1.316   1.460   1.461   1.518   1.518   1.532
 32 B3u  29 B1g  30 B2u  22 B1u  22 B2g  23 B1u  31 B2u  23 B2g                
  1.532   1.534   1.535   1.571   1.572   1.574   1.574   1.577
 30 B1g  33 Ag   33 B3u  31 B1g  32 B2u  21 Au   34 B3u  21 B3g                
  1.577   1.645   1.645   1.661   1.661   1.667   1.668   1.672
 34 Ag   35 Ag   22 B3g  22 Au   35 B3u  33 B2u  24 B1u  32 B1g                
  1.672   1.718   1.722   1.779   1.779   1.780   1.780   1.824
 24 B2g  36 B3u  36 Ag   25 B1u  34 B2u  25 B2g  33 B1g  23 B3g                
  1.824   1.838   1.838   1.855   1.856   1.932   1.932   1.933
 37 Ag   23 Au   37 B3u  26 B1u  26 B2g  34 B1g  27 B2g  35 B2u                
  1.933   1.950   1.950   1.954   1.954   1.959   1.962   1.995
 27 B1u  35 B1g  28 B2g  36 B2u  28 B1u  24 B3g  24 Au   37 B2u                
  2.011   2.027   2.027   2.030   2.030   2.087   2.087   2.090
 36 B1g  25 B3g  38 Ag   25 Au   38 B3u  26 B3g  39 Ag   26 Au                 
  2.090   2.330   2.335   2.350   2.350   2.380   2.426   2.426
 39 B3u  38 B2u  37 B1g  27 B3g  27 Au   40 Ag   28 B3g  41 Ag                 
  2.429   2.429   2.445   2.445   2.446   2.480   2.480   2.634
 28 Au   40 B3u  29 B1u  39 B2u  41 B3u  29 B2g  38 B1g  40 B2u                
  2.634   2.635   2.635   2.653   2.665   2.672   2.675   2.691
 30 B1u  39 B1g  30 B2g  40 B1g  42 B3u  41 B2u  42 Ag   43 Ag                 
  2.717   2.723   2.723   2.756   2.756   2.761   2.761   2.767
 41 B1g  42 B2u  31 B1u  29 B3g  44 Ag   42 B1g  31 B2g  43 B3u                
  2.777   2.777   2.806   2.810   2.810   2.835   2.835   2.894
 29 Au   44 B3u  43 B2u  44 B2u  32 B1u  43 B1g  32 B2g  30 B3g                
  2.894   2.907   2.907   2.922   2.922   2.960   2.960   2.968
 45 Ag   30 Au   45 B3u  31 B3g  31 Au   32 B3g  46 Ag   32 Au                 
  2.968   3.083   3.088   3.112   3.115   3.349   3.349   3.359
 46 B3u  45 B2u  44 B1g  33 B1u  33 B2g  47 Ag   33 B3g  33 Au                 
  3.359   3.491   3.491   3.499   3.499   3.516   3.535   3.699
 47 B3u  46 B2u  34 B1u  45 B1g  34 B2g  48 Ag   48 B3u  47 B2u                
  3.702   4.002   4.002   4.007   4.007   4.090   4.091   4.158
 46 B1g  34 B3g  49 Ag   34 Au   49 B3u  47 B1g  48 B2u  49 B2u                
  4.158   4.166   4.166   4.850   4.851  23.591  23.612  23.985
 35 B1u  48 B1g  35 B2g  35 B3g  35 Au   50 Ag   50 B3u  50 B2u                
 23.985  23.991  23.991  24.107  24.107  24.107  24.107  24.213
 36 B1u  49 B1g  36 B2g  51 Ag   36 B3g  51 B3u  36 Au   50 B1g                
 24.218
 51 B2u                                                                        
 --------------------------------------------------------------
 
          Ground-State Mulliken Net Atomic Charges

     Atom                 Charge (a.u.)
  ----------------------------------------
      1 C                    -0.157953
      2 C                    -0.155134
      3 C                    -0.155134
      4 C                    -0.157953
      5 C                    -0.155134
      6 C                    -0.155134
      7 H                     0.156132
      8 H                     0.156044
      9 H                     0.156044
     10 H                     0.156132
     11 H                     0.156044
     12 H                     0.156044
     13 C                    -0.157953
     14 C                    -0.155134
     15 C                    -0.155134
     16 C                    -0.157953
     17 C                    -0.155134
     18 C                    -0.155134
     19 H                     0.156132
     20 H                     0.156044
     21 H                     0.156044
     22 H                     0.156132
     23 H                     0.156044
     24 H                     0.156044
  ----------------------------------------
  Sum of atomic charges =    -0.000000

 -----------------------------------------------------------------
                    Cartesian Multipole Moments
 -----------------------------------------------------------------
    Charge (ESU x 10^10)
                -0.0000
    Dipole Moment (Debye)
         X       0.0000      Y      -0.0000      Z       0.0000
       Tot       0.0000
    Quadrupole Moments (Debye-Ang)
        XX     -81.3638     XY       0.0000     YY     -64.4170
        XZ       0.0000     YZ       0.0000     ZZ     -64.4087
    Octopole Moments (Debye-Ang^2)
       XXX      -0.0000    XXY      -0.0000    XYY       0.0000
       YYY       0.0000    XXZ       0.0000    XYZ      -0.0000
       YYZ      -0.0000    XZZ       0.0000    YZZ      -0.0000
       ZZZ       0.0000
    Hexadecapole Moments (Debye-Ang^3)
      XXXX   -3902.5613   XXXY       0.0000   XXYY    -636.4279
      XYYY       0.0000   YYYY    -551.4630   XXXZ       0.0000
      XXYZ      -0.0000   XYYZ      -0.0000   YYYZ       0.0000
      XXZZ    -636.3380   XYZZ      -0.0000   YYZZ    -183.8096
      XZZZ       0.0000   YZZZ       0.0000   ZZZZ    -551.4034
 -----------------------------------------------------------------
Archival summary:
1\1\vega02.cac.cornell.edu\SP\ProcedureUnspecified\BasisUnspecified\1212\jj585\WedApr1816:10:312018WedApr1816:10:312018\0\\#,ProcedureUnspecified,BasisUnspecified,\\0,1\C\H,1,1.08025\C,1,1.39198,2,120\H,3,1.08025,1,120,2,-0,0\C,1,1.39198,2,120,3,180,0\H,5,1.08025,1,120,2,0,0\C,3,1.39198,1,120,2,180,0\H,7,1.08025,3,120,1,-180,0\C,7,1.39198,3,120,1,-0,0\H,9,1.08025,7,120,3,-180,0\C,9,1.39198,7,120,3,0,0\H,11,1.08025,9,120,7,180,0\H,4,5.6,3,90,1,-90,0\C,13,1.08025,4,90,3,0,0\C,14,1.39198,13,120,4,90,0\H,15,1.08025,14,120,13,-0,0\C,15,1.39198,14,120,13,-180,0\H,17,1.08025,15,120,14,-180,0\C,14,1.39198,13,120,4,-90,0\H,19,1.08025,14,120,13,-0,0\C,19,1.39198,14,120,13,-180,0\H,21,1.08025,19,120,14,-180,0\C,21,1.39198,19,120,14,-0,0\H,23,1.08025,21,120,19,-180,0\\\@

 Total job time:  40.13s(wall), 158.78s(cpu) 
 Wed Apr 18 16:10:31 2018

        *************************************************************
        *                                                           *
        *  Thank you very much for using Q-Chem.  Have a nice day.  *
        *                                                           *
        *************************************************************


0 sent ACK to 0 
now end server 0 ... 
