mFile = /opt/software/qchem/qchem-5.0.1//bin/mpi/machines
Process 0 of 1 is on vega02.cac.cornell.edu - thread support 0
initial socket setup ...start
initial socket setup ...done 
now start server 0 ... 
vega02.cac.cornell.edu 10.84.3
Q-Chem Developer Version! Running on 10.84.3.*
                  Welcome to Q-Chem
     A Quantum Leap Into The Future Of Chemistry


 Q-Chem 5.0, Q-Chem, Inc., Pleasanton, CA (2017)

 Yihan Shao,  Zhengting Gan,  E. Epifanovsky,  A. T. B. Gilbert,  M. Wormit,  
 J. Kussmann,  A. W. Lange,  A. Behn,  Jia Deng,  Xintian Feng,  D. Ghosh,  
 M. Goldey,  P. R. Horn,  L. D. Jacobson,  I. Kaliman,  T. Kus,  A. Landau,  
 Jie Liu,  E. I. Proynov,  R. M. Richard,  R. P. Steele,  E. J. Sundstrom,  
 H. L. Woodcock III,  P. M. Zimmerman,  D. Zuev,  B. Albrecht,  E. Alguire,  
 S. A. Baeppler,  Z. Benda,  Y. A. Bernard,  E. J. Berquist,  K. B. Bravaya,  
 D. Casanova,  Chun-Min Chang,  Yunqing Chen,  A. Chien,  K. D. Closser,  
 M. P. Coons,  S. Dasgupta,  M. Diedenhofen,  Hainam Do,  R. G. Edgar,  
 Po-Tung Fang,  S. Fatehi,  Qingguo Feng,  Qinghui Ge,  A. Ghysels,  
 J. Gomes,  J. Gonthier,  A. Gunina,  M. W. D. Hanson-Heine,  
 P. H. P. Harbach,  A. W. Hauser,  J. E. Herr,  E. G. Hohenstein,  
 Z. C. Holden,  Kerwin Hui,  T.-C. Jagau,  Hyunjun Ji,  B. Kaduk,  
 K. Khistyaev,  Jaehoon Kim,  P. Klunzinger,  K. Koh,  D. Kosenkov,  
 T. Kowalczyk,  C. M. Krauter,  A. Kunitsa,  Ka Un Lao,  A. Laurent,  
 K. V. Lawler,  Joonho Lee,  D. Lefrancois,  S. Lehtola,  D. S. Levine,  
 Yi-Pei Li,  You-Sheng Lin,  Fenglai Liu,  E. Livshits,  A. Luenser,  
 P. Manohar,  E. Mansoor,  S. F. Manzer,  Shan-Ping Mao,  Yuezhi Mao,  
 N. Mardirossian,  A. V. Marenich,  L. A. Martinez-Martinez,  S. A. Maurer,  
 N. J. Mayhall,  S. C. McKenzie,  J.-M. Mewes,  A. F. Morrison,  K. Nanda,  
 T. S. Nguyen-Beck,  R. Olivares-Amaya,  J. A. Parkhill,  T. M. Perrine,  
 F. Plasser,  S. Prager,  A. Prociuk,  D. R. Rehn,  F. Rob,  M. Schneider,  
 N. Sergueev,  S. M. Sharada,  S. Sharma,  D. W. Small,  T. Stauch,  
 T. Stein,  Yu-Chuan Su,  A. J. W. Thom,  T. Tsuchimochi,  L. Vogt,  
 O. Vydrov,  M. A. Watson,  J. Wenzel,  M. de Wergifosse,  T. A. Wesolowski,  
 A. White,  J. Witte,  A. Yamada,  Jun Yang,  K. Yao,  S. Yeganeh,  
 S. R. Yost,  Zhi-Qiang You,  A. Zech,  Igor Ying Zhang,  Xing Zhang,  
 Yan Zhao,  Ying Zhu,  B. R. Brooks,  G. K. L. Chan,  C. J. Cramer,  
 M. S. Gordon,  W. J. Hehre,  A. Klamt,  M. W. Schmidt,  C. D. Sherrill,  
 D. G. Truhlar,  A. Aspuru-Guzik,  R. Baer,  A. T. Bell,  N. A. Besley,  
 Jeng-Da Chai,  A. Dreuw,  B. D. Dunietz,  T. R. Furlani,  Chao-Ping Hsu,  
 Yousung Jung,  Jing Kong,  D. S. Lambrecht,  WanZhen Liang,  C. Ochsenfeld,  
 V. A. Rassolov,  L. V. Slipchenko,  J. E. Subotnik,  T. Van Voorhis,  
 J. M. Herbert,  A. I. Krylov,  P. M. W. Gill,  M. Head-Gordon

 Contributors to earlier versions of Q-Chem not listed above: 
 R. D. Adamson,  B. Austin,  J. Baker,  G. J. O. Beran,  K. Brandhorst,  
 S. T. Brown,  E. F. C. Byrd,  A. K. Chakraborty,  C.-L. Cheng,  
 Siu Hung Chien,  D. M. Chipman,  D. L. Crittenden,  H. Dachsel,  
 R. A. DiStasio Jr.,  R. J. Doerksen,  A. D. Dutoi,  L. Fusti-Molnar,  
 W. A. Goddard III,  A. Golubeva-Zadorozhnaya,  S. R. Gwaltney,  G. Hawkins,  
 A. Heyden,  S. Hirata,  G. Kedziora,  F. J. Keil,  C. Kelley,  Jihan Kim,  
 R. A. King,  R. Z. Khaliullin,  P. P. Korambath,  W. Kurlancheek,  
 A. M. Lee,  M. S. Lee,  S. V. Levchenko,  Ching Yeh Lin,  D. Liotard,  
 R. C. Lochan,  I. Lotan,  P. E. Maslen,  N. Nair,  D. P. O'Neill,  
 D. Neuhauser,  E. Neuscamman,  C. M. Oana,  R. Olson,  B. Peters,  
 R. Peverati,  P. A. Pieniazek,  Y. M. Rhee,  J. Ritchie,  M. A. Rohrdanz,  
 E. Rosta,  N. J. Russ,  H. F. Schaefer III,  N. E. Schultz,  N. Shenvi,  
 A. C. Simmonett,  A. Sodt,  D. Stuck,  K. S. Thanthiriwatte,  V. Vanovschi,  
 Tao Wang,  A. Warshel,  C. F. Williams,  Q. Wu,  X. Xu,  W. Zhang

 Please cite Q-Chem as follows:
 Y. Shao et al., Mol. Phys. 113, 184-215 (2015)
 DOI: 10.1080/00268976.2014.952696

 Q-Chem 5.0.1 for Intel X86 EM64T Linux

 Parts of Q-Chem use Armadillo 5.200.1 (Boston Tea Smuggler).
 http://arma.sourceforge.net/

 Q-Chem begins on Wed Apr 18 16:09:05 2018  

Host: vega02.cac.cornell.edu
0

     Scratch files written to /scratch/jj585/vdw/benzene_distance_5.700_01.save//
 Parallel job on  1  processors

Checking the input file for inconsistencies... 	...done.

--------------------------------------------------------------
User input:
--------------------------------------------------------------
$molecule
0  1
C        +0.00000000        +1.39198000        +5.70000000
C        +1.20549000        +0.69599000        +5.70000000
C        +1.20549000        -0.69599000        +5.70000000
C        +0.00000000        -1.39198000        +5.70000000
C        -1.20549000        -0.69599000        +5.70000000
C        -1.20549000        +0.69599000        +5.70000000
H        +0.00000000        +2.47223000        +5.70000000
H        +2.14101000        +1.23612000        +5.70000000
H        +2.14101000        -1.23612000        +5.70000000
H        +0.00000000        -2.47223000        +5.70000000
H        -2.14101000        -1.23612000        +5.70000000
H        -2.14101000        +1.23612000        +5.70000000
@C        +0.00000000        +1.39198000        +0.00000000
@C        +1.20549000        +0.69599000        +0.00000000
@C        +1.20549000        -0.69599000        +0.00000000
@C        +0.00000000        -1.39198000        +0.00000000
@C        -1.20549000        -0.69599000        +0.00000000
@C        -1.20549000        +0.69599000        +0.00000000
@H        +0.00000000        +2.47223000        +0.00000000
@H        +2.14101000        +1.23612000        +0.00000000
@H        +2.14101000        -1.23612000        +0.00000000
@H        +0.00000000        -2.47223000        +0.00000000
@H        -2.14101000        -1.23612000        +0.00000000
@H        -2.14101000        +1.23612000        +0.00000000
$end

$rem
JOBTYPE                   SP
METHOD                    B3LYP
DFT_D                     d3_op
BASIS                     6-311++G(d,p)
SYMMETRY                  False
THRESH                    12
SCF_CONVERGENCE           8
MAX_SUB_FILE_NUM          128
MEM_STATIC                400
MEM_TOTAL                 4000
$end
--------------------------------------------------------------
 Adding empirical dispersion correction 
 ----------------------------------------------------------------
 Doing -D3(op) with
 s6 =   1.00000
 s8 =   0.78311
 a1 =   0.30000
 a2 =   4.25000
 n  =  10.00000
 -D3 energy without 3body term =     -0.0081861633 hartrees
 ----------------------------------------------------------------
             Standard Nuclear Orientation (Angstroms)
    I     Atom           X                Y                Z
 ----------------------------------------------------------------
    1      C       0.0000000000     1.3919800000     5.7000000000
    2      C       1.2054900000     0.6959900000     5.7000000000
    3      C       1.2054900000    -0.6959900000     5.7000000000
    4      C       0.0000000000    -1.3919800000     5.7000000000
    5      C      -1.2054900000    -0.6959900000     5.7000000000
    6      C      -1.2054900000     0.6959900000     5.7000000000
    7      H       0.0000000000     2.4722300000     5.7000000000
    8      H       2.1410100000     1.2361200000     5.7000000000
    9      H       2.1410100000    -1.2361200000     5.7000000000
   10      H       0.0000000000    -2.4722300000     5.7000000000
   11      H      -2.1410100000    -1.2361200000     5.7000000000
   12      H      -2.1410100000     1.2361200000     5.7000000000
   13      GH      0.0000000000     1.3919800000     0.0000000000
   14      GH      1.2054900000     0.6959900000     0.0000000000
   15      GH      1.2054900000    -0.6959900000     0.0000000000
   16      GH      0.0000000000    -1.3919800000     0.0000000000
   17      GH     -1.2054900000    -0.6959900000     0.0000000000
   18      GH     -1.2054900000     0.6959900000     0.0000000000
   19      GH      0.0000000000     2.4722300000     0.0000000000
   20      GH      2.1410100000     1.2361200000     0.0000000000
   21      GH      2.1410100000    -1.2361200000     0.0000000000
   22      GH      0.0000000000    -2.4722300000     0.0000000000
   23      GH     -2.1410100000    -1.2361200000     0.0000000000
   24      GH     -2.1410100000     1.2361200000     0.0000000000
 ----------------------------------------------------------------
 Nuclear Repulsion Energy =   203.9449308443 hartrees
 There are       21 alpha and       21 beta electrons
 Requested basis set is 6-311++G(d,p)
 There are 132 shells and 348 basis functions

 Total QAlloc Memory Limit   4000 MB
 Mega-Array Size       392 MB
 MEM_STATIC part       400 MB
 A cutoff of  1.0D-12 yielded   6966 shell pairs
 There are     48126 function pairs (     51048 Cartesian)
 
 -------------------------------------------------------
 OpenMP Integral Computing Module                       
 Release: version 1.0, May 2013, Q-Chem Inc. Pittsburgh 
 -------------------------------------------------------
 Integral Job Info:
 Integral job number is                      11
 Integral operator is                         1
 short-range coefficients                     0
 long-range coefficients              100000000
 Omega coefficients                           0
 if combine SR and LR in K                    0
 Integral screening is                        0
 Integral computing path is                   2
 max size of driver memory is            800000
 size of driver memory is                593474
 size of scratch memory is              2361544
 max col of scratch BK array               1296
 max len of scratch array in speh3          155
 max len of scratch index in speh4           18
 max int batch size is                      520
 min int batch size is                       52
 fixed nKL is                                52
 max L of basis functions is                  2
 order of int derivative is                   0
 number of shells is                        132
 number of basis is                         360
 number of cartesian basis is               360
 number of contracted shell pairs          6966
 number of primitive shell pairs          16206
 maxK2 (contraction) of shell pair           36
 max number of K2 of shell pair               1
 max number of CS2 of shell pair           1296
 max number of PS2 of shell pair           2196
 mem total for path MDJ                   87402
 -------------------------------------------------------
 Smallest overlap matrix eigenvalue = 5.81E-07
 Linear dependence detected in AO basis
 Number of orthogonalized atomic orbitals = 347
 Maximum deviation from orthogonality = 1.164E-10

 Scale SEOQF with 1.000000e-01/1.000000e-01/1.000000e-02

 Standard Electronic Orientation quadrupole field applied
 Nucleus-field energy     =    -0.0000000089 hartrees
 Guess from superposition of atomic densities
 Warning:  Energy on first SCF cycle will be non-variational

 Q-Chem warning in module /opt/software/qchem/qchem-5.0.1/libgen/Atomic_PolEc.C, line 58:

 No atomic polarizability available.


 Q-Chem warning in module /opt/software/qchem/qchem-5.0.1/libgen/Atomic_PolEc.C, line 73:

 No atomic polarizability available.


 Q-Chem warning in module /opt/software/qchem/qchem-5.0.1/libgen/Atomic_PolEc.C, line 58:

 No atomic polarizability available.


 Q-Chem warning in module /opt/software/qchem/qchem-5.0.1/libgen/Atomic_PolEc.C, line 73:

 No atomic polarizability available.


 Q-Chem warning in module /opt/software/qchem/qchem-5.0.1/libgen/Atomic_PolEc.C, line 58:

 No atomic polarizability available.


 Q-Chem warning in module /opt/software/qchem/qchem-5.0.1/libgen/Atomic_PolEc.C, line 73:

 No atomic polarizability available.


 Q-Chem warning in module /opt/software/qchem/qchem-5.0.1/libgen/Atomic_PolEc.C, line 58:

 No atomic polarizability available.


 Q-Chem warning in module /opt/software/qchem/qchem-5.0.1/libgen/Atomic_PolEc.C, line 73:

 No atomic polarizability available.


 Q-Chem warning in module /opt/software/qchem/qchem-5.0.1/libgen/Atomic_PolEc.C, line 58:

 No atomic polarizability available.


 Q-Chem warning in module /opt/software/qchem/qchem-5.0.1/libgen/Atomic_PolEc.C, line 73:

 No atomic polarizability available.


 Q-Chem warning in module /opt/software/qchem/qchem-5.0.1/libgen/Atomic_PolEc.C, line 58:

 No atomic polarizability available.


 Q-Chem warning in module /opt/software/qchem/qchem-5.0.1/libgen/Atomic_PolEc.C, line 73:

 No atomic polarizability available.


 Q-Chem warning in module /opt/software/qchem/qchem-5.0.1/libgen/Atomic_PolEc.C, line 58:

 No atomic polarizability available.


 Q-Chem warning in module /opt/software/qchem/qchem-5.0.1/libgen/Atomic_PolEc.C, line 73:

 No atomic polarizability available.


 Q-Chem warning in module /opt/software/qchem/qchem-5.0.1/libgen/Atomic_PolEc.C, line 58:

 No atomic polarizability available.


 Q-Chem warning in module /opt/software/qchem/qchem-5.0.1/libgen/Atomic_PolEc.C, line 73:

 No atomic polarizability available.


 Q-Chem warning in module /opt/software/qchem/qchem-5.0.1/libgen/Atomic_PolEc.C, line 58:

 No atomic polarizability available.


 Q-Chem warning in module /opt/software/qchem/qchem-5.0.1/libgen/Atomic_PolEc.C, line 73:

 No atomic polarizability available.


 Q-Chem warning in module /opt/software/qchem/qchem-5.0.1/libgen/Atomic_PolEc.C, line 58:

 No atomic polarizability available.


 Q-Chem warning in module /opt/software/qchem/qchem-5.0.1/libgen/Atomic_PolEc.C, line 73:

 No atomic polarizability available.


 Q-Chem warning in module /opt/software/qchem/qchem-5.0.1/libgen/Atomic_PolEc.C, line 58:

 No atomic polarizability available.


 Q-Chem warning in module /opt/software/qchem/qchem-5.0.1/libgen/Atomic_PolEc.C, line 73:

 No atomic polarizability available.


 Q-Chem warning in module /opt/software/qchem/qchem-5.0.1/libgen/Atomic_PolEc.C, line 58:

 No atomic polarizability available.


 Q-Chem warning in module /opt/software/qchem/qchem-5.0.1/libgen/Atomic_PolEc.C, line 73:

 No atomic polarizability available.

 A restricted hybrid HF-DFT SCF calculation will be
 performed using Pulay DIIS extrapolation
 Exchange:     0.2000 Hartree-Fock + 0.0800 Slater + 0.7200 B88
 Correlation:  0.1900 VWN1RPA + 0.8100 LYP
 Using SG-1 standard quadrature grid
 Dispersion:   Grimme D3
 SCF converges when DIIS error is below 1.0E-08
 using 4 threads for integral computing
 -------------------------------------------------------
 OpenMP Integral computing Module                
 Release: version 1.0, May 2013, Q-Chem Inc. Pittsburgh 
 -------------------------------------------------------
 -------------------------------------------------------
 OpenMP BLAS3 based DFT computing Module                
 Release: version 1.0, May 2013, Q-Chem Inc. Pittsburgh 
 -------------------------------------------------------
 ---------------------------------------
  Cycle       Energy         DIIS Error
 ---------------------------------------
    1    -233.6360842602      2.44E-02
    2    -232.1993876450      2.65E-03
    3    -232.1632756770      3.09E-03
    4    -232.3188906488      2.08E-04
    5    -232.3194343760      2.98E-05
    6    -232.3194469929      1.86E-06
    7    -232.3194470579      2.63E-07
    8    -232.3194470584      1.76E-07
    9    -232.3194470589      3.50E-08
   10    -232.3194470589      4.55E-09 Convergence criterion met
 ---------------------------------------
 SCF time:  CPU 162.69 s  wall 40.83 s
 SCF   energy in the final basis set = -232.31944706
 Total energy in the final basis set = -232.31944706
 
 --------------------------------------------------------------
 
                    Orbital Energies (a.u.)
 --------------------------------------------------------------
 
 Alpha MOs
 -- Occupied --
-10.178 -10.178 -10.178 -10.177 -10.177 -10.177  -0.861  -0.752
 -0.752  -0.609  -0.609  -0.531  -0.467  -0.454  -0.429  -0.428
 -0.374  -0.351  -0.351  -0.260  -0.260
 -- Virtual --
 -0.017  -0.017  -0.008   0.009   0.009   0.021   0.032   0.032
  0.040   0.040   0.058   0.060   0.064   0.064   0.068   0.090
  0.090   0.091   0.093   0.099   0.115   0.115   0.116   0.119
  0.119   0.127   0.127   0.127   0.134   0.135   0.135   0.140
  0.140   0.155   0.155   0.163   0.166   0.166   0.168   0.180
  0.180   0.185   0.186   0.197   0.199   0.200   0.200   0.207
  0.207   0.221   0.235   0.242   0.243   0.244   0.250   0.250
  0.261   0.261   0.265   0.285   0.286   0.288   0.296   0.296
  0.298   0.306   0.317   0.317   0.334   0.334   0.335   0.359
  0.359   0.367   0.367   0.392   0.399   0.399   0.418   0.437
  0.452   0.477   0.477   0.492   0.520   0.520   0.550   0.550
  0.551   0.555   0.565   0.565   0.579   0.579   0.580   0.582
  0.582   0.604   0.604   0.623   0.623   0.644   0.644   0.670
  0.681   0.688   0.718   0.724   0.724   0.731   0.731   0.735
  0.735   0.756   0.756   0.787   0.790   0.841   0.842   0.853
  0.856   0.857   0.873   0.889   0.889   0.913   0.913   0.942
  0.944   0.944   0.953   1.012   1.019   1.019   1.078   1.078
  1.091   1.115   1.140   1.140   1.158   1.158   1.205   1.205
  1.212   1.305   1.316   1.339   1.409   1.409   1.452   1.458
  1.510   1.519   1.519   1.521   1.521   1.534   1.555   1.555
  1.569   1.573   1.573   1.649   1.649   1.667   1.667   1.713
  1.713   1.716   1.716   1.717   1.722   1.733   1.733   1.768
  1.777   1.777   1.785   1.828   1.828   1.853   1.872   1.878
  1.878   1.930   1.930   1.949   1.949   1.958   1.966   1.966
  1.975   1.999   2.025   2.025   2.034   2.034   2.040   2.040
  2.086   2.086   2.236   2.256   2.267   2.303   2.317   2.331
  2.347   2.380   2.380   2.410   2.410   2.413   2.424   2.424
  2.455   2.459   2.459   2.489   2.489   2.569   2.572   2.572
  2.596   2.596   2.632   2.632   2.667   2.667   2.718   2.739
  2.739   2.750   2.763   2.763   2.781   2.816   2.816   2.896
  2.896   2.905   2.905   2.919   2.961   2.961   3.002   3.002
  3.005   3.005   3.017   3.082   3.110   3.200   3.200   3.307
  3.307   3.350   3.350   3.382   3.388   3.393   3.490   3.490
  3.497   3.529   3.529   3.532   3.553   3.587   3.587   3.697
  3.730   3.730   3.979   4.002   4.002   4.026   4.026   4.088
  4.159   4.159   4.538   4.847   4.872   4.889   4.889   5.113
  5.113   5.611   7.039   7.111   7.111   7.206   7.206   7.347
  7.694   7.737   7.737   7.746   7.786   7.786   7.958   7.959
  7.977   7.977   8.276   8.906   9.625  10.221  10.222  10.287
 10.288  10.358  23.598  23.985  23.985  24.104  24.104  24.213
 69.766  70.024  70.025  70.057  70.058  70.104
 --------------------------------------------------------------
 
          Ground-State Mulliken Net Atomic Charges

     Atom                 Charge (a.u.)
  ----------------------------------------
      1 C                    -0.159674
      2 C                    -0.157098
      3 C                    -0.157098
      4 C                    -0.159674
      5 C                    -0.157098
      6 C                    -0.157098
      7 H                     0.158377
      8 H                     0.158234
      9 H                     0.158234
     10 H                     0.158377
     11 H                     0.158234
     12 H                     0.158234
     13 GH                   -0.000497
     14 GH                   -0.000353
     15 GH                   -0.000353
     16 GH                   -0.000497
     17 GH                   -0.000353
     18 GH                   -0.000353
     19 GH                    0.000056
     20 GH                    0.000085
     21 GH                    0.000085
     22 GH                    0.000056
     23 GH                    0.000085
     24 GH                    0.000085
  ----------------------------------------
  Sum of atomic charges =     0.000000

 -----------------------------------------------------------------
                    Cartesian Multipole Moments
 -----------------------------------------------------------------
    Charge (ESU x 10^10)
                 0.0000
    Dipole Moment (Debye)
         X       0.0000      Y      -0.0000      Z      -0.0039
       Tot       0.0039
    Quadrupole Moments (Debye-Ang)
        XX     -32.1405     XY      -0.0000     YY     -32.1450
        XZ       0.0000     YZ      -0.0000     ZZ     -40.2841
    Octopole Moments (Debye-Ang^2)
       XXX      -0.0000    XXY      -0.0000    XYY       0.0000
       YYY      -0.0000    XXZ    -183.2063    XYZ      -0.0000
       YYZ    -183.2308    XZZ       0.0000    YZZ      -0.0000
       ZZZ    -688.4879
    Hexadecapole Moments (Debye-Ang^3)
      XXXX    -275.0847   XXXY      -0.0000   XXYY     -91.6999
      XYYY      -0.0000   YYYY    -275.1180   XXXZ      -0.0000
      XXYZ      -0.0000   XYYZ       0.0000   YYYZ      -0.0000
      XXZZ   -1109.2383   XYZZ      -0.0000   YYZZ   -1109.3875
      XZZZ       0.0000   YZZZ      -0.0000   ZZZZ   -7897.2845
 -----------------------------------------------------------------
Archival summary:
1\1\vega02.cac.cornell.edu\SP\ProcedureUnspecified\BasisUnspecified\66h12\jj585\WedApr1816:09:472018WedApr1816:09:472018\0\\#,ProcedureUnspecified,BasisUnspecified,\\0,1\C\H,1,1.08025\C,1,1.39198,2,120\H,3,1.08025,1,120,2,-0,0\C,1,1.39198,2,120,3,-180,0\H,5,1.08025,1,120,2,-0,0\C,3,1.39198,1,120,2,-180,0\H,7,1.08025,3,120,1,-180,0\C,7,1.39198,3,120,1,-0,0\H,9,1.08025,7,120,3,-180,0\C,9,1.39198,7,120,3,-0,0\H,11,1.08025,9,120,7,-180,0\Gh,4,5.7,3,90,1,90,0\Gh,13,1.08025,4,90,3,-0,0\Gh,14,1.39198,13,120,4,-90,0\Gh,15,1.08025,14,120,13,-0,0\Gh,15,1.39198,14,120,13,-180,0\Gh,17,1.08025,15,120,14,-180,0\Gh,14,1.39198,13,120,4,90,0\Gh,19,1.08025,14,120,13,-0,0\Gh,19,1.39198,14,120,13,-180,0\Gh,21,1.08025,19,120,14,-180,0\Gh,21,1.39198,19,120,14,-0,0\Gh,23,1.08025,21,120,19,-180,0\\\@

 Total job time:  41.58s(wall), 164.70s(cpu) 
 Wed Apr 18 16:09:47 2018

        *************************************************************
        *                                                           *
        *  Thank you very much for using Q-Chem.  Have a nice day.  *
        *                                                           *
        *************************************************************


0 sent ACK to 0 
now end server 0 ... 
