mFile = /opt/software/qchem/qchem-5.0.1//bin/mpi/machines
Process 0 of 1 is on vega02.cac.cornell.edu - thread support 0
initial socket setup ...start
initial socket setup ...done 
now start server 0 ... 
vega02.cac.cornell.edu 10.84.3
Q-Chem Developer Version! Running on 10.84.3.*
                  Welcome to Q-Chem
     A Quantum Leap Into The Future Of Chemistry


 Q-Chem 5.0, Q-Chem, Inc., Pleasanton, CA (2017)

 Yihan Shao,  Zhengting Gan,  E. Epifanovsky,  A. T. B. Gilbert,  M. Wormit,  
 J. Kussmann,  A. W. Lange,  A. Behn,  Jia Deng,  Xintian Feng,  D. Ghosh,  
 M. Goldey,  P. R. Horn,  L. D. Jacobson,  I. Kaliman,  T. Kus,  A. Landau,  
 Jie Liu,  E. I. Proynov,  R. M. Richard,  R. P. Steele,  E. J. Sundstrom,  
 H. L. Woodcock III,  P. M. Zimmerman,  D. Zuev,  B. Albrecht,  E. Alguire,  
 S. A. Baeppler,  Z. Benda,  Y. A. Bernard,  E. J. Berquist,  K. B. Bravaya,  
 D. Casanova,  Chun-Min Chang,  Yunqing Chen,  A. Chien,  K. D. Closser,  
 M. P. Coons,  S. Dasgupta,  M. Diedenhofen,  Hainam Do,  R. G. Edgar,  
 Po-Tung Fang,  S. Fatehi,  Qingguo Feng,  Qinghui Ge,  A. Ghysels,  
 J. Gomes,  J. Gonthier,  A. Gunina,  M. W. D. Hanson-Heine,  
 P. H. P. Harbach,  A. W. Hauser,  J. E. Herr,  E. G. Hohenstein,  
 Z. C. Holden,  Kerwin Hui,  T.-C. Jagau,  Hyunjun Ji,  B. Kaduk,  
 K. Khistyaev,  Jaehoon Kim,  P. Klunzinger,  K. Koh,  D. Kosenkov,  
 T. Kowalczyk,  C. M. Krauter,  A. Kunitsa,  Ka Un Lao,  A. Laurent,  
 K. V. Lawler,  Joonho Lee,  D. Lefrancois,  S. Lehtola,  D. S. Levine,  
 Yi-Pei Li,  You-Sheng Lin,  Fenglai Liu,  E. Livshits,  A. Luenser,  
 P. Manohar,  E. Mansoor,  S. F. Manzer,  Shan-Ping Mao,  Yuezhi Mao,  
 N. Mardirossian,  A. V. Marenich,  L. A. Martinez-Martinez,  S. A. Maurer,  
 N. J. Mayhall,  S. C. McKenzie,  J.-M. Mewes,  A. F. Morrison,  K. Nanda,  
 T. S. Nguyen-Beck,  R. Olivares-Amaya,  J. A. Parkhill,  T. M. Perrine,  
 F. Plasser,  S. Prager,  A. Prociuk,  D. R. Rehn,  F. Rob,  M. Schneider,  
 N. Sergueev,  S. M. Sharada,  S. Sharma,  D. W. Small,  T. Stauch,  
 T. Stein,  Yu-Chuan Su,  A. J. W. Thom,  T. Tsuchimochi,  L. Vogt,  
 O. Vydrov,  M. A. Watson,  J. Wenzel,  M. de Wergifosse,  T. A. Wesolowski,  
 A. White,  J. Witte,  A. Yamada,  Jun Yang,  K. Yao,  S. Yeganeh,  
 S. R. Yost,  Zhi-Qiang You,  A. Zech,  Igor Ying Zhang,  Xing Zhang,  
 Yan Zhao,  Ying Zhu,  B. R. Brooks,  G. K. L. Chan,  C. J. Cramer,  
 M. S. Gordon,  W. J. Hehre,  A. Klamt,  M. W. Schmidt,  C. D. Sherrill,  
 D. G. Truhlar,  A. Aspuru-Guzik,  R. Baer,  A. T. Bell,  N. A. Besley,  
 Jeng-Da Chai,  A. Dreuw,  B. D. Dunietz,  T. R. Furlani,  Chao-Ping Hsu,  
 Yousung Jung,  Jing Kong,  D. S. Lambrecht,  WanZhen Liang,  C. Ochsenfeld,  
 V. A. Rassolov,  L. V. Slipchenko,  J. E. Subotnik,  T. Van Voorhis,  
 J. M. Herbert,  A. I. Krylov,  P. M. W. Gill,  M. Head-Gordon

 Contributors to earlier versions of Q-Chem not listed above: 
 R. D. Adamson,  B. Austin,  J. Baker,  G. J. O. Beran,  K. Brandhorst,  
 S. T. Brown,  E. F. C. Byrd,  A. K. Chakraborty,  C.-L. Cheng,  
 Siu Hung Chien,  D. M. Chipman,  D. L. Crittenden,  H. Dachsel,  
 R. A. DiStasio Jr.,  R. J. Doerksen,  A. D. Dutoi,  L. Fusti-Molnar,  
 W. A. Goddard III,  A. Golubeva-Zadorozhnaya,  S. R. Gwaltney,  G. Hawkins,  
 A. Heyden,  S. Hirata,  G. Kedziora,  F. J. Keil,  C. Kelley,  Jihan Kim,  
 R. A. King,  R. Z. Khaliullin,  P. P. Korambath,  W. Kurlancheek,  
 A. M. Lee,  M. S. Lee,  S. V. Levchenko,  Ching Yeh Lin,  D. Liotard,  
 R. C. Lochan,  I. Lotan,  P. E. Maslen,  N. Nair,  D. P. O'Neill,  
 D. Neuhauser,  E. Neuscamman,  C. M. Oana,  R. Olson,  B. Peters,  
 R. Peverati,  P. A. Pieniazek,  Y. M. Rhee,  J. Ritchie,  M. A. Rohrdanz,  
 E. Rosta,  N. J. Russ,  H. F. Schaefer III,  N. E. Schultz,  N. Shenvi,  
 A. C. Simmonett,  A. Sodt,  D. Stuck,  K. S. Thanthiriwatte,  V. Vanovschi,  
 Tao Wang,  A. Warshel,  C. F. Williams,  Q. Wu,  X. Xu,  W. Zhang

 Please cite Q-Chem as follows:
 Y. Shao et al., Mol. Phys. 113, 184-215 (2015)
 DOI: 10.1080/00268976.2014.952696

 Q-Chem 5.0.1 for Intel X86 EM64T Linux

 Parts of Q-Chem use Armadillo 5.200.1 (Boston Tea Smuggler).
 http://arma.sourceforge.net/

 Q-Chem begins on Wed Apr 18 16:05:46 2018  

Host: vega02.cac.cornell.edu
0

     Scratch files written to /scratch/jj585/vdw/benzene_distance_4.300_10.save//
 Parallel job on  1  processors

Checking the input file for inconsistencies... 	...done.

--------------------------------------------------------------
User input:
--------------------------------------------------------------
$molecule
0  1
C        +0.00000000        +1.39198000        +0.00000000
C        +1.20549000        +0.69599000        +0.00000000
C        +1.20549000        -0.69599000        +0.00000000
C        +0.00000000        -1.39198000        +0.00000000
C        -1.20549000        -0.69599000        +0.00000000
C        -1.20549000        +0.69599000        +0.00000000
H        +0.00000000        +2.47223000        +0.00000000
H        +2.14101000        +1.23612000        +0.00000000
H        +2.14101000        -1.23612000        +0.00000000
H        +0.00000000        -2.47223000        +0.00000000
H        -2.14101000        -1.23612000        +0.00000000
H        -2.14101000        +1.23612000        +0.00000000
@C        +0.00000000        +1.39198000        +4.30000000
@C        +1.20549000        +0.69599000        +4.30000000
@C        +1.20549000        -0.69599000        +4.30000000
@C        +0.00000000        -1.39198000        +4.30000000
@C        -1.20549000        -0.69599000        +4.30000000
@C        -1.20549000        +0.69599000        +4.30000000
@H        +0.00000000        +2.47223000        +4.30000000
@H        +2.14101000        +1.23612000        +4.30000000
@H        +2.14101000        -1.23612000        +4.30000000
@H        +0.00000000        -2.47223000        +4.30000000
@H        -2.14101000        -1.23612000        +4.30000000
@H        -2.14101000        +1.23612000        +4.30000000
$end

$rem
JOBTYPE                   SP
METHOD                    B3LYP
DFT_D                     d3_op
BASIS                     6-311++G(d,p)
SYMMETRY                  False
THRESH                    12
SCF_CONVERGENCE           8
MAX_SUB_FILE_NUM          128
MEM_STATIC                400
MEM_TOTAL                 4000
$end
--------------------------------------------------------------
 Adding empirical dispersion correction 
 ----------------------------------------------------------------
 Doing -D3(op) with
 s6 =   1.00000
 s8 =   0.78311
 a1 =   0.30000
 a2 =   4.25000
 n  =  10.00000
 -D3 energy without 3body term =     -0.0081861633 hartrees
 ----------------------------------------------------------------
             Standard Nuclear Orientation (Angstroms)
    I     Atom           X                Y                Z
 ----------------------------------------------------------------
    1      C       0.0000000000     1.3919800000     0.0000000000
    2      C       1.2054900000     0.6959900000     0.0000000000
    3      C       1.2054900000    -0.6959900000     0.0000000000
    4      C       0.0000000000    -1.3919800000     0.0000000000
    5      C      -1.2054900000    -0.6959900000     0.0000000000
    6      C      -1.2054900000     0.6959900000     0.0000000000
    7      H       0.0000000000     2.4722300000     0.0000000000
    8      H       2.1410100000     1.2361200000     0.0000000000
    9      H       2.1410100000    -1.2361200000     0.0000000000
   10      H       0.0000000000    -2.4722300000     0.0000000000
   11      H      -2.1410100000    -1.2361200000     0.0000000000
   12      H      -2.1410100000     1.2361200000     0.0000000000
   13      GH      0.0000000000     1.3919800000     4.3000000000
   14      GH      1.2054900000     0.6959900000     4.3000000000
   15      GH      1.2054900000    -0.6959900000     4.3000000000
   16      GH      0.0000000000    -1.3919800000     4.3000000000
   17      GH     -1.2054900000    -0.6959900000     4.3000000000
   18      GH     -1.2054900000     0.6959900000     4.3000000000
   19      GH      0.0000000000     2.4722300000     4.3000000000
   20      GH      2.1410100000     1.2361200000     4.3000000000
   21      GH      2.1410100000    -1.2361200000     4.3000000000
   22      GH      0.0000000000    -2.4722300000     4.3000000000
   23      GH     -2.1410100000    -1.2361200000     4.3000000000
   24      GH     -2.1410100000     1.2361200000     4.3000000000
 ----------------------------------------------------------------
 Nuclear Repulsion Energy =   203.9449308443 hartrees
 There are       21 alpha and       21 beta electrons
 Requested basis set is 6-311++G(d,p)
 There are 132 shells and 348 basis functions

 Total QAlloc Memory Limit   4000 MB
 Mega-Array Size       392 MB
 MEM_STATIC part       400 MB
 A cutoff of  1.0D-12 yielded   7452 shell pairs
 There are     52680 function pairs (     56184 Cartesian)
 
 -------------------------------------------------------
 OpenMP Integral Computing Module                       
 Release: version 1.0, May 2013, Q-Chem Inc. Pittsburgh 
 -------------------------------------------------------
 Integral Job Info:
 Integral job number is                      11
 Integral operator is                         1
 short-range coefficients                     0
 long-range coefficients              100000000
 Omega coefficients                           0
 if combine SR and LR in K                    0
 Integral screening is                        0
 Integral computing path is                   2
 max size of driver memory is            800000
 size of driver memory is                593474
 size of scratch memory is              2361544
 max col of scratch BK array               1296
 max len of scratch array in speh3          155
 max len of scratch index in speh4           18
 max int batch size is                      520
 min int batch size is                       52
 fixed nKL is                                52
 max L of basis functions is                  2
 order of int derivative is                   0
 number of shells is                        132
 number of basis is                         360
 number of cartesian basis is               360
 number of contracted shell pairs          7452
 number of primitive shell pairs          16932
 maxK2 (contraction) of shell pair           36
 max number of K2 of shell pair               1
 max number of CS2 of shell pair           1356
 max number of PS2 of shell pair           2340
 mem total for path MDJ                   96088
 -------------------------------------------------------
 Smallest overlap matrix eigenvalue = 2.69E-07
 Linear dependence detected in AO basis
 Number of orthogonalized atomic orbitals = 346
 Maximum deviation from orthogonality = 2.245E-11

 Scale SEOQF with 1.000000e-01/1.000000e-01/1.000000e-01

 Standard Electronic Orientation quadrupole field applied
 Nucleus-field energy     =     0.0000000057 hartrees
 Guess from superposition of atomic densities
 Warning:  Energy on first SCF cycle will be non-variational

 Q-Chem warning in module /opt/software/qchem/qchem-5.0.1/libgen/Atomic_PolEc.C, line 58:

 No atomic polarizability available.


 Q-Chem warning in module /opt/software/qchem/qchem-5.0.1/libgen/Atomic_PolEc.C, line 73:

 No atomic polarizability available.


 Q-Chem warning in module /opt/software/qchem/qchem-5.0.1/libgen/Atomic_PolEc.C, line 58:

 No atomic polarizability available.


 Q-Chem warning in module /opt/software/qchem/qchem-5.0.1/libgen/Atomic_PolEc.C, line 73:

 No atomic polarizability available.


 Q-Chem warning in module /opt/software/qchem/qchem-5.0.1/libgen/Atomic_PolEc.C, line 58:

 No atomic polarizability available.


 Q-Chem warning in module /opt/software/qchem/qchem-5.0.1/libgen/Atomic_PolEc.C, line 73:

 No atomic polarizability available.


 Q-Chem warning in module /opt/software/qchem/qchem-5.0.1/libgen/Atomic_PolEc.C, line 58:

 No atomic polarizability available.


 Q-Chem warning in module /opt/software/qchem/qchem-5.0.1/libgen/Atomic_PolEc.C, line 73:

 No atomic polarizability available.


 Q-Chem warning in module /opt/software/qchem/qchem-5.0.1/libgen/Atomic_PolEc.C, line 58:

 No atomic polarizability available.


 Q-Chem warning in module /opt/software/qchem/qchem-5.0.1/libgen/Atomic_PolEc.C, line 73:

 No atomic polarizability available.


 Q-Chem warning in module /opt/software/qchem/qchem-5.0.1/libgen/Atomic_PolEc.C, line 58:

 No atomic polarizability available.


 Q-Chem warning in module /opt/software/qchem/qchem-5.0.1/libgen/Atomic_PolEc.C, line 73:

 No atomic polarizability available.


 Q-Chem warning in module /opt/software/qchem/qchem-5.0.1/libgen/Atomic_PolEc.C, line 58:

 No atomic polarizability available.


 Q-Chem warning in module /opt/software/qchem/qchem-5.0.1/libgen/Atomic_PolEc.C, line 73:

 No atomic polarizability available.


 Q-Chem warning in module /opt/software/qchem/qchem-5.0.1/libgen/Atomic_PolEc.C, line 58:

 No atomic polarizability available.


 Q-Chem warning in module /opt/software/qchem/qchem-5.0.1/libgen/Atomic_PolEc.C, line 73:

 No atomic polarizability available.


 Q-Chem warning in module /opt/software/qchem/qchem-5.0.1/libgen/Atomic_PolEc.C, line 58:

 No atomic polarizability available.


 Q-Chem warning in module /opt/software/qchem/qchem-5.0.1/libgen/Atomic_PolEc.C, line 73:

 No atomic polarizability available.


 Q-Chem warning in module /opt/software/qchem/qchem-5.0.1/libgen/Atomic_PolEc.C, line 58:

 No atomic polarizability available.


 Q-Chem warning in module /opt/software/qchem/qchem-5.0.1/libgen/Atomic_PolEc.C, line 73:

 No atomic polarizability available.


 Q-Chem warning in module /opt/software/qchem/qchem-5.0.1/libgen/Atomic_PolEc.C, line 58:

 No atomic polarizability available.


 Q-Chem warning in module /opt/software/qchem/qchem-5.0.1/libgen/Atomic_PolEc.C, line 73:

 No atomic polarizability available.


 Q-Chem warning in module /opt/software/qchem/qchem-5.0.1/libgen/Atomic_PolEc.C, line 58:

 No atomic polarizability available.


 Q-Chem warning in module /opt/software/qchem/qchem-5.0.1/libgen/Atomic_PolEc.C, line 73:

 No atomic polarizability available.

 A restricted hybrid HF-DFT SCF calculation will be
 performed using Pulay DIIS extrapolation
 Exchange:     0.2000 Hartree-Fock + 0.0800 Slater + 0.7200 B88
 Correlation:  0.1900 VWN1RPA + 0.8100 LYP
 Using SG-1 standard quadrature grid
 Dispersion:   Grimme D3
 SCF converges when DIIS error is below 1.0E-08
 using 4 threads for integral computing
 -------------------------------------------------------
 OpenMP Integral computing Module                
 Release: version 1.0, May 2013, Q-Chem Inc. Pittsburgh 
 -------------------------------------------------------
 -------------------------------------------------------
 OpenMP BLAS3 based DFT computing Module                
 Release: version 1.0, May 2013, Q-Chem Inc. Pittsburgh 
 -------------------------------------------------------
 ---------------------------------------
  Cycle       Energy         DIIS Error
 ---------------------------------------
    1    -233.6361916481      2.44E-02
    2    -232.1997331672      2.66E-03
    3    -232.1628465729      3.11E-03
    4    -232.3191856740      2.11E-04
    5    -232.3197457547      3.00E-05
    6    -232.3197585611      2.01E-06
    7    -232.3197586325      4.89E-07
    8    -232.3197586358      1.36E-07
    9    -232.3197586361      1.90E-08
   10    -232.3197586361      8.48E-09 Convergence criterion met
 ---------------------------------------
 SCF time:  CPU 189.79 s  wall 47.63 s
 SCF   energy in the final basis set = -232.31975864
 Total energy in the final basis set = -232.31975864
 
 --------------------------------------------------------------
 
                    Orbital Energies (a.u.)
 --------------------------------------------------------------
 
 Alpha MOs
 -- Occupied --
-10.178 -10.178 -10.178 -10.177 -10.177 -10.177  -0.861  -0.752
 -0.752  -0.609  -0.609  -0.531  -0.467  -0.454  -0.429  -0.429
 -0.374  -0.351  -0.351  -0.260  -0.260
 -- Virtual --
 -0.017  -0.017  -0.008   0.009   0.009   0.021   0.032   0.032
  0.041   0.041   0.060   0.063   0.068   0.068   0.073   0.093
  0.097   0.098   0.098   0.099   0.110   0.110   0.117   0.117
  0.119   0.131   0.131   0.131   0.144   0.145   0.148   0.148
  0.157   0.157   0.166   0.166   0.166   0.167   0.175   0.197
  0.197   0.198   0.198   0.204   0.208   0.208   0.208   0.211
  0.211   0.223   0.245   0.250   0.251   0.252   0.264   0.267
  0.267   0.267   0.267   0.288   0.288   0.295   0.295   0.311
  0.327   0.327   0.334   0.360   0.360   0.362   0.363   0.363
  0.391   0.404   0.406   0.407   0.433   0.433   0.439   0.453
  0.472   0.472   0.507   0.510   0.510   0.544   0.551   0.553
  0.570   0.570   0.572   0.586   0.594   0.595   0.597   0.597
  0.616   0.617   0.630   0.630   0.639   0.650   0.650   0.688
  0.720   0.720   0.720   0.736   0.737   0.737   0.744   0.744
  0.751   0.751   0.770   0.805   0.836   0.836   0.839   0.873
  0.875   0.875   0.892   0.892   0.923   0.924   0.938   0.938
  0.941   0.963   1.012   1.027   1.027   1.096   1.096   1.107
  1.118   1.143   1.143   1.163   1.181   1.182   1.207   1.207
  1.311   1.328   1.369   1.422   1.422   1.443   1.461   1.518
  1.519   1.520   1.524   1.524   1.536   1.550   1.550   1.571
  1.577   1.577   1.657   1.657   1.668   1.668   1.710   1.710
  1.718   1.720   1.720   1.737   1.737   1.739   1.784   1.784
  1.789   1.804   1.837   1.837   1.853   1.873   1.897   1.897
  1.938   1.938   1.956   1.956   1.958   1.967   1.973   1.973
  2.010   2.022   2.022   2.028   2.028   2.040   2.040   2.089
  2.089   2.232   2.245   2.281   2.303   2.315   2.331   2.347
  2.383   2.383   2.410   2.410   2.427   2.427   2.446   2.474
  2.474   2.474   2.494   2.494   2.564   2.569   2.570   2.593
  2.593   2.633   2.633   2.662   2.678   2.725   2.737   2.760
  2.760   2.772   2.772   2.782   2.825   2.825   2.894   2.894
  2.910   2.910   2.919   2.965   2.965   2.994   2.994   2.994
  2.994   3.014   3.085   3.111   3.197   3.197   3.301   3.301
  3.363   3.363   3.373   3.376   3.388   3.501   3.501   3.522
  3.527   3.533   3.533   3.534   3.588   3.588   3.699   3.720
  3.720   3.948   4.004   4.004   4.033   4.033   4.088   4.163
  4.163   4.536   4.847   4.866   4.866   4.878   5.084   5.084
  5.576   7.044   7.116   7.116   7.210   7.210   7.353   7.689
  7.740   7.740   7.767   7.795   7.795   7.965   7.965   7.979
  7.979   8.279   8.894   9.612  10.194  10.194  10.249  10.249
 10.313  23.608  23.989  23.989  24.104  24.104  24.212  69.840
 70.096  70.097  70.127  70.127  70.173
 --------------------------------------------------------------
 
          Ground-State Mulliken Net Atomic Charges

     Atom                 Charge (a.u.)
  ----------------------------------------
      1 C                    -0.159861
      2 C                    -0.157856
      3 C                    -0.157856
      4 C                    -0.159861
      5 C                    -0.157856
      6 C                    -0.157856
      7 H                     0.156912
      8 H                     0.156807
      9 H                     0.156807
     10 H                     0.156912
     11 H                     0.156807
     12 H                     0.156807
     13 GH                   -0.001054
     14 GH                   -0.000436
     15 GH                   -0.000436
     16 GH                   -0.001054
     17 GH                   -0.000436
     18 GH                   -0.000436
     19 GH                    0.002300
     20 GH                    0.002337
     21 GH                    0.002337
     22 GH                    0.002300
     23 GH                    0.002337
     24 GH                    0.002337
  ----------------------------------------
  Sum of atomic charges =    -0.000000

 -----------------------------------------------------------------
                    Cartesian Multipole Moments
 -----------------------------------------------------------------
    Charge (ESU x 10^10)
                 0.0000
    Dipole Moment (Debye)
         X      -0.0000      Y       0.0000      Z      -0.0094
       Tot       0.0094
    Quadrupole Moments (Debye-Ang)
        XX     -32.1700     XY       0.0000     YY     -32.1722
        XZ      -0.0000     YZ      -0.0000     ZZ     -40.2279
    Octopole Moments (Debye-Ang^2)
       XXX      -0.0000    XXY      -0.0000    XYY      -0.0000
       YYY      -0.0000    XXZ      -0.0122    XYZ       0.0000
       YYZ      -0.0080    XZZ       0.0000    YZZ      -0.0000
       ZZZ      -0.0740
    Hexadecapole Moments (Debye-Ang^3)
      XXXX    -275.4152   XXXY       0.0000   XXYY     -91.8052
      XYYY       0.0000   YYYY    -275.4245   XXXZ      -0.0000
      XXYZ      -0.0000   XYYZ      -0.0000   YYYZ      -0.0000
      XXZZ     -64.9741   XYZZ       0.0000   YYZZ     -64.9805
      XZZZ      -0.0000   YZZZ       0.0000   ZZZZ     -50.0509
 -----------------------------------------------------------------
Archival summary:
1\1\vega02.cac.cornell.edu\SP\ProcedureUnspecified\BasisUnspecified\66h12\jj585\WedApr1816:06:342018WedApr1816:06:342018\0\\#,ProcedureUnspecified,BasisUnspecified,\\0,1\C\H,1,1.08025\C,1,1.39198,2,120\H,3,1.08025,1,120,2,-0,0\C,1,1.39198,2,120,3,-180,0\H,5,1.08025,1,120,2,-0,0\C,3,1.39198,1,120,2,-180,0\H,7,1.08025,3,120,1,-180,0\C,7,1.39198,3,120,1,-0,0\H,9,1.08025,7,120,3,-180,0\C,9,1.39198,7,120,3,-0,0\H,11,1.08025,9,120,7,-180,0\Gh,4,4.3,3,90,1,-90,0\Gh,13,1.08025,4,90,3,-0,0\Gh,14,1.39198,13,120,4,90,0\Gh,15,1.08025,14,120,13,-0,0\Gh,15,1.39198,14,120,13,-180,0\Gh,17,1.08025,15,120,14,-180,0\Gh,14,1.39198,13,120,4,-90,0\Gh,19,1.08025,14,120,13,-0,0\Gh,19,1.39198,14,120,13,-180,0\Gh,21,1.08025,19,120,14,-180,0\Gh,21,1.39198,19,120,14,-0,0\Gh,23,1.08025,21,120,19,-180,0\\\@

 Total job time:  48.37s(wall), 191.73s(cpu) 
 Wed Apr 18 16:06:34 2018

        *************************************************************
        *                                                           *
        *  Thank you very much for using Q-Chem.  Have a nice day.  *
        *                                                           *
        *************************************************************


0 sent ACK to 0 
now end server 0 ... 
