mFile = /opt/software/qchem/qchem-5.0.1//bin/mpi/machines
Process 0 of 1 is on vega02.cac.cornell.edu - thread support 0
initial socket setup ...start
initial socket setup ...done 
now start server 0 ... 
vega02.cac.cornell.edu 10.84.3
Q-Chem Developer Version! Running on 10.84.3.*
                  Welcome to Q-Chem
     A Quantum Leap Into The Future Of Chemistry


 Q-Chem 5.0, Q-Chem, Inc., Pleasanton, CA (2017)

 Yihan Shao,  Zhengting Gan,  E. Epifanovsky,  A. T. B. Gilbert,  M. Wormit,  
 J. Kussmann,  A. W. Lange,  A. Behn,  Jia Deng,  Xintian Feng,  D. Ghosh,  
 M. Goldey,  P. R. Horn,  L. D. Jacobson,  I. Kaliman,  T. Kus,  A. Landau,  
 Jie Liu,  E. I. Proynov,  R. M. Richard,  R. P. Steele,  E. J. Sundstrom,  
 H. L. Woodcock III,  P. M. Zimmerman,  D. Zuev,  B. Albrecht,  E. Alguire,  
 S. A. Baeppler,  Z. Benda,  Y. A. Bernard,  E. J. Berquist,  K. B. Bravaya,  
 D. Casanova,  Chun-Min Chang,  Yunqing Chen,  A. Chien,  K. D. Closser,  
 M. P. Coons,  S. Dasgupta,  M. Diedenhofen,  Hainam Do,  R. G. Edgar,  
 Po-Tung Fang,  S. Fatehi,  Qingguo Feng,  Qinghui Ge,  A. Ghysels,  
 J. Gomes,  J. Gonthier,  A. Gunina,  M. W. D. Hanson-Heine,  
 P. H. P. Harbach,  A. W. Hauser,  J. E. Herr,  E. G. Hohenstein,  
 Z. C. Holden,  Kerwin Hui,  T.-C. Jagau,  Hyunjun Ji,  B. Kaduk,  
 K. Khistyaev,  Jaehoon Kim,  P. Klunzinger,  K. Koh,  D. Kosenkov,  
 T. Kowalczyk,  C. M. Krauter,  A. Kunitsa,  Ka Un Lao,  A. Laurent,  
 K. V. Lawler,  Joonho Lee,  D. Lefrancois,  S. Lehtola,  D. S. Levine,  
 Yi-Pei Li,  You-Sheng Lin,  Fenglai Liu,  E. Livshits,  A. Luenser,  
 P. Manohar,  E. Mansoor,  S. F. Manzer,  Shan-Ping Mao,  Yuezhi Mao,  
 N. Mardirossian,  A. V. Marenich,  L. A. Martinez-Martinez,  S. A. Maurer,  
 N. J. Mayhall,  S. C. McKenzie,  J.-M. Mewes,  A. F. Morrison,  K. Nanda,  
 T. S. Nguyen-Beck,  R. Olivares-Amaya,  J. A. Parkhill,  T. M. Perrine,  
 F. Plasser,  S. Prager,  A. Prociuk,  D. R. Rehn,  F. Rob,  M. Schneider,  
 N. Sergueev,  S. M. Sharada,  S. Sharma,  D. W. Small,  T. Stauch,  
 T. Stein,  Yu-Chuan Su,  A. J. W. Thom,  T. Tsuchimochi,  L. Vogt,  
 O. Vydrov,  M. A. Watson,  J. Wenzel,  M. de Wergifosse,  T. A. Wesolowski,  
 A. White,  J. Witte,  A. Yamada,  Jun Yang,  K. Yao,  S. Yeganeh,  
 S. R. Yost,  Zhi-Qiang You,  A. Zech,  Igor Ying Zhang,  Xing Zhang,  
 Yan Zhao,  Ying Zhu,  B. R. Brooks,  G. K. L. Chan,  C. J. Cramer,  
 M. S. Gordon,  W. J. Hehre,  A. Klamt,  M. W. Schmidt,  C. D. Sherrill,  
 D. G. Truhlar,  A. Aspuru-Guzik,  R. Baer,  A. T. Bell,  N. A. Besley,  
 Jeng-Da Chai,  A. Dreuw,  B. D. Dunietz,  T. R. Furlani,  Chao-Ping Hsu,  
 Yousung Jung,  Jing Kong,  D. S. Lambrecht,  WanZhen Liang,  C. Ochsenfeld,  
 V. A. Rassolov,  L. V. Slipchenko,  J. E. Subotnik,  T. Van Voorhis,  
 J. M. Herbert,  A. I. Krylov,  P. M. W. Gill,  M. Head-Gordon

 Contributors to earlier versions of Q-Chem not listed above: 
 R. D. Adamson,  B. Austin,  J. Baker,  G. J. O. Beran,  K. Brandhorst,  
 S. T. Brown,  E. F. C. Byrd,  A. K. Chakraborty,  C.-L. Cheng,  
 Siu Hung Chien,  D. M. Chipman,  D. L. Crittenden,  H. Dachsel,  
 R. A. DiStasio Jr.,  R. J. Doerksen,  A. D. Dutoi,  L. Fusti-Molnar,  
 W. A. Goddard III,  A. Golubeva-Zadorozhnaya,  S. R. Gwaltney,  G. Hawkins,  
 A. Heyden,  S. Hirata,  G. Kedziora,  F. J. Keil,  C. Kelley,  Jihan Kim,  
 R. A. King,  R. Z. Khaliullin,  P. P. Korambath,  W. Kurlancheek,  
 A. M. Lee,  M. S. Lee,  S. V. Levchenko,  Ching Yeh Lin,  D. Liotard,  
 R. C. Lochan,  I. Lotan,  P. E. Maslen,  N. Nair,  D. P. O'Neill,  
 D. Neuhauser,  E. Neuscamman,  C. M. Oana,  R. Olson,  B. Peters,  
 R. Peverati,  P. A. Pieniazek,  Y. M. Rhee,  J. Ritchie,  M. A. Rohrdanz,  
 E. Rosta,  N. J. Russ,  H. F. Schaefer III,  N. E. Schultz,  N. Shenvi,  
 A. C. Simmonett,  A. Sodt,  D. Stuck,  K. S. Thanthiriwatte,  V. Vanovschi,  
 Tao Wang,  A. Warshel,  C. F. Williams,  Q. Wu,  X. Xu,  W. Zhang

 Please cite Q-Chem as follows:
 Y. Shao et al., Mol. Phys. 113, 184-215 (2015)
 DOI: 10.1080/00268976.2014.952696

 Q-Chem 5.0.1 for Intel X86 EM64T Linux

 Parts of Q-Chem use Armadillo 5.200.1 (Boston Tea Smuggler).
 http://arma.sourceforge.net/

 Q-Chem begins on Wed Apr 18 16:08:57 2018  

Host: vega02.cac.cornell.edu
0

     Scratch files written to /scratch/jj585/vdw/benzene_distance_4.900_10.save//
 Parallel job on  1  processors

Checking the input file for inconsistencies... 	...done.

--------------------------------------------------------------
User input:
--------------------------------------------------------------
$molecule
0  1
C        +0.00000000        +1.39198000        +0.00000000
C        +1.20549000        +0.69599000        +0.00000000
C        +1.20549000        -0.69599000        +0.00000000
C        +0.00000000        -1.39198000        +0.00000000
C        -1.20549000        -0.69599000        +0.00000000
C        -1.20549000        +0.69599000        +0.00000000
H        +0.00000000        +2.47223000        +0.00000000
H        +2.14101000        +1.23612000        +0.00000000
H        +2.14101000        -1.23612000        +0.00000000
H        +0.00000000        -2.47223000        +0.00000000
H        -2.14101000        -1.23612000        +0.00000000
H        -2.14101000        +1.23612000        +0.00000000
@C        +0.00000000        +1.39198000        +4.90000000
@C        +1.20549000        +0.69599000        +4.90000000
@C        +1.20549000        -0.69599000        +4.90000000
@C        +0.00000000        -1.39198000        +4.90000000
@C        -1.20549000        -0.69599000        +4.90000000
@C        -1.20549000        +0.69599000        +4.90000000
@H        +0.00000000        +2.47223000        +4.90000000
@H        +2.14101000        +1.23612000        +4.90000000
@H        +2.14101000        -1.23612000        +4.90000000
@H        +0.00000000        -2.47223000        +4.90000000
@H        -2.14101000        -1.23612000        +4.90000000
@H        -2.14101000        +1.23612000        +4.90000000
$end

$rem
JOBTYPE                   SP
METHOD                    B3LYP
DFT_D                     d3_op
BASIS                     6-311++G(d,p)
SYMMETRY                  False
THRESH                    12
SCF_CONVERGENCE           8
MAX_SUB_FILE_NUM          128
MEM_STATIC                400
MEM_TOTAL                 4000
$end
--------------------------------------------------------------
 Adding empirical dispersion correction 
 ----------------------------------------------------------------
 Doing -D3(op) with
 s6 =   1.00000
 s8 =   0.78311
 a1 =   0.30000
 a2 =   4.25000
 n  =  10.00000
 -D3 energy without 3body term =     -0.0081861633 hartrees
 ----------------------------------------------------------------
             Standard Nuclear Orientation (Angstroms)
    I     Atom           X                Y                Z
 ----------------------------------------------------------------
    1      C       0.0000000000     1.3919800000     0.0000000000
    2      C       1.2054900000     0.6959900000     0.0000000000
    3      C       1.2054900000    -0.6959900000     0.0000000000
    4      C       0.0000000000    -1.3919800000     0.0000000000
    5      C      -1.2054900000    -0.6959900000     0.0000000000
    6      C      -1.2054900000     0.6959900000     0.0000000000
    7      H       0.0000000000     2.4722300000     0.0000000000
    8      H       2.1410100000     1.2361200000     0.0000000000
    9      H       2.1410100000    -1.2361200000     0.0000000000
   10      H       0.0000000000    -2.4722300000     0.0000000000
   11      H      -2.1410100000    -1.2361200000     0.0000000000
   12      H      -2.1410100000     1.2361200000     0.0000000000
   13      GH      0.0000000000     1.3919800000     4.9000000000
   14      GH      1.2054900000     0.6959900000     4.9000000000
   15      GH      1.2054900000    -0.6959900000     4.9000000000
   16      GH      0.0000000000    -1.3919800000     4.9000000000
   17      GH     -1.2054900000    -0.6959900000     4.9000000000
   18      GH     -1.2054900000     0.6959900000     4.9000000000
   19      GH      0.0000000000     2.4722300000     4.9000000000
   20      GH      2.1410100000     1.2361200000     4.9000000000
   21      GH      2.1410100000    -1.2361200000     4.9000000000
   22      GH      0.0000000000    -2.4722300000     4.9000000000
   23      GH     -2.1410100000    -1.2361200000     4.9000000000
   24      GH     -2.1410100000     1.2361200000     4.9000000000
 ----------------------------------------------------------------
 Nuclear Repulsion Energy =   203.9449308443 hartrees
 There are       21 alpha and       21 beta electrons
 Requested basis set is 6-311++G(d,p)
 There are 132 shells and 348 basis functions

 Total QAlloc Memory Limit   4000 MB
 Mega-Array Size       392 MB
 MEM_STATIC part       400 MB
 A cutoff of  1.0D-12 yielded   7170 shell pairs
 There are     49992 function pairs (     53148 Cartesian)
 
 -------------------------------------------------------
 OpenMP Integral Computing Module                       
 Release: version 1.0, May 2013, Q-Chem Inc. Pittsburgh 
 -------------------------------------------------------
 Integral Job Info:
 Integral job number is                      11
 Integral operator is                         1
 short-range coefficients                     0
 long-range coefficients              100000000
 Omega coefficients                           0
 if combine SR and LR in K                    0
 Integral screening is                        0
 Integral computing path is                   2
 max size of driver memory is            800000
 size of driver memory is                593474
 size of scratch memory is              2361544
 max col of scratch BK array               1296
 max len of scratch array in speh3          155
 max len of scratch index in speh4           18
 max int batch size is                      520
 min int batch size is                       52
 fixed nKL is                                52
 max L of basis functions is                  2
 order of int derivative is                   0
 number of shells is                        132
 number of basis is                         360
 number of cartesian basis is               360
 number of contracted shell pairs          7170
 number of primitive shell pairs          16422
 maxK2 (contraction) of shell pair           36
 max number of K2 of shell pair               1
 max number of CS2 of shell pair           1332
 max number of PS2 of shell pair           2232
 mem total for path MDJ                   88600
 -------------------------------------------------------
 Smallest overlap matrix eigenvalue = 4.08E-07
 Linear dependence detected in AO basis
 Number of orthogonalized atomic orbitals = 347
 Maximum deviation from orthogonality = 5.003E-11

 Scale SEOQF with 1.000000e-01/1.000000e-01/1.000000e-02

 Standard Electronic Orientation quadrupole field applied
 Nucleus-field energy     =     0.0000000057 hartrees
 Guess from superposition of atomic densities
 Warning:  Energy on first SCF cycle will be non-variational

 Q-Chem warning in module /opt/software/qchem/qchem-5.0.1/libgen/Atomic_PolEc.C, line 58:

 No atomic polarizability available.


 Q-Chem warning in module /opt/software/qchem/qchem-5.0.1/libgen/Atomic_PolEc.C, line 73:

 No atomic polarizability available.


 Q-Chem warning in module /opt/software/qchem/qchem-5.0.1/libgen/Atomic_PolEc.C, line 58:

 No atomic polarizability available.


 Q-Chem warning in module /opt/software/qchem/qchem-5.0.1/libgen/Atomic_PolEc.C, line 73:

 No atomic polarizability available.


 Q-Chem warning in module /opt/software/qchem/qchem-5.0.1/libgen/Atomic_PolEc.C, line 58:

 No atomic polarizability available.


 Q-Chem warning in module /opt/software/qchem/qchem-5.0.1/libgen/Atomic_PolEc.C, line 73:

 No atomic polarizability available.


 Q-Chem warning in module /opt/software/qchem/qchem-5.0.1/libgen/Atomic_PolEc.C, line 58:

 No atomic polarizability available.


 Q-Chem warning in module /opt/software/qchem/qchem-5.0.1/libgen/Atomic_PolEc.C, line 73:

 No atomic polarizability available.


 Q-Chem warning in module /opt/software/qchem/qchem-5.0.1/libgen/Atomic_PolEc.C, line 58:

 No atomic polarizability available.


 Q-Chem warning in module /opt/software/qchem/qchem-5.0.1/libgen/Atomic_PolEc.C, line 73:

 No atomic polarizability available.


 Q-Chem warning in module /opt/software/qchem/qchem-5.0.1/libgen/Atomic_PolEc.C, line 58:

 No atomic polarizability available.


 Q-Chem warning in module /opt/software/qchem/qchem-5.0.1/libgen/Atomic_PolEc.C, line 73:

 No atomic polarizability available.


 Q-Chem warning in module /opt/software/qchem/qchem-5.0.1/libgen/Atomic_PolEc.C, line 58:

 No atomic polarizability available.


 Q-Chem warning in module /opt/software/qchem/qchem-5.0.1/libgen/Atomic_PolEc.C, line 73:

 No atomic polarizability available.


 Q-Chem warning in module /opt/software/qchem/qchem-5.0.1/libgen/Atomic_PolEc.C, line 58:

 No atomic polarizability available.


 Q-Chem warning in module /opt/software/qchem/qchem-5.0.1/libgen/Atomic_PolEc.C, line 73:

 No atomic polarizability available.


 Q-Chem warning in module /opt/software/qchem/qchem-5.0.1/libgen/Atomic_PolEc.C, line 58:

 No atomic polarizability available.


 Q-Chem warning in module /opt/software/qchem/qchem-5.0.1/libgen/Atomic_PolEc.C, line 73:

 No atomic polarizability available.


 Q-Chem warning in module /opt/software/qchem/qchem-5.0.1/libgen/Atomic_PolEc.C, line 58:

 No atomic polarizability available.


 Q-Chem warning in module /opt/software/qchem/qchem-5.0.1/libgen/Atomic_PolEc.C, line 73:

 No atomic polarizability available.


 Q-Chem warning in module /opt/software/qchem/qchem-5.0.1/libgen/Atomic_PolEc.C, line 58:

 No atomic polarizability available.


 Q-Chem warning in module /opt/software/qchem/qchem-5.0.1/libgen/Atomic_PolEc.C, line 73:

 No atomic polarizability available.


 Q-Chem warning in module /opt/software/qchem/qchem-5.0.1/libgen/Atomic_PolEc.C, line 58:

 No atomic polarizability available.


 Q-Chem warning in module /opt/software/qchem/qchem-5.0.1/libgen/Atomic_PolEc.C, line 73:

 No atomic polarizability available.

 A restricted hybrid HF-DFT SCF calculation will be
 performed using Pulay DIIS extrapolation
 Exchange:     0.2000 Hartree-Fock + 0.0800 Slater + 0.7200 B88
 Correlation:  0.1900 VWN1RPA + 0.8100 LYP
 Using SG-1 standard quadrature grid
 Dispersion:   Grimme D3
 SCF converges when DIIS error is below 1.0E-08
 using 4 threads for integral computing
 -------------------------------------------------------
 OpenMP Integral computing Module                
 Release: version 1.0, May 2013, Q-Chem Inc. Pittsburgh 
 -------------------------------------------------------
 -------------------------------------------------------
 OpenMP BLAS3 based DFT computing Module                
 Release: version 1.0, May 2013, Q-Chem Inc. Pittsburgh 
 -------------------------------------------------------
 ---------------------------------------
  Cycle       Energy         DIIS Error
 ---------------------------------------
    1    -233.6360836448      2.44E-02
    2    -232.1994468732      2.65E-03
    3    -232.1628909091      3.09E-03
    4    -232.3189566779      2.09E-04
    5    -232.3195087205      2.99E-05
    6    -232.3195214478      1.93E-06
    7    -232.3195215158      3.91E-07
    8    -232.3195215178      1.59E-07
    9    -232.3195215181      4.70E-08
   10    -232.3195215182      4.44E-09 Convergence criterion met
 ---------------------------------------
 SCF time:  CPU 193.25 s  wall 48.49 s
 SCF   energy in the final basis set = -232.31952152
 Total energy in the final basis set = -232.31952152
 
 --------------------------------------------------------------
 
                    Orbital Energies (a.u.)
 --------------------------------------------------------------
 
 Alpha MOs
 -- Occupied --
-10.178 -10.178 -10.178 -10.177 -10.177 -10.177  -0.861  -0.752
 -0.752  -0.609  -0.609  -0.531  -0.467  -0.454  -0.428  -0.428
 -0.374  -0.351  -0.351  -0.260  -0.260
 -- Virtual --
 -0.017  -0.017  -0.008   0.009   0.009   0.021   0.032   0.032
  0.041   0.041   0.060   0.060   0.066   0.066   0.069   0.092
  0.094   0.095   0.095   0.099   0.112   0.112   0.118   0.118
  0.118   0.128   0.130   0.130   0.141   0.141   0.145   0.145
  0.153   0.156   0.156   0.160   0.166   0.166   0.167   0.194
  0.194   0.194   0.194   0.202   0.202   0.202   0.202   0.206
  0.206   0.220   0.243   0.244   0.250   0.250   0.257   0.258
  0.264   0.264   0.264   0.287   0.287   0.294   0.294   0.308
  0.317   0.323   0.323   0.331   0.337   0.355   0.355   0.361
  0.361   0.385   0.385   0.401   0.413   0.421   0.421   0.441
  0.452   0.482   0.482   0.507   0.515   0.515   0.551   0.551
  0.552   0.557   0.576   0.576   0.577   0.577   0.580   0.598
  0.598   0.607   0.607   0.634   0.634   0.644   0.644   0.680
  0.693   0.721   0.725   0.726   0.726   0.734   0.734   0.736
  0.736   0.754   0.754   0.796   0.800   0.840   0.840   0.860
  0.866   0.866   0.873   0.888   0.889   0.920   0.921   0.946
  0.946   0.948   0.953   1.012   1.022   1.022   1.081   1.081
  1.113   1.118   1.141   1.141   1.177   1.177   1.210   1.210
  1.231   1.309   1.324   1.361   1.418   1.418   1.446   1.458
  1.503   1.522   1.522   1.524   1.524   1.537   1.553   1.553
  1.570   1.576   1.576   1.653   1.653   1.666   1.666   1.704
  1.704   1.712   1.712   1.713   1.731   1.732   1.732   1.781
  1.781   1.787   1.787   1.833   1.833   1.853   1.870   1.891
  1.891   1.931   1.931   1.950   1.950   1.958   1.971   1.972
  1.972   2.006   2.021   2.021   2.026   2.026   2.034   2.034
  2.087   2.087   2.235   2.247   2.277   2.306   2.317   2.333
  2.347   2.386   2.386   2.413   2.413   2.426   2.426   2.437
  2.459   2.468   2.469   2.491   2.491   2.564   2.570   2.570
  2.595   2.595   2.632   2.632   2.669   2.671   2.739   2.750
  2.751   2.765   2.770   2.770   2.782   2.823   2.823   2.899
  2.899   2.904   2.905   2.919   2.963   2.963   2.996   2.996
  2.997   2.997   3.017   3.084   3.110   3.199   3.199   3.305
  3.305   3.355   3.355   3.373   3.381   3.390   3.495   3.495
  3.514   3.532   3.532   3.536   3.559   3.587   3.587   3.698
  3.721   3.721   3.969   4.003   4.003   4.031   4.031   4.088
  4.161   4.161   4.531   4.847   4.870   4.870   4.878   5.088
  5.088   5.584   7.055   7.128   7.129   7.222   7.222   7.364
  7.697   7.738   7.738   7.760   7.793   7.794   7.970   7.970
  7.988   7.988   8.291   8.903   9.621  10.205  10.206  10.261
 10.261  10.329  23.602  23.987  23.987  24.104  24.104  24.214
 69.781  70.039  70.039  70.071  70.071  70.118
 --------------------------------------------------------------
 
          Ground-State Mulliken Net Atomic Charges

     Atom                 Charge (a.u.)
  ----------------------------------------
      1 C                    -0.159290
      2 C                    -0.156659
      3 C                    -0.156659
      4 C                    -0.159290
      5 C                    -0.156659
      6 C                    -0.156659
      7 H                     0.158293
      8 H                     0.158158
      9 H                     0.158158
     10 H                     0.158293
     11 H                     0.158158
     12 H                     0.158158
     13 GH                   -0.002131
     14 GH                   -0.001333
     15 GH                   -0.001333
     16 GH                   -0.002131
     17 GH                   -0.001333
     18 GH                   -0.001333
     19 GH                    0.000863
     20 GH                    0.000966
     21 GH                    0.000966
     22 GH                    0.000863
     23 GH                    0.000966
     24 GH                    0.000966
  ----------------------------------------
  Sum of atomic charges =     0.000000

 -----------------------------------------------------------------
                    Cartesian Multipole Moments
 -----------------------------------------------------------------
    Charge (ESU x 10^10)
                 0.0000
    Dipole Moment (Debye)
         X       0.0000      Y       0.0000      Z       0.0008
       Tot       0.0008
    Quadrupole Moments (Debye-Ang)
        XX     -32.1486     XY      -0.0000     YY     -32.1526
        XZ       0.0000     YZ       0.0000     ZZ     -40.2334
    Octopole Moments (Debye-Ang^2)
       XXX      -0.0000    XXY      -0.0000    XYY       0.0000
       YYY      -0.0000    XXZ      -0.0011    XYZ       0.0000
       YYZ      -0.0012    XZZ       0.0000    YZZ       0.0000
       ZZZ      -0.0127
    Hexadecapole Moments (Debye-Ang^3)
      XXXX    -275.1908   XXXY       0.0000   XXYY     -91.7336
      XYYY      -0.0000   YYYY    -275.2169   XXXZ       0.0000
      XXYZ       0.0000   XYYZ       0.0000   YYYZ       0.0000
      XXZZ     -64.9325   XYZZ      -0.0000   YYZZ     -64.9453
      XZZZ       0.0000   YZZZ       0.0000   ZZZZ     -49.8699
 -----------------------------------------------------------------
Archival summary:
1\1\vega02.cac.cornell.edu\SP\ProcedureUnspecified\BasisUnspecified\66h12\jj585\WedApr1816:09:462018WedApr1816:09:462018\0\\#,ProcedureUnspecified,BasisUnspecified,\\0,1\C\H,1,1.08025\C,1,1.39198,2,120\H,3,1.08025,1,120,2,-0,0\C,1,1.39198,2,120,3,-180,0\H,5,1.08025,1,120,2,-0,0\C,3,1.39198,1,120,2,-180,0\H,7,1.08025,3,120,1,-180,0\C,7,1.39198,3,120,1,-0,0\H,9,1.08025,7,120,3,-180,0\C,9,1.39198,7,120,3,-0,0\H,11,1.08025,9,120,7,-180,0\Gh,4,4.9,3,90,1,-90,0\Gh,13,1.08025,4,90,3,-0,0\Gh,14,1.39198,13,120,4,90,0\Gh,15,1.08025,14,120,13,-0,0\Gh,15,1.39198,14,120,13,-180,0\Gh,17,1.08025,15,120,14,-180,0\Gh,14,1.39198,13,120,4,-90,0\Gh,19,1.08025,14,120,13,-0,0\Gh,19,1.39198,14,120,13,-180,0\Gh,21,1.08025,19,120,14,-180,0\Gh,21,1.39198,19,120,14,-0,0\Gh,23,1.08025,21,120,19,-180,0\\\@

 Total job time:  49.32s(wall), 195.43s(cpu) 
 Wed Apr 18 16:09:46 2018

        *************************************************************
        *                                                           *
        *  Thank you very much for using Q-Chem.  Have a nice day.  *
        *                                                           *
        *************************************************************


0 sent ACK to 0 
now end server 0 ... 
