mFile = /opt/software/qchem/qchem-5.0.1//bin/mpi/machines
Process 0 of 1 is on vega02.cac.cornell.edu - thread support 0
initial socket setup ...start
initial socket setup ...done 
now start server 0 ... 
vega02.cac.cornell.edu 10.84.3
Q-Chem Developer Version! Running on 10.84.3.*
                  Welcome to Q-Chem
     A Quantum Leap Into The Future Of Chemistry


 Q-Chem 5.0, Q-Chem, Inc., Pleasanton, CA (2017)

 Yihan Shao,  Zhengting Gan,  E. Epifanovsky,  A. T. B. Gilbert,  M. Wormit,  
 J. Kussmann,  A. W. Lange,  A. Behn,  Jia Deng,  Xintian Feng,  D. Ghosh,  
 M. Goldey,  P. R. Horn,  L. D. Jacobson,  I. Kaliman,  T. Kus,  A. Landau,  
 Jie Liu,  E. I. Proynov,  R. M. Richard,  R. P. Steele,  E. J. Sundstrom,  
 H. L. Woodcock III,  P. M. Zimmerman,  D. Zuev,  B. Albrecht,  E. Alguire,  
 S. A. Baeppler,  Z. Benda,  Y. A. Bernard,  E. J. Berquist,  K. B. Bravaya,  
 D. Casanova,  Chun-Min Chang,  Yunqing Chen,  A. Chien,  K. D. Closser,  
 M. P. Coons,  S. Dasgupta,  M. Diedenhofen,  Hainam Do,  R. G. Edgar,  
 Po-Tung Fang,  S. Fatehi,  Qingguo Feng,  Qinghui Ge,  A. Ghysels,  
 J. Gomes,  J. Gonthier,  A. Gunina,  M. W. D. Hanson-Heine,  
 P. H. P. Harbach,  A. W. Hauser,  J. E. Herr,  E. G. Hohenstein,  
 Z. C. Holden,  Kerwin Hui,  T.-C. Jagau,  Hyunjun Ji,  B. Kaduk,  
 K. Khistyaev,  Jaehoon Kim,  P. Klunzinger,  K. Koh,  D. Kosenkov,  
 T. Kowalczyk,  C. M. Krauter,  A. Kunitsa,  Ka Un Lao,  A. Laurent,  
 K. V. Lawler,  Joonho Lee,  D. Lefrancois,  S. Lehtola,  D. S. Levine,  
 Yi-Pei Li,  You-Sheng Lin,  Fenglai Liu,  E. Livshits,  A. Luenser,  
 P. Manohar,  E. Mansoor,  S. F. Manzer,  Shan-Ping Mao,  Yuezhi Mao,  
 N. Mardirossian,  A. V. Marenich,  L. A. Martinez-Martinez,  S. A. Maurer,  
 N. J. Mayhall,  S. C. McKenzie,  J.-M. Mewes,  A. F. Morrison,  K. Nanda,  
 T. S. Nguyen-Beck,  R. Olivares-Amaya,  J. A. Parkhill,  T. M. Perrine,  
 F. Plasser,  S. Prager,  A. Prociuk,  D. R. Rehn,  F. Rob,  M. Schneider,  
 N. Sergueev,  S. M. Sharada,  S. Sharma,  D. W. Small,  T. Stauch,  
 T. Stein,  Yu-Chuan Su,  A. J. W. Thom,  T. Tsuchimochi,  L. Vogt,  
 O. Vydrov,  M. A. Watson,  J. Wenzel,  M. de Wergifosse,  T. A. Wesolowski,  
 A. White,  J. Witte,  A. Yamada,  Jun Yang,  K. Yao,  S. Yeganeh,  
 S. R. Yost,  Zhi-Qiang You,  A. Zech,  Igor Ying Zhang,  Xing Zhang,  
 Yan Zhao,  Ying Zhu,  B. R. Brooks,  G. K. L. Chan,  C. J. Cramer,  
 M. S. Gordon,  W. J. Hehre,  A. Klamt,  M. W. Schmidt,  C. D. Sherrill,  
 D. G. Truhlar,  A. Aspuru-Guzik,  R. Baer,  A. T. Bell,  N. A. Besley,  
 Jeng-Da Chai,  A. Dreuw,  B. D. Dunietz,  T. R. Furlani,  Chao-Ping Hsu,  
 Yousung Jung,  Jing Kong,  D. S. Lambrecht,  WanZhen Liang,  C. Ochsenfeld,  
 V. A. Rassolov,  L. V. Slipchenko,  J. E. Subotnik,  T. Van Voorhis,  
 J. M. Herbert,  A. I. Krylov,  P. M. W. Gill,  M. Head-Gordon

 Contributors to earlier versions of Q-Chem not listed above: 
 R. D. Adamson,  B. Austin,  J. Baker,  G. J. O. Beran,  K. Brandhorst,  
 S. T. Brown,  E. F. C. Byrd,  A. K. Chakraborty,  C.-L. Cheng,  
 Siu Hung Chien,  D. M. Chipman,  D. L. Crittenden,  H. Dachsel,  
 R. A. DiStasio Jr.,  R. J. Doerksen,  A. D. Dutoi,  L. Fusti-Molnar,  
 W. A. Goddard III,  A. Golubeva-Zadorozhnaya,  S. R. Gwaltney,  G. Hawkins,  
 A. Heyden,  S. Hirata,  G. Kedziora,  F. J. Keil,  C. Kelley,  Jihan Kim,  
 R. A. King,  R. Z. Khaliullin,  P. P. Korambath,  W. Kurlancheek,  
 A. M. Lee,  M. S. Lee,  S. V. Levchenko,  Ching Yeh Lin,  D. Liotard,  
 R. C. Lochan,  I. Lotan,  P. E. Maslen,  N. Nair,  D. P. O'Neill,  
 D. Neuhauser,  E. Neuscamman,  C. M. Oana,  R. Olson,  B. Peters,  
 R. Peverati,  P. A. Pieniazek,  Y. M. Rhee,  J. Ritchie,  M. A. Rohrdanz,  
 E. Rosta,  N. J. Russ,  H. F. Schaefer III,  N. E. Schultz,  N. Shenvi,  
 A. C. Simmonett,  A. Sodt,  D. Stuck,  K. S. Thanthiriwatte,  V. Vanovschi,  
 Tao Wang,  A. Warshel,  C. F. Williams,  Q. Wu,  X. Xu,  W. Zhang

 Please cite Q-Chem as follows:
 Y. Shao et al., Mol. Phys. 113, 184-215 (2015)
 DOI: 10.1080/00268976.2014.952696

 Q-Chem 5.0.1 for Intel X86 EM64T Linux

 Parts of Q-Chem use Armadillo 5.200.1 (Boston Tea Smuggler).
 http://arma.sourceforge.net/

 Q-Chem begins on Wed Apr 18 16:10:35 2018  

Host: vega02.cac.cornell.edu
0

     Scratch files written to /scratch/jj585/vdw/benzene_distance_4.900_11.save//
 Parallel job on  1  processors

Checking the input file for inconsistencies... 	...done.

--------------------------------------------------------------
User input:
--------------------------------------------------------------
$molecule
0  1
--
0  1
C        +0.00000000        +1.39198000        +0.00000000
C        +1.20549000        +0.69599000        +0.00000000
C        +1.20549000        -0.69599000        +0.00000000
C        +0.00000000        -1.39198000        +0.00000000
C        -1.20549000        -0.69599000        +0.00000000
C        -1.20549000        +0.69599000        +0.00000000
H        +0.00000000        +2.47223000        +0.00000000
H        +2.14101000        +1.23612000        +0.00000000
H        +2.14101000        -1.23612000        +0.00000000
H        +0.00000000        -2.47223000        +0.00000000
H        -2.14101000        -1.23612000        +0.00000000
H        -2.14101000        +1.23612000        +0.00000000
--
0  1
C        +0.00000000        +1.39198000        +4.90000000
C        +1.20549000        +0.69599000        +4.90000000
C        +1.20549000        -0.69599000        +4.90000000
C        +0.00000000        -1.39198000        +4.90000000
C        -1.20549000        -0.69599000        +4.90000000
C        -1.20549000        +0.69599000        +4.90000000
H        +0.00000000        +2.47223000        +4.90000000
H        +2.14101000        +1.23612000        +4.90000000
H        +2.14101000        -1.23612000        +4.90000000
H        +0.00000000        -2.47223000        +4.90000000
H        -2.14101000        -1.23612000        +4.90000000
H        -2.14101000        +1.23612000        +4.90000000
$end

$rem
JOBTYPE                   SP
METHOD                    B3LYP
DFT_D                     d3_op
BASIS                     6-311++G(d,p)
SYMMETRY                  False
THRESH                    12
SCF_CONVERGENCE           8
MAX_SUB_FILE_NUM          128
MEM_STATIC                400
MEM_TOTAL                 4000
$end
--------------------------------------------------------------
 Adding empirical dispersion correction 
 ----------------------------------------------------------------
 Doing -D3(op) with
 s6 =   1.00000
 s8 =   0.78311
 a1 =   0.30000
 a2 =   4.25000
 n  =  10.00000
 -D3 energy without 3body term =     -0.0182096793 hartrees
 ----------------------------------------------------------------
             Standard Nuclear Orientation (Angstroms)
    I     Atom           X                Y                Z
 ----------------------------------------------------------------
    1      C      -2.4500000000     1.3919800000     0.0000000008
    2      C      -2.4500000000     0.6959900007    -1.2054899996
    3      C      -2.4500000000    -0.6959899993    -1.2054900004
    4      C      -2.4500000000    -1.3919800000    -0.0000000008
    5      C      -2.4500000000    -0.6959900007     1.2054899996
    6      C      -2.4500000000     0.6959899993     1.2054900004
    7      H      -2.4500000000     2.4722300000     0.0000000014
    8      H      -2.4500000000     1.2361200012    -2.1410099993
    9      H      -2.4500000000    -1.2361199988    -2.1410100007
   10      H      -2.4500000000    -2.4722300000    -0.0000000014
   11      H      -2.4500000000    -1.2361200012     2.1410099993
   12      H      -2.4500000000     1.2361199988     2.1410100007
   13      C       2.4500000000     1.3919800000     0.0000000008
   14      C       2.4500000000     0.6959900007    -1.2054899996
   15      C       2.4500000000    -0.6959899993    -1.2054900004
   16      C       2.4500000000    -1.3919800000    -0.0000000008
   17      C       2.4500000000    -0.6959900007     1.2054899996
   18      C       2.4500000000     0.6959899993     1.2054900004
   19      H       2.4500000000     2.4722300000     0.0000000014
   20      H       2.4500000000     1.2361200012    -2.1410099993
   21      H       2.4500000000    -1.2361199988    -2.1410100007
   22      H       2.4500000000    -2.4722300000    -0.0000000014
   23      H       2.4500000000    -1.2361200012     2.1410099993
   24      H       2.4500000000     1.2361199988     2.1410100007
 ----------------------------------------------------------------
 Molecular Point Group                 D2h   NOp =  8
 Largest Abelian Subgroup              D2h   NOp =  8
 Nuclear Repulsion Energy =   582.2058028559 hartrees
 There are       42 alpha and       42 beta electrons
 Requested basis set is 6-311++G(d,p)
 There are 132 shells and 348 basis functions

 Total QAlloc Memory Limit   4000 MB
 Mega-Array Size       392 MB
 MEM_STATIC part       400 MB
 A cutoff of  1.0D-12 yielded   7170 shell pairs
 There are     49992 function pairs (     53148 Cartesian)
 
 -------------------------------------------------------
 OpenMP Integral Computing Module                       
 Release: version 1.0, May 2013, Q-Chem Inc. Pittsburgh 
 -------------------------------------------------------
 Integral Job Info:
 Integral job number is                      11
 Integral operator is                         1
 short-range coefficients                     0
 long-range coefficients              100000000
 Omega coefficients                           0
 if combine SR and LR in K                    0
 Integral screening is                        0
 Integral computing path is                   2
 max size of driver memory is            800000
 size of driver memory is                593474
 size of scratch memory is              2361544
 max col of scratch BK array               1296
 max len of scratch array in speh3          155
 max len of scratch index in speh4           18
 max int batch size is                      520
 min int batch size is                       52
 fixed nKL is                                52
 max L of basis functions is                  2
 order of int derivative is                   0
 number of shells is                        132
 number of basis is                         360
 number of cartesian basis is               360
 number of contracted shell pairs          7170
 number of primitive shell pairs          16422
 maxK2 (contraction) of shell pair           36
 max number of K2 of shell pair               1
 max number of CS2 of shell pair           1332
 max number of PS2 of shell pair           2232
 mem total for path MDJ                   88600
 -------------------------------------------------------
 Smallest overlap matrix eigenvalue = 4.08E-07
 Linear dependence detected in AO basis
 Number of orthogonalized atomic orbitals = 347
 Maximum deviation from orthogonality = 2.192E-10

 Scale SEOQF with 1.000000e-01/1.000000e-01/1.000000e-01

 Standard Electronic Orientation quadrupole field applied
 Nucleus-field energy     =     0.0000000142 hartrees
 Guess from superposition of atomic densities
 Warning:  Energy on first SCF cycle will be non-variational
 A restricted hybrid HF-DFT SCF calculation will be
 performed using Pulay DIIS extrapolation
 Exchange:     0.2000 Hartree-Fock + 0.0800 Slater + 0.7200 B88
 Correlation:  0.1900 VWN1RPA + 0.8100 LYP
 Using SG-1 standard quadrature grid
 Dispersion:   Grimme D3
 SCF converges when DIIS error is below 1.0E-08
 using 4 threads for integral computing
 -------------------------------------------------------
 OpenMP Integral computing Module                
 Release: version 1.0, May 2013, Q-Chem Inc. Pittsburgh 
 -------------------------------------------------------
 -------------------------------------------------------
 OpenMP BLAS3 based DFT computing Module                
 Release: version 1.0, May 2013, Q-Chem Inc. Pittsburgh 
 -------------------------------------------------------
 ---------------------------------------
  Cycle       Energy         DIIS Error
 ---------------------------------------
    1    -467.2736099396      3.45E-02
    2    -464.3971544668      3.77E-03
    3    -464.3163386071      4.45E-03
    4    -464.6383070324      3.05E-04
    5    -464.6394750365      4.64E-05
    6    -464.6395044950      1.04E-05
    7    -464.6395061007      2.02E-06
    8    -464.6395061655      1.32E-07
    9    -464.6395061656      6.07E-08
   10    -464.6395061656      8.18E-09 Convergence criterion met
 ---------------------------------------
 SCF time:  CPU 129.18 s  wall 32.43 s
 SCF   energy in the final basis set = -464.63950617
 Total energy in the final basis set = -464.63950617
 
 --------------------------------------------------------------
             Orbital Energies (a.u.) and Symmetries
 --------------------------------------------------------------
 
 Alpha MOs, Restricted
 -- Occupied --                  
-10.174 -10.174 -10.174 -10.174 -10.174 -10.174 -10.173 -10.173
  1 B3u   1 Ag    1 B1g   1 B2u   1 B2g   1 B1u   2 Ag    2 B3u                
-10.173 -10.173 -10.173 -10.173  -0.857  -0.857  -0.749  -0.749
  1 Au    1 B3g   2 B2u   2 B1g   3 Ag    3 B3u   2 B1u   3 B2u                
 -0.748  -0.748  -0.605  -0.605  -0.605  -0.605  -0.528  -0.527
  2 B2g   3 B1g   2 B3g   4 Ag    2 Au    4 B3u   5 Ag    5 B3u                
 -0.464  -0.464  -0.450  -0.450  -0.425  -0.425  -0.425  -0.425
  4 B2u   4 B1g   3 B1u   3 B2g   4 B1u   5 B2u   4 B2g   5 B1g                
 -0.371  -0.368  -0.348  -0.348  -0.347  -0.347  -0.258  -0.258
  6 Ag    6 B3u   3 B3g   7 Ag    3 Au    7 B3u   6 B2u   5 B1u                
 -0.254  -0.254
  6 B1g   5 B2g                                                                
 -- Virtual --                   
 -0.017  -0.016  -0.011  -0.010  -0.010   0.005   0.005   0.006
  4 B3g   8 Ag    9 Ag    4 Au    8 B3u   7 B2u   6 B1u   9 B3u                
  0.023   0.023   0.027   0.027   0.046   0.046   0.055   0.064
  7 B1g   6 B2g   5 B3g  10 Ag    5 Au   10 B3u   8 B2u  11 Ag                 
  0.072   0.075   0.075   0.093   0.093   0.094   0.111   0.112
 11 B3u  12 Ag    8 B1g   9 B2u   7 B1u   8 B1u   7 B2g  10 B2u                
  0.112   0.115   0.115   0.117   0.119   0.119   0.123   0.123
  9 B1u   6 B3g  13 Ag   14 Ag    9 B1g   8 B2g  11 B2u  12 B3u                
  0.128   0.128   0.131   0.131   0.141   0.143   0.143   0.150
  6 Au   13 B3u  10 B1g   9 B2g  11 B1g   7 B3g  15 Ag   12 B2u                
  0.151   0.151   0.154   0.154   0.164   0.164   0.178   0.179
  8 B3g  16 Ag   13 B2u  10 B1u   7 Au   14 B3u   8 Au   15 B3u                
  0.182   0.195   0.195   0.203   0.209   0.209   0.229   0.232
 12 B1g  11 B1u  14 B2u  15 B2u  10 B2g  13 B1g  16 B3u  14 B1g                
  0.233   0.233   0.234   0.258   0.260   0.269   0.269   0.279
  9 B3g  17 Ag   18 Ag   10 B3g  17 B3u  15 B1g  11 B2g   9 Au                 
  0.282   0.282   0.288   0.288   0.294   0.294   0.296   0.296
 16 B2u  12 B1u  10 Au   18 B3u  16 B1g  12 B2g  19 Ag   11 B3g                
  0.297   0.324   0.335   0.335   0.353   0.357   0.357   0.362
 17 B2u  18 B2u  11 Au   19 B3u  17 B1g  20 Ag   12 B3g  13 B1u                
  0.362   0.369   0.369   0.377   0.377   0.450   0.461   0.476
 19 B2u  12 Au   20 B3u  18 B1g  13 B2g  14 B1u  14 B2g  21 Ag                 
  0.503   0.541   0.546   0.553   0.553   0.553   0.556   0.558
 21 B3u  22 B3u  20 B2u  21 B2u  15 B1u  13 B3g  13 Au   22 Ag                 
  0.563   0.575   0.575   0.587   0.587   0.620   0.621   0.626
 19 B1g  14 B3g  23 Ag   20 B1g  15 B2g  14 Au   23 B3u  22 B2u                
  0.626   0.637   0.637   0.650   0.650   0.662   0.662   0.680
 16 B1u  15 B3g  24 Ag   21 B1g  16 B2g  15 Au   24 B3u  23 B2u                
  0.689   0.693   0.725   0.726   0.731   0.731   0.735   0.735
 22 B1g  25 Ag   16 B3g  26 Ag   16 Au   25 B3u  24 B2u  17 B1u                
  0.745   0.745   0.756   0.772   0.792   0.805   0.809   0.839
 23 B1g  17 B2g  26 B3u  24 B1g  27 Ag   25 B2u  27 B3u  25 B1g                
  0.841   0.842   0.863   0.864   0.874   0.878   0.890   0.890
 26 B2u  18 B1u  26 B1g  18 B2g  17 B3g  17 Au   18 Au   28 B3u                
  0.899   0.899   0.913   0.913   0.923   0.932   0.932   0.944
 18 B3g  28 Ag   27 B1g  19 B2g  27 B2u  28 B2u  19 B1u  29 Ag                 
  0.982   1.013   1.013   1.015   1.016   1.036   1.036   1.081
 29 B3u  30 Ag   19 B3g  20 B1u  20 B2g  19 Au   30 B3u  29 B2u                
  1.081   1.109   1.109   1.143   1.143   1.148   1.148   1.306
 21 B1u  28 B1g  21 B2g  20 B3g  31 Ag   20 Au   31 B3u  30 B2u                
  1.313   1.317   1.338   1.461   1.463   1.526   1.527   1.530
 32 Ag   32 B3u  29 B1g  22 B1u  22 B2g  23 B1u  31 B2u  33 B3u                
  1.530   1.530   1.543   1.565   1.572   1.572   1.584   1.584
 23 B2g  30 B1g  33 Ag   32 B2u  21 B3g  34 Ag   21 Au   34 B3u                
  1.586   1.651   1.651   1.667   1.667   1.668   1.668   1.678
 31 B1g  35 Ag   22 B3g  33 B2u  24 B1u  22 Au   35 B3u  32 B1g                
  1.678   1.723   1.724   1.778   1.778   1.790   1.790   1.829
 24 B2g  36 B3u  36 Ag   25 B1u  34 B2u  25 B2g  33 B1g  23 B3g                
  1.829   1.842   1.842   1.855   1.858   1.934   1.934   1.934
 37 Ag   23 Au   37 B3u  26 B1u  26 B2g  35 B2u  27 B1u  34 B1g                
  1.934   1.952   1.952   1.955   1.955   1.958   1.964   2.002
 27 B2g  35 B1g  28 B2g  36 B2u  28 B1u  24 B3g  24 Au   37 B2u                
  2.014   2.026   2.026   2.034   2.034   2.088   2.088   2.093
 36 B1g  25 B3g  38 Ag   25 Au   38 B3u  26 B3g  39 Ag   26 Au                 
  2.093   2.332   2.337   2.351   2.351   2.397   2.424   2.424
 39 B3u  38 B2u  37 B1g  27 B3g  27 Au   40 Ag   28 B3g  41 Ag                 
  2.434   2.434   2.453   2.453   2.479   2.490   2.490   2.635
 28 Au   40 B3u  29 B1u  39 B2u  41 B3u  29 B2g  38 B1g  40 B2u                
  2.635   2.636   2.636   2.657   2.664   2.668   2.673   2.731
 30 B1u  39 B1g  30 B2g  40 B1g  42 B3u  41 B2u  42 Ag   41 B1g                
  2.740   2.741   2.741   2.757   2.764   2.765   2.771   2.771
 43 Ag   42 B2u  31 B1u  43 B3u  42 B1g  31 B2g  29 Au   44 B3u                
  2.774   2.774   2.821   2.821   2.835   2.836   2.836   2.900
 29 B3g  44 Ag   43 B1g  32 B2g  43 B2u  44 B2u  32 B1u  30 B3g                
  2.900   2.908   2.908   2.922   2.923   2.962   2.962   2.972
 45 Ag   30 Au   45 B3u  31 B3g  31 Au   32 B3g  46 Ag   32 Au                 
  2.972   3.085   3.094   3.113   3.116   3.349   3.349   3.368
 46 B3u  45 B2u  44 B1g  33 B1u  33 B2g  47 Ag   33 B3g  33 Au                 
  3.368   3.492   3.492   3.506   3.506   3.529   3.538   3.701
 47 B3u  46 B2u  34 B1u  45 B1g  34 B2g  48 Ag   48 B3u  47 B2u                
  3.702   4.005   4.005   4.008   4.008   4.090   4.093   4.163
 46 B1g  34 B3g  49 Ag   34 Au   49 B3u  48 B2u  47 B1g  49 B2u                
  4.163   4.166   4.166   4.850   4.852  23.598  23.613  23.989
 35 B1u  48 B1g  35 B2g  35 B3g  35 Au   50 Ag   50 B3u  50 B2u                
 23.989  23.993  23.993  24.107  24.107  24.108  24.108  24.216
 36 B1u  49 B1g  36 B2g  51 Ag   36 B3g  51 B3u  36 Au   50 B1g                
 24.219
 51 B2u                                                                        
 
 Beta MOs, Restricted
 -- Occupied --                  
-10.174 -10.174 -10.174 -10.174 -10.174 -10.174 -10.173 -10.173
  1 B3u   1 Ag    1 B1g   1 B2u   1 B2g   1 B1u   2 Ag    2 B3u                
-10.173 -10.173 -10.173 -10.173  -0.857  -0.857  -0.749  -0.749
  1 Au    1 B3g   2 B2u   2 B1g   3 Ag    3 B3u   2 B1u   3 B2u                
 -0.748  -0.748  -0.605  -0.605  -0.605  -0.605  -0.528  -0.527
  2 B2g   3 B1g   2 B3g   4 Ag    2 Au    4 B3u   5 Ag    5 B3u                
 -0.464  -0.464  -0.450  -0.450  -0.425  -0.425  -0.425  -0.425
  4 B2u   4 B1g   3 B1u   3 B2g   4 B1u   5 B2u   4 B2g   5 B1g                
 -0.371  -0.368  -0.348  -0.348  -0.347  -0.347  -0.258  -0.258
  6 Ag    6 B3u   3 B3g   7 Ag    3 Au    7 B3u   6 B2u   5 B1u                
 -0.254  -0.254
  6 B1g   5 B2g                                                                
 -- Virtual --                   
 -0.017  -0.016  -0.011  -0.010  -0.010   0.005   0.005   0.006
  4 B3g   8 Ag    9 Ag    4 Au    8 B3u   7 B2u   6 B1u   9 B3u                
  0.023   0.023   0.027   0.027   0.046   0.046   0.055   0.064
  7 B1g   6 B2g   5 B3g  10 Ag    5 Au   10 B3u   8 B2u  11 Ag                 
  0.072   0.075   0.075   0.093   0.093   0.094   0.111   0.112
 11 B3u  12 Ag    8 B1g   9 B2u   7 B1u   8 B1u   7 B2g  10 B2u                
  0.112   0.115   0.115   0.117   0.119   0.119   0.123   0.123
  9 B1u   6 B3g  13 Ag   14 Ag    9 B1g   8 B2g  11 B2u  12 B3u                
  0.128   0.128   0.131   0.131   0.141   0.143   0.143   0.150
  6 Au   13 B3u  10 B1g   9 B2g  11 B1g   7 B3g  15 Ag   12 B2u                
  0.151   0.151   0.154   0.154   0.164   0.164   0.178   0.179
  8 B3g  16 Ag   13 B2u  10 B1u   7 Au   14 B3u   8 Au   15 B3u                
  0.182   0.195   0.195   0.203   0.209   0.209   0.229   0.232
 12 B1g  11 B1u  14 B2u  15 B2u  10 B2g  13 B1g  16 B3u  14 B1g                
  0.233   0.233   0.234   0.258   0.260   0.269   0.269   0.279
  9 B3g  17 Ag   18 Ag   10 B3g  17 B3u  15 B1g  11 B2g   9 Au                 
  0.282   0.282   0.288   0.288   0.294   0.294   0.296   0.296
 16 B2u  12 B1u  10 Au   18 B3u  16 B1g  12 B2g  19 Ag   11 B3g                
  0.297   0.324   0.335   0.335   0.353   0.357   0.357   0.362
 17 B2u  18 B2u  11 Au   19 B3u  17 B1g  20 Ag   12 B3g  13 B1u                
  0.362   0.369   0.369   0.377   0.377   0.450   0.461   0.476
 19 B2u  12 Au   20 B3u  18 B1g  13 B2g  14 B1u  14 B2g  21 Ag                 
  0.503   0.541   0.546   0.553   0.553   0.553   0.556   0.558
 21 B3u  22 B3u  20 B2u  21 B2u  15 B1u  13 B3g  13 Au   22 Ag                 
  0.563   0.575   0.575   0.587   0.587   0.620   0.621   0.626
 19 B1g  14 B3g  23 Ag   20 B1g  15 B2g  14 Au   23 B3u  22 B2u                
  0.626   0.637   0.637   0.650   0.650   0.662   0.662   0.680
 16 B1u  15 B3g  24 Ag   21 B1g  16 B2g  15 Au   24 B3u  23 B2u                
  0.689   0.693   0.725   0.726   0.731   0.731   0.735   0.735
 22 B1g  25 Ag   16 B3g  26 Ag   16 Au   25 B3u  24 B2u  17 B1u                
  0.745   0.745   0.756   0.772   0.792   0.805   0.809   0.839
 23 B1g  17 B2g  26 B3u  24 B1g  27 Ag   25 B2u  27 B3u  25 B1g                
  0.841   0.842   0.863   0.864   0.874   0.878   0.890   0.890
 26 B2u  18 B1u  26 B1g  18 B2g  17 B3g  17 Au   18 Au   28 B3u                
  0.899   0.899   0.913   0.913   0.923   0.932   0.932   0.944
 18 B3g  28 Ag   27 B1g  19 B2g  27 B2u  28 B2u  19 B1u  29 Ag                 
  0.982   1.013   1.013   1.015   1.016   1.036   1.036   1.081
 29 B3u  30 Ag   19 B3g  20 B1u  20 B2g  19 Au   30 B3u  29 B2u                
  1.081   1.109   1.109   1.143   1.143   1.148   1.148   1.306
 21 B1u  28 B1g  21 B2g  20 B3g  31 Ag   20 Au   31 B3u  30 B2u                
  1.313   1.317   1.338   1.461   1.463   1.526   1.527   1.530
 32 Ag   32 B3u  29 B1g  22 B1u  22 B2g  23 B1u  31 B2u  33 B3u                
  1.530   1.530   1.543   1.565   1.572   1.572   1.584   1.584
 23 B2g  30 B1g  33 Ag   32 B2u  21 B3g  34 Ag   21 Au   34 B3u                
  1.586   1.651   1.651   1.667   1.667   1.668   1.668   1.678
 31 B1g  35 Ag   22 B3g  33 B2u  24 B1u  22 Au   35 B3u  32 B1g                
  1.678   1.723   1.724   1.778   1.778   1.790   1.790   1.829
 24 B2g  36 B3u  36 Ag   25 B1u  34 B2u  25 B2g  33 B1g  23 B3g                
  1.829   1.842   1.842   1.855   1.858   1.934   1.934   1.934
 37 Ag   23 Au   37 B3u  26 B1u  26 B2g  35 B2u  27 B1u  34 B1g                
  1.934   1.952   1.952   1.955   1.955   1.958   1.964   2.002
 27 B2g  35 B1g  28 B2g  36 B2u  28 B1u  24 B3g  24 Au   37 B2u                
  2.014   2.026   2.026   2.034   2.034   2.088   2.088   2.093
 36 B1g  25 B3g  38 Ag   25 Au   38 B3u  26 B3g  39 Ag   26 Au                 
  2.093   2.332   2.337   2.351   2.351   2.397   2.424   2.424
 39 B3u  38 B2u  37 B1g  27 B3g  27 Au   40 Ag   28 B3g  41 Ag                 
  2.434   2.434   2.453   2.453   2.479   2.490   2.490   2.635
 28 Au   40 B3u  29 B1u  39 B2u  41 B3u  29 B2g  38 B1g  40 B2u                
  2.635   2.636   2.636   2.657   2.664   2.668   2.673   2.731
 30 B1u  39 B1g  30 B2g  40 B1g  42 B3u  41 B2u  42 Ag   41 B1g                
  2.740   2.741   2.741   2.757   2.764   2.765   2.771   2.771
 43 Ag   42 B2u  31 B1u  43 B3u  42 B1g  31 B2g  29 Au   44 B3u                
  2.774   2.774   2.821   2.821   2.835   2.836   2.836   2.900
 29 B3g  44 Ag   43 B1g  32 B2g  43 B2u  44 B2u  32 B1u  30 B3g                
  2.900   2.908   2.908   2.922   2.923   2.962   2.962   2.972
 45 Ag   30 Au   45 B3u  31 B3g  31 Au   32 B3g  46 Ag   32 Au                 
  2.972   3.085   3.094   3.113   3.116   3.349   3.349   3.368
 46 B3u  45 B2u  44 B1g  33 B1u  33 B2g  47 Ag   33 B3g  33 Au                 
  3.368   3.492   3.492   3.506   3.506   3.529   3.538   3.701
 47 B3u  46 B2u  34 B1u  45 B1g  34 B2g  48 Ag   48 B3u  47 B2u                
  3.702   4.005   4.005   4.008   4.008   4.090   4.093   4.163
 46 B1g  34 B3g  49 Ag   34 Au   49 B3u  48 B2u  47 B1g  49 B2u                
  4.163   4.166   4.166   4.850   4.852  23.598  23.613  23.989
 35 B1u  48 B1g  35 B2g  35 B3g  35 Au   50 Ag   50 B3u  50 B2u                
 23.989  23.993  23.993  24.107  24.107  24.108  24.108  24.216
 36 B1u  49 B1g  36 B2g  51 Ag   36 B3g  51 B3u  36 Au   50 B1g                
 24.219
 51 B2u                                                                        
 --------------------------------------------------------------
 
          Ground-State Mulliken Net Atomic Charges

     Atom                 Charge (a.u.)
  ----------------------------------------
      1 C                    -0.158040
      2 C                    -0.154096
      3 C                    -0.154096
      4 C                    -0.158040
      5 C                    -0.154096
      6 C                    -0.154096
      7 H                     0.155375
      8 H                     0.155429
      9 H                     0.155429
     10 H                     0.155375
     11 H                     0.155429
     12 H                     0.155429
     13 C                    -0.158040
     14 C                    -0.154096
     15 C                    -0.154096
     16 C                    -0.158040
     17 C                    -0.154096
     18 C                    -0.154096
     19 H                     0.155375
     20 H                     0.155429
     21 H                     0.155429
     22 H                     0.155375
     23 H                     0.155429
     24 H                     0.155429
  ----------------------------------------
  Sum of atomic charges =     0.000000

 -----------------------------------------------------------------
                    Cartesian Multipole Moments
 -----------------------------------------------------------------
    Charge (ESU x 10^10)
                 0.0000
    Dipole Moment (Debye)
         X      -0.0000      Y       0.0000      Z       0.0000
       Tot       0.0000
    Quadrupole Moments (Debye-Ang)
        XX     -81.5377     XY      -0.0000     YY     -64.5018
        XZ      -0.0000     YZ      -0.0000     ZZ     -64.4933
    Octopole Moments (Debye-Ang^2)
       XXX       0.0000    XXY      -0.0000    XYY      -0.0000
       YYY       0.0000    XXZ       0.0000    XYZ       0.0000
       YYZ      -0.0000    XZZ      -0.0000    YZZ       0.0000
       ZZZ       0.0000
    Hexadecapole Moments (Debye-Ang^3)
      XXXX   -3014.4021   XXXY      -0.0000   XXYY    -518.8691
      XYYY      -0.0000   YYYY    -552.3086   XXXZ       0.0000
      XXYZ      -0.0000   XYYZ      -0.0000   YYYZ       0.0000
      XXZZ    -518.7971   XYZZ      -0.0000   YYZZ    -184.0915
      XZZZ       0.0000   YZZZ      -0.0000   ZZZZ    -552.2553
 -----------------------------------------------------------------
Archival summary:
1\1\vega02.cac.cornell.edu\SP\ProcedureUnspecified\BasisUnspecified\1212\jj585\WedApr1816:11:082018WedApr1816:11:082018\0\\#,ProcedureUnspecified,BasisUnspecified,\\0,1\C\H,1,1.08025\C,1,1.39198,2,120\H,3,1.08025,1,120,2,-0,0\C,1,1.39198,2,120,3,180,0\H,5,1.08025,1,120,2,-0,0\C,3,1.39198,1,120,2,180,0\H,7,1.08025,3,120,1,180,0\C,7,1.39198,3,120,1,-0,0\H,9,1.08025,7,120,3,-180,0\C,9,1.39198,7,120,3,0,0\H,11,1.08025,9,120,7,-180,0\H,4,4.9,3,90,1,-90,0\C,13,1.08025,4,90,3,0,0\C,14,1.39198,13,120,4,90,0\H,15,1.08025,14,120,13,0,0\C,15,1.39198,14,120,13,-180,0\H,17,1.08025,15,120,14,-180,0\C,14,1.39198,13,120,4,-90,0\H,19,1.08025,14,120,13,0,0\C,19,1.39198,14,120,13,180,0\H,21,1.08025,19,120,14,180,0\C,21,1.39198,19,120,14,-0,0\H,23,1.08025,21,120,19,-180,0\\\@

 Total job time:  33.10s(wall), 131.12s(cpu) 
 Wed Apr 18 16:11:08 2018

        *************************************************************
        *                                                           *
        *  Thank you very much for using Q-Chem.  Have a nice day.  *
        *                                                           *
        *************************************************************


0 sent ACK to 0 
now end server 0 ... 
