mFile = /opt/software/qchem/qchem-5.0.1//bin/mpi/machines
Process 0 of 1 is on vega02.cac.cornell.edu - thread support 0
initial socket setup ...start
initial socket setup ...done 
now start server 0 ... 
vega02.cac.cornell.edu 10.84.3
Q-Chem Developer Version! Running on 10.84.3.*
                  Welcome to Q-Chem
     A Quantum Leap Into The Future Of Chemistry


 Q-Chem 5.0, Q-Chem, Inc., Pleasanton, CA (2017)

 Yihan Shao,  Zhengting Gan,  E. Epifanovsky,  A. T. B. Gilbert,  M. Wormit,  
 J. Kussmann,  A. W. Lange,  A. Behn,  Jia Deng,  Xintian Feng,  D. Ghosh,  
 M. Goldey,  P. R. Horn,  L. D. Jacobson,  I. Kaliman,  T. Kus,  A. Landau,  
 Jie Liu,  E. I. Proynov,  R. M. Richard,  R. P. Steele,  E. J. Sundstrom,  
 H. L. Woodcock III,  P. M. Zimmerman,  D. Zuev,  B. Albrecht,  E. Alguire,  
 S. A. Baeppler,  Z. Benda,  Y. A. Bernard,  E. J. Berquist,  K. B. Bravaya,  
 D. Casanova,  Chun-Min Chang,  Yunqing Chen,  A. Chien,  K. D. Closser,  
 M. P. Coons,  S. Dasgupta,  M. Diedenhofen,  Hainam Do,  R. G. Edgar,  
 Po-Tung Fang,  S. Fatehi,  Qingguo Feng,  Qinghui Ge,  A. Ghysels,  
 J. Gomes,  J. Gonthier,  A. Gunina,  M. W. D. Hanson-Heine,  
 P. H. P. Harbach,  A. W. Hauser,  J. E. Herr,  E. G. Hohenstein,  
 Z. C. Holden,  Kerwin Hui,  T.-C. Jagau,  Hyunjun Ji,  B. Kaduk,  
 K. Khistyaev,  Jaehoon Kim,  P. Klunzinger,  K. Koh,  D. Kosenkov,  
 T. Kowalczyk,  C. M. Krauter,  A. Kunitsa,  Ka Un Lao,  A. Laurent,  
 K. V. Lawler,  Joonho Lee,  D. Lefrancois,  S. Lehtola,  D. S. Levine,  
 Yi-Pei Li,  You-Sheng Lin,  Fenglai Liu,  E. Livshits,  A. Luenser,  
 P. Manohar,  E. Mansoor,  S. F. Manzer,  Shan-Ping Mao,  Yuezhi Mao,  
 N. Mardirossian,  A. V. Marenich,  L. A. Martinez-Martinez,  S. A. Maurer,  
 N. J. Mayhall,  S. C. McKenzie,  J.-M. Mewes,  A. F. Morrison,  K. Nanda,  
 T. S. Nguyen-Beck,  R. Olivares-Amaya,  J. A. Parkhill,  T. M. Perrine,  
 F. Plasser,  S. Prager,  A. Prociuk,  D. R. Rehn,  F. Rob,  M. Schneider,  
 N. Sergueev,  S. M. Sharada,  S. Sharma,  D. W. Small,  T. Stauch,  
 T. Stein,  Yu-Chuan Su,  A. J. W. Thom,  T. Tsuchimochi,  L. Vogt,  
 O. Vydrov,  M. A. Watson,  J. Wenzel,  M. de Wergifosse,  T. A. Wesolowski,  
 A. White,  J. Witte,  A. Yamada,  Jun Yang,  K. Yao,  S. Yeganeh,  
 S. R. Yost,  Zhi-Qiang You,  A. Zech,  Igor Ying Zhang,  Xing Zhang,  
 Yan Zhao,  Ying Zhu,  B. R. Brooks,  G. K. L. Chan,  C. J. Cramer,  
 M. S. Gordon,  W. J. Hehre,  A. Klamt,  M. W. Schmidt,  C. D. Sherrill,  
 D. G. Truhlar,  A. Aspuru-Guzik,  R. Baer,  A. T. Bell,  N. A. Besley,  
 Jeng-Da Chai,  A. Dreuw,  B. D. Dunietz,  T. R. Furlani,  Chao-Ping Hsu,  
 Yousung Jung,  Jing Kong,  D. S. Lambrecht,  WanZhen Liang,  C. Ochsenfeld,  
 V. A. Rassolov,  L. V. Slipchenko,  J. E. Subotnik,  T. Van Voorhis,  
 J. M. Herbert,  A. I. Krylov,  P. M. W. Gill,  M. Head-Gordon

 Contributors to earlier versions of Q-Chem not listed above: 
 R. D. Adamson,  B. Austin,  J. Baker,  G. J. O. Beran,  K. Brandhorst,  
 S. T. Brown,  E. F. C. Byrd,  A. K. Chakraborty,  C.-L. Cheng,  
 Siu Hung Chien,  D. M. Chipman,  D. L. Crittenden,  H. Dachsel,  
 R. A. DiStasio Jr.,  R. J. Doerksen,  A. D. Dutoi,  L. Fusti-Molnar,  
 W. A. Goddard III,  A. Golubeva-Zadorozhnaya,  S. R. Gwaltney,  G. Hawkins,  
 A. Heyden,  S. Hirata,  G. Kedziora,  F. J. Keil,  C. Kelley,  Jihan Kim,  
 R. A. King,  R. Z. Khaliullin,  P. P. Korambath,  W. Kurlancheek,  
 A. M. Lee,  M. S. Lee,  S. V. Levchenko,  Ching Yeh Lin,  D. Liotard,  
 R. C. Lochan,  I. Lotan,  P. E. Maslen,  N. Nair,  D. P. O'Neill,  
 D. Neuhauser,  E. Neuscamman,  C. M. Oana,  R. Olson,  B. Peters,  
 R. Peverati,  P. A. Pieniazek,  Y. M. Rhee,  J. Ritchie,  M. A. Rohrdanz,  
 E. Rosta,  N. J. Russ,  H. F. Schaefer III,  N. E. Schultz,  N. Shenvi,  
 A. C. Simmonett,  A. Sodt,  D. Stuck,  K. S. Thanthiriwatte,  V. Vanovschi,  
 Tao Wang,  A. Warshel,  C. F. Williams,  Q. Wu,  X. Xu,  W. Zhang

 Please cite Q-Chem as follows:
 Y. Shao et al., Mol. Phys. 113, 184-215 (2015)
 DOI: 10.1080/00268976.2014.952696

 Q-Chem 5.0.1 for Intel X86 EM64T Linux

 Parts of Q-Chem use Armadillo 5.200.1 (Boston Tea Smuggler).
 http://arma.sourceforge.net/

 Q-Chem begins on Wed Apr 18 16:08:15 2018  

Host: vega02.cac.cornell.edu
0

     Scratch files written to /scratch/jj585/vdw/benzene_distance_5.800_10.save//
 Parallel job on  1  processors

Checking the input file for inconsistencies... 	...done.

--------------------------------------------------------------
User input:
--------------------------------------------------------------
$molecule
0  1
C        +0.00000000        +1.39198000        +0.00000000
C        +1.20549000        +0.69599000        +0.00000000
C        +1.20549000        -0.69599000        +0.00000000
C        +0.00000000        -1.39198000        +0.00000000
C        -1.20549000        -0.69599000        +0.00000000
C        -1.20549000        +0.69599000        +0.00000000
H        +0.00000000        +2.47223000        +0.00000000
H        +2.14101000        +1.23612000        +0.00000000
H        +2.14101000        -1.23612000        +0.00000000
H        +0.00000000        -2.47223000        +0.00000000
H        -2.14101000        -1.23612000        +0.00000000
H        -2.14101000        +1.23612000        +0.00000000
@C        +0.00000000        +1.39198000        +5.80000000
@C        +1.20549000        +0.69599000        +5.80000000
@C        +1.20549000        -0.69599000        +5.80000000
@C        +0.00000000        -1.39198000        +5.80000000
@C        -1.20549000        -0.69599000        +5.80000000
@C        -1.20549000        +0.69599000        +5.80000000
@H        +0.00000000        +2.47223000        +5.80000000
@H        +2.14101000        +1.23612000        +5.80000000
@H        +2.14101000        -1.23612000        +5.80000000
@H        +0.00000000        -2.47223000        +5.80000000
@H        -2.14101000        -1.23612000        +5.80000000
@H        -2.14101000        +1.23612000        +5.80000000
$end

$rem
JOBTYPE                   SP
METHOD                    B3LYP
DFT_D                     d3_op
BASIS                     6-311++G(d,p)
SYMMETRY                  False
THRESH                    12
SCF_CONVERGENCE           8
MAX_SUB_FILE_NUM          128
MEM_STATIC                400
MEM_TOTAL                 4000
$end
--------------------------------------------------------------
 Adding empirical dispersion correction 
 ----------------------------------------------------------------
 Doing -D3(op) with
 s6 =   1.00000
 s8 =   0.78311
 a1 =   0.30000
 a2 =   4.25000
 n  =  10.00000
 -D3 energy without 3body term =     -0.0081861633 hartrees
 ----------------------------------------------------------------
             Standard Nuclear Orientation (Angstroms)
    I     Atom           X                Y                Z
 ----------------------------------------------------------------
    1      C       0.0000000000     1.3919800000     0.0000000000
    2      C       1.2054900000     0.6959900000     0.0000000000
    3      C       1.2054900000    -0.6959900000     0.0000000000
    4      C       0.0000000000    -1.3919800000     0.0000000000
    5      C      -1.2054900000    -0.6959900000     0.0000000000
    6      C      -1.2054900000     0.6959900000     0.0000000000
    7      H       0.0000000000     2.4722300000     0.0000000000
    8      H       2.1410100000     1.2361200000     0.0000000000
    9      H       2.1410100000    -1.2361200000     0.0000000000
   10      H       0.0000000000    -2.4722300000     0.0000000000
   11      H      -2.1410100000    -1.2361200000     0.0000000000
   12      H      -2.1410100000     1.2361200000     0.0000000000
   13      GH      0.0000000000     1.3919800000     5.8000000000
   14      GH      1.2054900000     0.6959900000     5.8000000000
   15      GH      1.2054900000    -0.6959900000     5.8000000000
   16      GH      0.0000000000    -1.3919800000     5.8000000000
   17      GH     -1.2054900000    -0.6959900000     5.8000000000
   18      GH     -1.2054900000     0.6959900000     5.8000000000
   19      GH      0.0000000000     2.4722300000     5.8000000000
   20      GH      2.1410100000     1.2361200000     5.8000000000
   21      GH      2.1410100000    -1.2361200000     5.8000000000
   22      GH      0.0000000000    -2.4722300000     5.8000000000
   23      GH     -2.1410100000    -1.2361200000     5.8000000000
   24      GH     -2.1410100000     1.2361200000     5.8000000000
 ----------------------------------------------------------------
 Nuclear Repulsion Energy =   203.9449308443 hartrees
 There are       21 alpha and       21 beta electrons
 Requested basis set is 6-311++G(d,p)
 There are 132 shells and 348 basis functions

 Total QAlloc Memory Limit   4000 MB
 Mega-Array Size       392 MB
 MEM_STATIC part       400 MB
 A cutoff of  1.0D-12 yielded   6918 shell pairs
 There are     47934 function pairs (     50844 Cartesian)
 
 -------------------------------------------------------
 OpenMP Integral Computing Module                       
 Release: version 1.0, May 2013, Q-Chem Inc. Pittsburgh 
 -------------------------------------------------------
 Integral Job Info:
 Integral job number is                      11
 Integral operator is                         1
 short-range coefficients                     0
 long-range coefficients              100000000
 Omega coefficients                           0
 if combine SR and LR in K                    0
 Integral screening is                        0
 Integral computing path is                   2
 max size of driver memory is            800000
 size of driver memory is                593474
 size of scratch memory is              2361544
 max col of scratch BK array               1296
 max len of scratch array in speh3          155
 max len of scratch index in speh4           18
 max int batch size is                      520
 min int batch size is                       52
 fixed nKL is                                52
 max L of basis functions is                  2
 order of int derivative is                   0
 number of shells is                        132
 number of basis is                         360
 number of cartesian basis is               360
 number of contracted shell pairs          6918
 number of primitive shell pairs          16158
 maxK2 (contraction) of shell pair           36
 max number of K2 of shell pair               1
 max number of CS2 of shell pair           1272
 max number of PS2 of shell pair           2196
 mem total for path MDJ                   87402
 -------------------------------------------------------
 Smallest overlap matrix eigenvalue = 6.00E-07
 Linear dependence detected in AO basis
 Number of orthogonalized atomic orbitals = 347
 Maximum deviation from orthogonality = 3.907E-11

 Scale SEOQF with 1.000000e-01/1.000000e-01/1.000000e-02

 Standard Electronic Orientation quadrupole field applied
 Nucleus-field energy     =     0.0000000057 hartrees
 Guess from superposition of atomic densities
 Warning:  Energy on first SCF cycle will be non-variational

 Q-Chem warning in module /opt/software/qchem/qchem-5.0.1/libgen/Atomic_PolEc.C, line 58:

 No atomic polarizability available.


 Q-Chem warning in module /opt/software/qchem/qchem-5.0.1/libgen/Atomic_PolEc.C, line 73:

 No atomic polarizability available.


 Q-Chem warning in module /opt/software/qchem/qchem-5.0.1/libgen/Atomic_PolEc.C, line 58:

 No atomic polarizability available.


 Q-Chem warning in module /opt/software/qchem/qchem-5.0.1/libgen/Atomic_PolEc.C, line 73:

 No atomic polarizability available.


 Q-Chem warning in module /opt/software/qchem/qchem-5.0.1/libgen/Atomic_PolEc.C, line 58:

 No atomic polarizability available.


 Q-Chem warning in module /opt/software/qchem/qchem-5.0.1/libgen/Atomic_PolEc.C, line 73:

 No atomic polarizability available.


 Q-Chem warning in module /opt/software/qchem/qchem-5.0.1/libgen/Atomic_PolEc.C, line 58:

 No atomic polarizability available.


 Q-Chem warning in module /opt/software/qchem/qchem-5.0.1/libgen/Atomic_PolEc.C, line 73:

 No atomic polarizability available.


 Q-Chem warning in module /opt/software/qchem/qchem-5.0.1/libgen/Atomic_PolEc.C, line 58:

 No atomic polarizability available.


 Q-Chem warning in module /opt/software/qchem/qchem-5.0.1/libgen/Atomic_PolEc.C, line 73:

 No atomic polarizability available.


 Q-Chem warning in module /opt/software/qchem/qchem-5.0.1/libgen/Atomic_PolEc.C, line 58:

 No atomic polarizability available.


 Q-Chem warning in module /opt/software/qchem/qchem-5.0.1/libgen/Atomic_PolEc.C, line 73:

 No atomic polarizability available.


 Q-Chem warning in module /opt/software/qchem/qchem-5.0.1/libgen/Atomic_PolEc.C, line 58:

 No atomic polarizability available.


 Q-Chem warning in module /opt/software/qchem/qchem-5.0.1/libgen/Atomic_PolEc.C, line 73:

 No atomic polarizability available.


 Q-Chem warning in module /opt/software/qchem/qchem-5.0.1/libgen/Atomic_PolEc.C, line 58:

 No atomic polarizability available.


 Q-Chem warning in module /opt/software/qchem/qchem-5.0.1/libgen/Atomic_PolEc.C, line 73:

 No atomic polarizability available.


 Q-Chem warning in module /opt/software/qchem/qchem-5.0.1/libgen/Atomic_PolEc.C, line 58:

 No atomic polarizability available.


 Q-Chem warning in module /opt/software/qchem/qchem-5.0.1/libgen/Atomic_PolEc.C, line 73:

 No atomic polarizability available.


 Q-Chem warning in module /opt/software/qchem/qchem-5.0.1/libgen/Atomic_PolEc.C, line 58:

 No atomic polarizability available.


 Q-Chem warning in module /opt/software/qchem/qchem-5.0.1/libgen/Atomic_PolEc.C, line 73:

 No atomic polarizability available.


 Q-Chem warning in module /opt/software/qchem/qchem-5.0.1/libgen/Atomic_PolEc.C, line 58:

 No atomic polarizability available.


 Q-Chem warning in module /opt/software/qchem/qchem-5.0.1/libgen/Atomic_PolEc.C, line 73:

 No atomic polarizability available.


 Q-Chem warning in module /opt/software/qchem/qchem-5.0.1/libgen/Atomic_PolEc.C, line 58:

 No atomic polarizability available.


 Q-Chem warning in module /opt/software/qchem/qchem-5.0.1/libgen/Atomic_PolEc.C, line 73:

 No atomic polarizability available.

 A restricted hybrid HF-DFT SCF calculation will be
 performed using Pulay DIIS extrapolation
 Exchange:     0.2000 Hartree-Fock + 0.0800 Slater + 0.7200 B88
 Correlation:  0.1900 VWN1RPA + 0.8100 LYP
 Using SG-1 standard quadrature grid
 Dispersion:   Grimme D3
 SCF converges when DIIS error is below 1.0E-08
 using 4 threads for integral computing
 -------------------------------------------------------
 OpenMP Integral computing Module                
 Release: version 1.0, May 2013, Q-Chem Inc. Pittsburgh 
 -------------------------------------------------------
 -------------------------------------------------------
 OpenMP BLAS3 based DFT computing Module                
 Release: version 1.0, May 2013, Q-Chem Inc. Pittsburgh 
 -------------------------------------------------------
 ---------------------------------------
  Cycle       Energy         DIIS Error
 ---------------------------------------
    1    -233.6360867748      2.44E-02
    2    -232.1993889730      2.65E-03
    3    -232.1633176838      3.09E-03
    4    -232.3188874318      2.08E-04
    5    -232.3194304439      2.98E-05
    6    -232.3194430496      1.85E-06
    7    -232.3194431143      2.60E-07
    8    -232.3194431149      1.85E-07
    9    -232.3194431153      3.24E-08
   10    -232.3194431154      4.57E-09 Convergence criterion met
 ---------------------------------------
 SCF time:  CPU 170.20 s  wall 42.73 s
 SCF   energy in the final basis set = -232.31944312
 Total energy in the final basis set = -232.31944312
 
 --------------------------------------------------------------
 
                    Orbital Energies (a.u.)
 --------------------------------------------------------------
 
 Alpha MOs
 -- Occupied --
-10.178 -10.178 -10.178 -10.177 -10.177 -10.177  -0.861  -0.752
 -0.752  -0.609  -0.609  -0.531  -0.467  -0.454  -0.429  -0.428
 -0.374  -0.351  -0.351  -0.260  -0.260
 -- Virtual --
 -0.017  -0.017  -0.008   0.009   0.009   0.021   0.032   0.032
  0.040   0.040   0.057   0.060   0.064   0.064   0.068   0.089
  0.090   0.090   0.093   0.099   0.115   0.116   0.116   0.119
  0.120   0.127   0.127   0.127   0.133   0.133   0.134   0.139
  0.139   0.155   0.155   0.164   0.166   0.166   0.168   0.177
  0.178   0.184   0.185   0.196   0.199   0.200   0.200   0.207
  0.207   0.221   0.234   0.241   0.241   0.242   0.250   0.250
  0.260   0.260   0.265   0.284   0.285   0.285   0.296   0.296
  0.296   0.306   0.315   0.315   0.331   0.331   0.335   0.359
  0.359   0.367   0.367   0.391   0.397   0.397   0.418   0.437
  0.452   0.476   0.476   0.490   0.520   0.520   0.550   0.550
  0.551   0.555   0.564   0.564   0.577   0.578   0.579   0.582
  0.582   0.603   0.603   0.620   0.620   0.643   0.643   0.669
  0.676   0.687   0.717   0.724   0.724   0.731   0.731   0.735
  0.735   0.756   0.756   0.786   0.789   0.841   0.842   0.853
  0.856   0.856   0.873   0.888   0.889   0.912   0.912   0.941
  0.943   0.943   0.953   1.012   1.019   1.019   1.078   1.078
  1.088   1.115   1.140   1.140   1.155   1.155   1.204   1.204
  1.211   1.304   1.316   1.337   1.409   1.409   1.453   1.458
  1.510   1.519   1.519   1.520   1.520   1.533   1.555   1.555
  1.569   1.573   1.573   1.649   1.649   1.667   1.667   1.712
  1.712   1.716   1.716   1.717   1.720   1.732   1.733   1.767
  1.777   1.777   1.785   1.828   1.828   1.853   1.872   1.878
  1.878   1.930   1.930   1.949   1.949   1.958   1.966   1.966
  1.976   1.999   2.025   2.025   2.035   2.035   2.041   2.041
  2.086   2.086   2.236   2.257   2.266   2.303   2.318   2.331
  2.347   2.380   2.380   2.410   2.410   2.410   2.424   2.424
  2.455   2.458   2.458   2.489   2.489   2.569   2.571   2.571
  2.595   2.595   2.632   2.632   2.667   2.667   2.714   2.737
  2.737   2.749   2.762   2.762   2.781   2.814   2.814   2.895
  2.895   2.904   2.905   2.919   2.961   2.961   3.002   3.003
  3.006   3.006   3.017   3.081   3.110   3.200   3.200   3.306
  3.306   3.350   3.350   3.383   3.388   3.392   3.490   3.490
  3.496   3.528   3.528   3.530   3.553   3.587   3.587   3.697
  3.729   3.729   3.979   4.002   4.002   4.025   4.025   4.088
  4.159   4.159   4.534   4.847   4.872   4.888   4.888   5.112
  5.112   5.610   7.036   7.109   7.109   7.204   7.204   7.346
  7.694   7.736   7.736   7.744   7.784   7.785   7.957   7.959
  7.978   7.978   8.276   8.906   9.623  10.219  10.220  10.285
 10.285  10.356  23.598  23.985  23.985  24.104  24.104  24.213
 69.768  70.026  70.027  70.059  70.060  70.106
 --------------------------------------------------------------
 
          Ground-State Mulliken Net Atomic Charges

     Atom                 Charge (a.u.)
  ----------------------------------------
      1 C                    -0.159685
      2 C                    -0.157144
      3 C                    -0.157144
      4 C                    -0.159685
      5 C                    -0.157144
      6 C                    -0.157144
      7 H                     0.158355
      8 H                     0.158213
      9 H                     0.158213
     10 H                     0.158355
     11 H                     0.158213
     12 H                     0.158213
     13 GH                   -0.000376
     14 GH                   -0.000270
     15 GH                   -0.000270
     16 GH                   -0.000376
     17 GH                   -0.000270
     18 GH                   -0.000270
     19 GH                    0.000020
     20 GH                    0.000044
     21 GH                    0.000044
     22 GH                    0.000020
     23 GH                    0.000044
     24 GH                    0.000044
  ----------------------------------------
  Sum of atomic charges =     0.000000

 -----------------------------------------------------------------
                    Cartesian Multipole Moments
 -----------------------------------------------------------------
    Charge (ESU x 10^10)
                 0.0000
    Dipole Moment (Debye)
         X       0.0000      Y       0.0000      Z       0.0035
       Tot       0.0035
    Quadrupole Moments (Debye-Ang)
        XX     -32.1404     XY      -0.0000     YY     -32.1450
        XZ      -0.0000     YZ      -0.0000     ZZ     -40.2414
    Octopole Moments (Debye-Ang^2)
       XXX       0.0000    XXY       0.0000    XYY       0.0000
       YYY       0.0000    XXZ       0.0053    XYZ      -0.0000
       YYZ       0.0040    XZZ      -0.0000    YZZ      -0.0000
       ZZZ       0.0052
    Hexadecapole Moments (Debye-Ang^3)
      XXXX    -275.0805   XXXY       0.0000   XXYY     -91.6990
      XYYY      -0.0000   YYYY    -275.1157   XXXZ      -0.0000
      XXYZ      -0.0000   XYYZ      -0.0000   YYYZ      -0.0000
      XXZZ     -64.9336   XYZZ      -0.0000   YYZZ     -64.9491
      XZZZ      -0.0000   YZZZ      -0.0000   ZZZZ     -49.8918
 -----------------------------------------------------------------
Archival summary:
1\1\vega02.cac.cornell.edu\SP\ProcedureUnspecified\BasisUnspecified\66h12\jj585\WedApr1816:08:592018WedApr1816:08:592018\0\\#,ProcedureUnspecified,BasisUnspecified,\\0,1\C\H,1,1.08025\C,1,1.39198,2,120\H,3,1.08025,1,120,2,-0,0\C,1,1.39198,2,120,3,-180,0\H,5,1.08025,1,120,2,-0,0\C,3,1.39198,1,120,2,-180,0\H,7,1.08025,3,120,1,-180,0\C,7,1.39198,3,120,1,-0,0\H,9,1.08025,7,120,3,-180,0\C,9,1.39198,7,120,3,-0,0\H,11,1.08025,9,120,7,-180,0\Gh,4,5.8,3,90,1,-90,0\Gh,13,1.08025,4,90,3,-0,0\Gh,14,1.39198,13,120,4,90,0\Gh,15,1.08025,14,120,13,-0,0\Gh,15,1.39198,14,120,13,-180,0\Gh,17,1.08025,15,120,14,-180,0\Gh,14,1.39198,13,120,4,-90,0\Gh,19,1.08025,14,120,13,-0,0\Gh,19,1.39198,14,120,13,-180,0\Gh,21,1.08025,19,120,14,-180,0\Gh,21,1.39198,19,120,14,-0,0\Gh,23,1.08025,21,120,19,-180,0\\\@

 Total job time:  43.38s(wall), 172.10s(cpu) 
 Wed Apr 18 16:08:59 2018

        *************************************************************
        *                                                           *
        *  Thank you very much for using Q-Chem.  Have a nice day.  *
        *                                                           *
        *************************************************************


0 sent ACK to 0 
now end server 0 ... 
