mFile = /opt/software/qchem/qchem-5.0.1//bin/mpi/machines
Process 0 of 1 is on vega02.cac.cornell.edu - thread support 0
initial socket setup ...start
initial socket setup ...done 
now start server 0 ... 
vega02.cac.cornell.edu 10.84.3
Q-Chem Developer Version! Running on 10.84.3.*
                  Welcome to Q-Chem
     A Quantum Leap Into The Future Of Chemistry


 Q-Chem 5.0, Q-Chem, Inc., Pleasanton, CA (2017)

 Yihan Shao,  Zhengting Gan,  E. Epifanovsky,  A. T. B. Gilbert,  M. Wormit,  
 J. Kussmann,  A. W. Lange,  A. Behn,  Jia Deng,  Xintian Feng,  D. Ghosh,  
 M. Goldey,  P. R. Horn,  L. D. Jacobson,  I. Kaliman,  T. Kus,  A. Landau,  
 Jie Liu,  E. I. Proynov,  R. M. Richard,  R. P. Steele,  E. J. Sundstrom,  
 H. L. Woodcock III,  P. M. Zimmerman,  D. Zuev,  B. Albrecht,  E. Alguire,  
 S. A. Baeppler,  Z. Benda,  Y. A. Bernard,  E. J. Berquist,  K. B. Bravaya,  
 D. Casanova,  Chun-Min Chang,  Yunqing Chen,  A. Chien,  K. D. Closser,  
 M. P. Coons,  S. Dasgupta,  M. Diedenhofen,  Hainam Do,  R. G. Edgar,  
 Po-Tung Fang,  S. Fatehi,  Qingguo Feng,  Qinghui Ge,  A. Ghysels,  
 J. Gomes,  J. Gonthier,  A. Gunina,  M. W. D. Hanson-Heine,  
 P. H. P. Harbach,  A. W. Hauser,  J. E. Herr,  E. G. Hohenstein,  
 Z. C. Holden,  Kerwin Hui,  T.-C. Jagau,  Hyunjun Ji,  B. Kaduk,  
 K. Khistyaev,  Jaehoon Kim,  P. Klunzinger,  K. Koh,  D. Kosenkov,  
 T. Kowalczyk,  C. M. Krauter,  A. Kunitsa,  Ka Un Lao,  A. Laurent,  
 K. V. Lawler,  Joonho Lee,  D. Lefrancois,  S. Lehtola,  D. S. Levine,  
 Yi-Pei Li,  You-Sheng Lin,  Fenglai Liu,  E. Livshits,  A. Luenser,  
 P. Manohar,  E. Mansoor,  S. F. Manzer,  Shan-Ping Mao,  Yuezhi Mao,  
 N. Mardirossian,  A. V. Marenich,  L. A. Martinez-Martinez,  S. A. Maurer,  
 N. J. Mayhall,  S. C. McKenzie,  J.-M. Mewes,  A. F. Morrison,  K. Nanda,  
 T. S. Nguyen-Beck,  R. Olivares-Amaya,  J. A. Parkhill,  T. M. Perrine,  
 F. Plasser,  S. Prager,  A. Prociuk,  D. R. Rehn,  F. Rob,  M. Schneider,  
 N. Sergueev,  S. M. Sharada,  S. Sharma,  D. W. Small,  T. Stauch,  
 T. Stein,  Yu-Chuan Su,  A. J. W. Thom,  T. Tsuchimochi,  L. Vogt,  
 O. Vydrov,  M. A. Watson,  J. Wenzel,  M. de Wergifosse,  T. A. Wesolowski,  
 A. White,  J. Witte,  A. Yamada,  Jun Yang,  K. Yao,  S. Yeganeh,  
 S. R. Yost,  Zhi-Qiang You,  A. Zech,  Igor Ying Zhang,  Xing Zhang,  
 Yan Zhao,  Ying Zhu,  B. R. Brooks,  G. K. L. Chan,  C. J. Cramer,  
 M. S. Gordon,  W. J. Hehre,  A. Klamt,  M. W. Schmidt,  C. D. Sherrill,  
 D. G. Truhlar,  A. Aspuru-Guzik,  R. Baer,  A. T. Bell,  N. A. Besley,  
 Jeng-Da Chai,  A. Dreuw,  B. D. Dunietz,  T. R. Furlani,  Chao-Ping Hsu,  
 Yousung Jung,  Jing Kong,  D. S. Lambrecht,  WanZhen Liang,  C. Ochsenfeld,  
 V. A. Rassolov,  L. V. Slipchenko,  J. E. Subotnik,  T. Van Voorhis,  
 J. M. Herbert,  A. I. Krylov,  P. M. W. Gill,  M. Head-Gordon

 Contributors to earlier versions of Q-Chem not listed above: 
 R. D. Adamson,  B. Austin,  J. Baker,  G. J. O. Beran,  K. Brandhorst,  
 S. T. Brown,  E. F. C. Byrd,  A. K. Chakraborty,  C.-L. Cheng,  
 Siu Hung Chien,  D. M. Chipman,  D. L. Crittenden,  H. Dachsel,  
 R. A. DiStasio Jr.,  R. J. Doerksen,  A. D. Dutoi,  L. Fusti-Molnar,  
 W. A. Goddard III,  A. Golubeva-Zadorozhnaya,  S. R. Gwaltney,  G. Hawkins,  
 A. Heyden,  S. Hirata,  G. Kedziora,  F. J. Keil,  C. Kelley,  Jihan Kim,  
 R. A. King,  R. Z. Khaliullin,  P. P. Korambath,  W. Kurlancheek,  
 A. M. Lee,  M. S. Lee,  S. V. Levchenko,  Ching Yeh Lin,  D. Liotard,  
 R. C. Lochan,  I. Lotan,  P. E. Maslen,  N. Nair,  D. P. O'Neill,  
 D. Neuhauser,  E. Neuscamman,  C. M. Oana,  R. Olson,  B. Peters,  
 R. Peverati,  P. A. Pieniazek,  Y. M. Rhee,  J. Ritchie,  M. A. Rohrdanz,  
 E. Rosta,  N. J. Russ,  H. F. Schaefer III,  N. E. Schultz,  N. Shenvi,  
 A. C. Simmonett,  A. Sodt,  D. Stuck,  K. S. Thanthiriwatte,  V. Vanovschi,  
 Tao Wang,  A. Warshel,  C. F. Williams,  Q. Wu,  X. Xu,  W. Zhang

 Please cite Q-Chem as follows:
 Y. Shao et al., Mol. Phys. 113, 184-215 (2015)
 DOI: 10.1080/00268976.2014.952696

 Q-Chem 5.0.1 for Intel X86 EM64T Linux

 Parts of Q-Chem use Armadillo 5.200.1 (Boston Tea Smuggler).
 http://arma.sourceforge.net/

 Q-Chem begins on Wed Apr 18 16:11:40 2018  

Host: vega02.cac.cornell.edu
0

     Scratch files written to /scratch/jj585/vdw/benzene_distance_10.000_11.save//
 Parallel job on  1  processors

Checking the input file for inconsistencies... 	...done.

--------------------------------------------------------------
User input:
--------------------------------------------------------------
$molecule
0  1
--
0  1
C        +0.00000000        +1.39198000        +0.00000000
C        +1.20549000        +0.69599000        +0.00000000
C        +1.20549000        -0.69599000        +0.00000000
C        +0.00000000        -1.39198000        +0.00000000
C        -1.20549000        -0.69599000        +0.00000000
C        -1.20549000        +0.69599000        +0.00000000
H        +0.00000000        +2.47223000        +0.00000000
H        +2.14101000        +1.23612000        +0.00000000
H        +2.14101000        -1.23612000        +0.00000000
H        +0.00000000        -2.47223000        +0.00000000
H        -2.14101000        -1.23612000        +0.00000000
H        -2.14101000        +1.23612000        +0.00000000
--
0  1
C        +0.00000000        +1.39198000       +10.00000000
C        +1.20549000        +0.69599000       +10.00000000
C        +1.20549000        -0.69599000       +10.00000000
C        +0.00000000        -1.39198000       +10.00000000
C        -1.20549000        -0.69599000       +10.00000000
C        -1.20549000        +0.69599000       +10.00000000
H        +0.00000000        +2.47223000       +10.00000000
H        +2.14101000        +1.23612000       +10.00000000
H        +2.14101000        -1.23612000       +10.00000000
H        +0.00000000        -2.47223000       +10.00000000
H        -2.14101000        -1.23612000       +10.00000000
H        -2.14101000        +1.23612000       +10.00000000
$end

$rem
JOBTYPE                   SP
METHOD                    B3LYP
DFT_D                     d3_op
BASIS                     6-311++G(d,p)
SYMMETRY                  False
THRESH                    12
SCF_CONVERGENCE           8
MAX_SUB_FILE_NUM          128
MEM_STATIC                400
MEM_TOTAL                 4000
$end
--------------------------------------------------------------
 Adding empirical dispersion correction 
 ----------------------------------------------------------------
 Doing -D3(op) with
 s6 =   1.00000
 s8 =   0.78311
 a1 =   0.30000
 a2 =   4.25000
 n  =  10.00000
 -D3 energy without 3body term =     -0.0164047836 hartrees
 ----------------------------------------------------------------
             Standard Nuclear Orientation (Angstroms)
    I     Atom           X                Y                Z
 ----------------------------------------------------------------
    1      C      -5.0000000000     1.3919800000     0.0000000000
    2      C      -5.0000000000     0.6959900000    -1.2054900000
    3      C      -5.0000000000    -0.6959900000    -1.2054900000
    4      C      -5.0000000000    -1.3919800000     0.0000000000
    5      C      -5.0000000000    -0.6959900000     1.2054900000
    6      C      -5.0000000000     0.6959900000     1.2054900000
    7      H      -5.0000000000     2.4722300000     0.0000000000
    8      H      -5.0000000000     1.2361200000    -2.1410100000
    9      H      -5.0000000000    -1.2361200000    -2.1410100000
   10      H      -5.0000000000    -2.4722300000    -0.0000000000
   11      H      -5.0000000000    -1.2361200000     2.1410100000
   12      H      -5.0000000000     1.2361200000     2.1410100000
   13      C       5.0000000000     1.3919800000     0.0000000000
   14      C       5.0000000000     0.6959900000    -1.2054900000
   15      C       5.0000000000    -0.6959900000    -1.2054900000
   16      C       5.0000000000    -1.3919800000    -0.0000000000
   17      C       5.0000000000    -0.6959900000     1.2054900000
   18      C       5.0000000000     0.6959900000     1.2054900000
   19      H       5.0000000000     2.4722300000     0.0000000000
   20      H       5.0000000000     1.2361200000    -2.1410100000
   21      H       5.0000000000    -1.2361200000    -2.1410100000
   22      H       5.0000000000    -2.4722300000    -0.0000000000
   23      H       5.0000000000    -1.2361200000     2.1410100000
   24      H       5.0000000000     1.2361200000     2.1410100000
 ----------------------------------------------------------------
 Molecular Point Group                 D2h   NOp =  8
 Largest Abelian Subgroup              D2h   NOp =  8
 Nuclear Repulsion Energy =   499.0088782669 hartrees
 There are       42 alpha and       42 beta electrons
 Requested basis set is 6-311++G(d,p)
 There are 132 shells and 348 basis functions

 Total QAlloc Memory Limit   4000 MB
 Mega-Array Size       392 MB
 MEM_STATIC part       400 MB
 A cutoff of  1.0D-12 yielded   5808 shell pairs
 There are     40308 function pairs (     42858 Cartesian)
 
 -------------------------------------------------------
 OpenMP Integral Computing Module                       
 Release: version 1.0, May 2013, Q-Chem Inc. Pittsburgh 
 -------------------------------------------------------
 Integral Job Info:
 Integral job number is                      11
 Integral operator is                         1
 short-range coefficients                     0
 long-range coefficients              100000000
 Omega coefficients                           0
 if combine SR and LR in K                    0
 Integral screening is                        0
 Integral computing path is                   2
 max size of driver memory is            800000
 size of driver memory is                593474
 size of scratch memory is              2361544
 max col of scratch BK array               1296
 max len of scratch array in speh3          155
 max len of scratch index in speh4           18
 max int batch size is                      520
 min int batch size is                       52
 fixed nKL is                                52
 max L of basis functions is                  2
 order of int derivative is                   0
 number of shells is                        132
 number of basis is                         360
 number of cartesian basis is               360
 number of contracted shell pairs          5808
 number of primitive shell pairs          13764
 maxK2 (contraction) of shell pair           36
 max number of K2 of shell pair               1
 max number of CS2 of shell pair           1080
 max number of PS2 of shell pair           1800
 mem total for path MDJ                   70986
 -------------------------------------------------------
 Smallest overlap matrix eigenvalue = 1.01E-06

 Scale SEOQF with 1.000000e-02/1.000000e-01/1.000000e-01

 Standard Electronic Orientation quadrupole field applied
 Nucleus-field energy     =     0.0000000037 hartrees
 Guess from superposition of atomic densities
 Warning:  Energy on first SCF cycle will be non-variational
 A restricted hybrid HF-DFT SCF calculation will be
 performed using Pulay DIIS extrapolation
 Exchange:     0.2000 Hartree-Fock + 0.0800 Slater + 0.7200 B88
 Correlation:  0.1900 VWN1RPA + 0.8100 LYP
 Using SG-1 standard quadrature grid
 Dispersion:   Grimme D3
 SCF converges when DIIS error is below 1.0E-08
 using 4 threads for integral computing
 -------------------------------------------------------
 OpenMP Integral computing Module                
 Release: version 1.0, May 2013, Q-Chem Inc. Pittsburgh 
 -------------------------------------------------------
 -------------------------------------------------------
 OpenMP BLAS3 based DFT computing Module                
 Release: version 1.0, May 2013, Q-Chem Inc. Pittsburgh 
 -------------------------------------------------------
 ---------------------------------------
  Cycle       Energy         DIIS Error
 ---------------------------------------
    1    -467.2722505942      3.44E-02
    2    -464.3987227108      3.73E-03
    3    -464.3271222020      4.35E-03
    4    -464.6376706182      2.92E-04
    5    -464.6387461579      4.18E-05
    6    -464.6387712041      2.65E-06
    7    -464.6387713340      5.36E-07
    8    -464.6387713374      2.44E-07
    9    -464.6387713382      7.31E-08
   10    -464.6387713383      5.52E-09 Convergence criterion met
 ---------------------------------------
 SCF time:  CPU 81.40 s  wall 20.46 s
 SCF   energy in the final basis set = -464.63877134
 Total energy in the final basis set = -464.63877134
 
 --------------------------------------------------------------
             Orbital Energies (a.u.) and Symmetries
 --------------------------------------------------------------
 
 Alpha MOs, Restricted
 -- Occupied --                  
-10.177 -10.177 -10.177 -10.177 -10.177 -10.177 -10.176 -10.176
  1 B3u   1 Ag    1 B1g   1 B2u   1 B1u   1 B2g   2 Ag    2 B3u                
-10.176 -10.176 -10.176 -10.176  -0.860  -0.860  -0.752  -0.752
  1 B3g   1 Au    2 B2u   2 B1g   3 B3u   3 Ag    2 B1u   2 B2g                
 -0.752  -0.752  -0.608  -0.608  -0.608  -0.608  -0.530  -0.530
  3 B2u   3 B1g   2 B3g   2 Au    4 Ag    4 B3u   5 B3u   5 Ag                 
 -0.466  -0.466  -0.453  -0.453  -0.428  -0.428  -0.428  -0.428
  4 B2u   4 B1g   3 B1u   3 B2g   4 B2g   4 B1u   5 B2u   5 B1g                
 -0.373  -0.373  -0.350  -0.350  -0.350  -0.350  -0.260  -0.260
  6 Ag    6 B3u   3 Au    3 B3g   7 B3u   7 Ag    6 B2u   6 B1g                
 -0.259  -0.259
  5 B1u   5 B2g                                                                
 -- Virtual --                   
 -0.016  -0.016  -0.016  -0.016  -0.007  -0.005   0.010   0.010
  4 B3g   4 Au    8 Ag    8 B3u   9 Ag    9 B3u   7 B2u   6 B1u                
  0.012   0.012   0.033   0.033   0.034   0.034   0.061   0.062
  7 B1g   6 B2g   5 B3g  10 Ag    5 Au   10 B3u   8 B2u  11 Ag                 
  0.062   0.067   0.072   0.073   0.088   0.089   0.092   0.093
  8 B1g  11 B3u  12 Ag   12 B3u   9 B2u   7 B1u   9 B1g   7 B2g                
  0.100   0.100   0.112   0.118   0.119   0.119   0.119   0.119
  8 B1u   8 B2g  13 Ag   13 B3u   6 B3g  14 Ag   10 B2u   9 B1u                
  0.122   0.122   0.125   0.125   0.126   0.127   0.139   0.140
  6 Au   14 B3u  10 B1g   9 B2g  11 B2u  11 B1g   7 B3g  15 Ag                 
  0.143   0.143   0.145   0.146   0.147   0.148   0.152   0.155
  7 Au   15 B3u  12 B2u  10 B1u  12 B1g  10 B2g  13 B2u  13 B1g                
  0.155   0.155   0.157   0.157   0.200   0.200   0.200   0.200
  8 B3g  16 Ag    8 Au   16 B3u  11 B1u  14 B2u  11 B2g  15 B2u                
  0.200   0.203   0.219   0.220   0.223   0.224   0.236   0.240
 14 B1g  15 B1g   9 B3g  17 Ag    9 Au   17 B3u  18 Ag   18 B3u                
  0.267   0.267   0.277   0.281   0.281   0.283   0.284   0.285
 10 B3g  10 Au   16 B2u  17 B2u  12 B1u  16 B1g  17 B1g  12 B2g                
  0.297   0.297   0.299   0.299   0.322   0.326   0.355   0.355
 19 Ag   11 B3g  19 B3u  11 Au   18 B2u  18 B1g  20 Ag   12 B3g                
  0.358   0.358   0.362   0.362   0.366   0.366   0.451   0.452
 20 B3u  12 Au   19 B2u  13 B1u  19 B1g  13 B2g  14 B1u  14 B2g                
  0.470   0.472   0.528   0.534   0.542   0.543   0.549   0.549
 21 B3u  21 Ag   22 Ag   22 B3u  20 B1g  20 B2u  21 B1g  15 B2g                
  0.550   0.551   0.552   0.552   0.566   0.566   0.567   0.567
 21 B2u  15 B1u  13 B3g  13 Au   14 Au   23 B3u  14 B3g  23 Ag                 
  0.572   0.573   0.576   0.577   0.607   0.610   0.618   0.618
 22 B2u  16 B1u  22 B1g  16 B2g  24 Ag   24 B3u  15 B3g  25 Ag                 
  0.620   0.620   0.674   0.676   0.724   0.724   0.725   0.725
 15 Au   25 B3u  23 B2u  23 B1g  16 B3g  26 Ag   16 Au   26 B3u                
  0.735   0.735   0.735   0.735   0.779   0.780   0.805   0.807
 24 B2u  17 B1u  24 B1g  17 B2g  27 Ag   27 B3u  25 B2u  25 B1g                
  0.840   0.841   0.841   0.841   0.873   0.873   0.876   0.876
 26 B2u  18 B1u  26 B1g  18 B2g  17 B3g  17 Au   18 B3g  28 Ag                 
  0.876   0.882   0.882   0.882   0.892   0.892   0.898   0.899
 27 B2u  27 B1g  18 Au   28 B3u  28 B2u  19 B1u  28 B1g  19 B2g                
  0.938   0.938   1.012   1.012   1.019   1.019   1.019   1.019
 29 Ag   29 B3u  20 B1u  20 B2g  30 Ag   19 B3g  30 B3u  19 Au                 
  1.079   1.079   1.079   1.079   1.141   1.141   1.141   1.141
 29 B2u  29 B1g  21 B1u  21 B2g  20 Au   20 B3g  31 B3u  31 Ag                 
  1.305   1.306   1.322   1.323   1.458   1.458   1.516   1.516
 32 Ag   32 B3u  30 B2u  30 B1g  22 B1u  22 B2g  23 B2g  31 B1g                
  1.516   1.517   1.528   1.530   1.568   1.569   1.572   1.572
 23 B1u  31 B2u  33 Ag   33 B3u  32 B2u  32 B1g  21 B3g  34 Ag                 
  1.572   1.572   1.643   1.643   1.643   1.643   1.665   1.665
 21 Au   34 B3u  22 B3g  35 Ag   22 Au   35 B3u  33 B1g  33 B2u                
  1.665   1.665   1.717   1.717   1.776   1.776   1.776   1.776
 24 B2g  24 B1u  36 Ag   36 B3u  25 B1u  25 B2g  34 B2u  34 B1g                
  1.821   1.821   1.821   1.821   1.853   1.853   1.930   1.930
 23 Au   37 B3u  23 B3g  37 Ag   26 B1u  26 B2g  35 B2u  27 B1u                
  1.930   1.930   1.946   1.946   1.947   1.947   1.958   1.958
 35 B1g  27 B2g  36 B2u  28 B1u  36 B1g  28 B2g  24 B3g  24 Au                 
  1.992   1.992   2.026   2.026   2.026   2.026   2.085   2.085
 37 B1g  37 B2u  25 B3g  38 Ag   25 Au   38 B3u  26 B3g  39 Ag                 
  2.085   2.085   2.328   2.328   2.348   2.348   2.384   2.385
 26 Au   39 B3u  38 B2u  38 B1g  27 B3g  27 Au   40 B3u  40 Ag                 
  2.424   2.424   2.425   2.425   2.452   2.452   2.452   2.452
 28 B3g  41 Ag   28 Au   41 B3u  29 B2g  29 B1u  39 B1g  39 B2u                
  2.631   2.631   2.632   2.632   2.650   2.653   2.674   2.674
 40 B2u  30 B1u  40 B1g  30 B2g  42 Ag   42 B3u  41 B2u  41 B1g                
  2.684   2.685   2.718   2.718   2.718   2.718   2.745   2.745
 43 B3u  43 Ag   42 B1g  31 B2g  42 B2u  31 B1u  29 B3g  44 Ag                 
  2.746   2.746   2.781   2.786   2.791   2.792   2.794   2.794
 29 Au   44 B3u  43 B2u  43 B1g  44 B2u  32 B1u  44 B1g  32 B2g                
  2.888   2.888   2.889   2.889   2.920   2.920   2.960   2.960
 30 B3g  45 Ag   30 Au   45 B3u  31 B3g  31 Au   32 B3g  46 Ag                 
  2.960   2.960   3.079   3.079   3.111   3.111   3.345   3.345
 32 Au   46 B3u  45 B2u  45 B1g  33 B1u  33 B2g  33 B3g  47 Ag                 
  3.346   3.346   3.487   3.487   3.487   3.487   3.506   3.508
 33 Au   47 B3u  46 B2u  34 B1u  46 B1g  34 B2g  48 Ag   48 B3u                
  3.697   3.697   4.000   4.000   4.001   4.001   4.089   4.089
 47 B2u  47 B1g  34 B3g  49 Ag   34 Au   49 B3u  48 B2u  48 B1g                
  4.157   4.157   4.158   4.158   4.848   4.848  23.593  23.594
 49 B2u  35 B1u  49 B1g  35 B2g  35 B3g  35 Au   50 Ag   50 B3u                
 23.981  23.981  23.982  23.982  24.104  24.104  24.104  24.104
 50 B2u  36 B1u  50 B1g  36 B2g  51 Ag   36 B3g  51 B3u  36 Au                 
 24.216  24.216
 51 B2u  51 B1g                                                                
 
 Beta MOs, Restricted
 -- Occupied --                  
-10.177 -10.177 -10.177 -10.177 -10.177 -10.177 -10.176 -10.176
  1 B3u   1 Ag    1 B1g   1 B2u   1 B1u   1 B2g   2 Ag    2 B3u                
-10.176 -10.176 -10.176 -10.176  -0.860  -0.860  -0.752  -0.752
  1 B3g   1 Au    2 B2u   2 B1g   3 B3u   3 Ag    2 B1u   2 B2g                
 -0.752  -0.752  -0.608  -0.608  -0.608  -0.608  -0.530  -0.530
  3 B2u   3 B1g   2 B3g   2 Au    4 Ag    4 B3u   5 B3u   5 Ag                 
 -0.466  -0.466  -0.453  -0.453  -0.428  -0.428  -0.428  -0.428
  4 B2u   4 B1g   3 B1u   3 B2g   4 B2g   4 B1u   5 B2u   5 B1g                
 -0.373  -0.373  -0.350  -0.350  -0.350  -0.350  -0.260  -0.260
  6 Ag    6 B3u   3 Au    3 B3g   7 B3u   7 Ag    6 B2u   6 B1g                
 -0.259  -0.259
  5 B1u   5 B2g                                                                
 -- Virtual --                   
 -0.016  -0.016  -0.016  -0.016  -0.007  -0.005   0.010   0.010
  4 B3g   4 Au    8 Ag    8 B3u   9 Ag    9 B3u   7 B2u   6 B1u                
  0.012   0.012   0.033   0.033   0.034   0.034   0.061   0.062
  7 B1g   6 B2g   5 B3g  10 Ag    5 Au   10 B3u   8 B2u  11 Ag                 
  0.062   0.067   0.072   0.073   0.088   0.089   0.092   0.093
  8 B1g  11 B3u  12 Ag   12 B3u   9 B2u   7 B1u   9 B1g   7 B2g                
  0.100   0.100   0.112   0.118   0.119   0.119   0.119   0.119
  8 B1u   8 B2g  13 Ag   13 B3u   6 B3g  14 Ag   10 B2u   9 B1u                
  0.122   0.122   0.125   0.125   0.126   0.127   0.139   0.140
  6 Au   14 B3u  10 B1g   9 B2g  11 B2u  11 B1g   7 B3g  15 Ag                 
  0.143   0.143   0.145   0.146   0.147   0.148   0.152   0.155
  7 Au   15 B3u  12 B2u  10 B1u  12 B1g  10 B2g  13 B2u  13 B1g                
  0.155   0.155   0.157   0.157   0.200   0.200   0.200   0.200
  8 B3g  16 Ag    8 Au   16 B3u  11 B1u  14 B2u  11 B2g  15 B2u                
  0.200   0.203   0.219   0.220   0.223   0.224   0.236   0.240
 14 B1g  15 B1g   9 B3g  17 Ag    9 Au   17 B3u  18 Ag   18 B3u                
  0.267   0.267   0.277   0.281   0.281   0.283   0.284   0.285
 10 B3g  10 Au   16 B2u  17 B2u  12 B1u  16 B1g  17 B1g  12 B2g                
  0.297   0.297   0.299   0.299   0.322   0.326   0.355   0.355
 19 Ag   11 B3g  19 B3u  11 Au   18 B2u  18 B1g  20 Ag   12 B3g                
  0.358   0.358   0.362   0.362   0.366   0.366   0.451   0.452
 20 B3u  12 Au   19 B2u  13 B1u  19 B1g  13 B2g  14 B1u  14 B2g                
  0.470   0.472   0.528   0.534   0.542   0.543   0.549   0.549
 21 B3u  21 Ag   22 Ag   22 B3u  20 B1g  20 B2u  21 B1g  15 B2g                
  0.550   0.551   0.552   0.552   0.566   0.566   0.567   0.567
 21 B2u  15 B1u  13 B3g  13 Au   14 Au   23 B3u  14 B3g  23 Ag                 
  0.572   0.573   0.576   0.577   0.607   0.610   0.618   0.618
 22 B2u  16 B1u  22 B1g  16 B2g  24 Ag   24 B3u  15 B3g  25 Ag                 
  0.620   0.620   0.674   0.676   0.724   0.724   0.725   0.725
 15 Au   25 B3u  23 B2u  23 B1g  16 B3g  26 Ag   16 Au   26 B3u                
  0.735   0.735   0.735   0.735   0.779   0.780   0.805   0.807
 24 B2u  17 B1u  24 B1g  17 B2g  27 Ag   27 B3u  25 B2u  25 B1g                
  0.840   0.841   0.841   0.841   0.873   0.873   0.876   0.876
 26 B2u  18 B1u  26 B1g  18 B2g  17 B3g  17 Au   18 B3g  28 Ag                 
  0.876   0.882   0.882   0.882   0.892   0.892   0.898   0.899
 27 B2u  27 B1g  18 Au   28 B3u  28 B2u  19 B1u  28 B1g  19 B2g                
  0.938   0.938   1.012   1.012   1.019   1.019   1.019   1.019
 29 Ag   29 B3u  20 B1u  20 B2g  30 Ag   19 B3g  30 B3u  19 Au                 
  1.079   1.079   1.079   1.079   1.141   1.141   1.141   1.141
 29 B2u  29 B1g  21 B1u  21 B2g  20 Au   20 B3g  31 B3u  31 Ag                 
  1.305   1.306   1.322   1.323   1.458   1.458   1.516   1.516
 32 Ag   32 B3u  30 B2u  30 B1g  22 B1u  22 B2g  23 B2g  31 B1g                
  1.516   1.517   1.528   1.530   1.568   1.569   1.572   1.572
 23 B1u  31 B2u  33 Ag   33 B3u  32 B2u  32 B1g  21 B3g  34 Ag                 
  1.572   1.572   1.643   1.643   1.643   1.643   1.665   1.665
 21 Au   34 B3u  22 B3g  35 Ag   22 Au   35 B3u  33 B1g  33 B2u                
  1.665   1.665   1.717   1.717   1.776   1.776   1.776   1.776
 24 B2g  24 B1u  36 Ag   36 B3u  25 B1u  25 B2g  34 B2u  34 B1g                
  1.821   1.821   1.821   1.821   1.853   1.853   1.930   1.930
 23 Au   37 B3u  23 B3g  37 Ag   26 B1u  26 B2g  35 B2u  27 B1u                
  1.930   1.930   1.946   1.946   1.947   1.947   1.958   1.958
 35 B1g  27 B2g  36 B2u  28 B1u  36 B1g  28 B2g  24 B3g  24 Au                 
  1.992   1.992   2.026   2.026   2.026   2.026   2.085   2.085
 37 B1g  37 B2u  25 B3g  38 Ag   25 Au   38 B3u  26 B3g  39 Ag                 
  2.085   2.085   2.328   2.328   2.348   2.348   2.384   2.385
 26 Au   39 B3u  38 B2u  38 B1g  27 B3g  27 Au   40 B3u  40 Ag                 
  2.424   2.424   2.425   2.425   2.452   2.452   2.452   2.452
 28 B3g  41 Ag   28 Au   41 B3u  29 B2g  29 B1u  39 B1g  39 B2u                
  2.631   2.631   2.632   2.632   2.650   2.653   2.674   2.674
 40 B2u  30 B1u  40 B1g  30 B2g  42 Ag   42 B3u  41 B2u  41 B1g                
  2.684   2.685   2.718   2.718   2.718   2.718   2.745   2.745
 43 B3u  43 Ag   42 B1g  31 B2g  42 B2u  31 B1u  29 B3g  44 Ag                 
  2.746   2.746   2.781   2.786   2.791   2.792   2.794   2.794
 29 Au   44 B3u  43 B2u  43 B1g  44 B2u  32 B1u  44 B1g  32 B2g                
  2.888   2.888   2.889   2.889   2.920   2.920   2.960   2.960
 30 B3g  45 Ag   30 Au   45 B3u  31 B3g  31 Au   32 B3g  46 Ag                 
  2.960   2.960   3.079   3.079   3.111   3.111   3.345   3.345
 32 Au   46 B3u  45 B2u  45 B1g  33 B1u  33 B2g  33 B3g  47 Ag                 
  3.346   3.346   3.487   3.487   3.487   3.487   3.506   3.508
 33 Au   47 B3u  46 B2u  34 B1u  46 B1g  34 B2g  48 Ag   48 B3u                
  3.697   3.697   4.000   4.000   4.001   4.001   4.089   4.089
 47 B2u  47 B1g  34 B3g  49 Ag   34 Au   49 B3u  48 B2u  48 B1g                
  4.157   4.157   4.158   4.158   4.848   4.848  23.593  23.594
 49 B2u  35 B1u  49 B1g  35 B2g  35 B3g  35 Au   50 Ag   50 B3u                
 23.981  23.981  23.982  23.982  24.104  24.104  24.104  24.104
 50 B2u  36 B1u  50 B1g  36 B2g  51 Ag   36 B3g  51 B3u  36 Au                 
 24.216  24.216
 51 B2u  51 B1g                                                                
 --------------------------------------------------------------
 
          Ground-State Mulliken Net Atomic Charges

     Atom                 Charge (a.u.)
  ----------------------------------------
      1 C                    -0.155399
      2 C                    -0.153729
      3 C                    -0.153729
      4 C                    -0.155399
      5 C                    -0.153729
      6 C                    -0.153729
      7 H                     0.154364
      8 H                     0.154247
      9 H                     0.154247
     10 H                     0.154364
     11 H                     0.154247
     12 H                     0.154247
     13 C                    -0.155399
     14 C                    -0.153729
     15 C                    -0.153729
     16 C                    -0.155399
     17 C                    -0.153729
     18 C                    -0.153729
     19 H                     0.154364
     20 H                     0.154247
     21 H                     0.154247
     22 H                     0.154364
     23 H                     0.154247
     24 H                     0.154247
  ----------------------------------------
  Sum of atomic charges =     0.000000

 -----------------------------------------------------------------
                    Cartesian Multipole Moments
 -----------------------------------------------------------------
    Charge (ESU x 10^10)
                 0.0000
    Dipole Moment (Debye)
         X       0.0000      Y       0.0000      Z       0.0000
       Tot       0.0000
    Quadrupole Moments (Debye-Ang)
        XX     -80.7432     XY       0.0000     YY     -64.2989
        XZ       0.0000     YZ       0.0000     ZZ     -64.2905
    Octopole Moments (Debye-Ang^2)
       XXX      -0.0000    XXY       0.0000    XYY       0.0000
       YYY      -0.0000    XXZ       0.0000    XYZ       0.0000
       YYZ       0.0000    XZZ       0.0000    YZZ      -0.0000
       ZZZ      -0.0000
    Hexadecapole Moments (Debye-Ang^3)
      XXXX  -12188.5904   XXXY       0.0000   XXYY   -1737.8341
      XYYY      -0.0000   YYYY    -550.2367   XXXZ       0.0000
      XXYZ       0.0000   XYYZ       0.0000   YYYZ       0.0000
      XXZZ   -1737.5995   XYZZ      -0.0000   YYZZ    -183.4013
      XZZZ       0.0000   YZZZ       0.0000   ZZZZ    -550.1714
 -----------------------------------------------------------------
Archival summary:
1\1\vega02.cac.cornell.edu\SP\ProcedureUnspecified\BasisUnspecified\1212\jj585\WedApr1816:12:012018WedApr1816:12:012018\0\\#,ProcedureUnspecified,BasisUnspecified,\\0,1\C\H,1,1.08025\C,1,1.39198,2,120\H,3,1.08025,1,120,2,-0,0\C,1,1.39198,2,120,3,180,0\H,5,1.08025,1,120,2,0,0\C,3,1.39198,1,120,2,180,0\H,7,1.08025,3,120,1,180,0\C,7,1.39198,3,120,1,-0,0\H,9,1.08025,7,120,3,-180,0\C,9,1.39198,7,120,3,-0,0\H,11,1.08025,9,120,7,-180,0\H,4,10,3,90,1,-90,0\C,13,1.08025,4,90,3,0,0\C,14,1.39198,13,120,4,90,0\H,15,1.08025,14,120,13,-0,0\C,15,1.39198,14,120,13,-180,0\H,17,1.08025,15,120,14,-180,0\C,14,1.39198,13,120,4,-90,0\H,19,1.08025,14,120,13,-0,0\C,19,1.39198,14,120,13,-180,0\H,21,1.08025,19,120,14,-180,0\C,21,1.39198,19,120,14,-0,0\H,23,1.08025,21,120,19,-180,0\\\@

 Total job time:  21.09s(wall), 83.15s(cpu) 
 Wed Apr 18 16:12:01 2018

        *************************************************************
        *                                                           *
        *  Thank you very much for using Q-Chem.  Have a nice day.  *
        *                                                           *
        *************************************************************


0 sent ACK to 0 
now end server 0 ... 
