mFile = /opt/software/qchem/qchem-5.0.1//bin/mpi/machines
Process 0 of 1 is on vega02.cac.cornell.edu - thread support 0
initial socket setup ...start
initial socket setup ...done 
now start server 0 ... 
vega02.cac.cornell.edu 10.84.3
Q-Chem Developer Version! Running on 10.84.3.*
                  Welcome to Q-Chem
     A Quantum Leap Into The Future Of Chemistry


 Q-Chem 5.0, Q-Chem, Inc., Pleasanton, CA (2017)

 Yihan Shao,  Zhengting Gan,  E. Epifanovsky,  A. T. B. Gilbert,  M. Wormit,  
 J. Kussmann,  A. W. Lange,  A. Behn,  Jia Deng,  Xintian Feng,  D. Ghosh,  
 M. Goldey,  P. R. Horn,  L. D. Jacobson,  I. Kaliman,  T. Kus,  A. Landau,  
 Jie Liu,  E. I. Proynov,  R. M. Richard,  R. P. Steele,  E. J. Sundstrom,  
 H. L. Woodcock III,  P. M. Zimmerman,  D. Zuev,  B. Albrecht,  E. Alguire,  
 S. A. Baeppler,  Z. Benda,  Y. A. Bernard,  E. J. Berquist,  K. B. Bravaya,  
 D. Casanova,  Chun-Min Chang,  Yunqing Chen,  A. Chien,  K. D. Closser,  
 M. P. Coons,  S. Dasgupta,  M. Diedenhofen,  Hainam Do,  R. G. Edgar,  
 Po-Tung Fang,  S. Fatehi,  Qingguo Feng,  Qinghui Ge,  A. Ghysels,  
 J. Gomes,  J. Gonthier,  A. Gunina,  M. W. D. Hanson-Heine,  
 P. H. P. Harbach,  A. W. Hauser,  J. E. Herr,  E. G. Hohenstein,  
 Z. C. Holden,  Kerwin Hui,  T.-C. Jagau,  Hyunjun Ji,  B. Kaduk,  
 K. Khistyaev,  Jaehoon Kim,  P. Klunzinger,  K. Koh,  D. Kosenkov,  
 T. Kowalczyk,  C. M. Krauter,  A. Kunitsa,  Ka Un Lao,  A. Laurent,  
 K. V. Lawler,  Joonho Lee,  D. Lefrancois,  S. Lehtola,  D. S. Levine,  
 Yi-Pei Li,  You-Sheng Lin,  Fenglai Liu,  E. Livshits,  A. Luenser,  
 P. Manohar,  E. Mansoor,  S. F. Manzer,  Shan-Ping Mao,  Yuezhi Mao,  
 N. Mardirossian,  A. V. Marenich,  L. A. Martinez-Martinez,  S. A. Maurer,  
 N. J. Mayhall,  S. C. McKenzie,  J.-M. Mewes,  A. F. Morrison,  K. Nanda,  
 T. S. Nguyen-Beck,  R. Olivares-Amaya,  J. A. Parkhill,  T. M. Perrine,  
 F. Plasser,  S. Prager,  A. Prociuk,  D. R. Rehn,  F. Rob,  M. Schneider,  
 N. Sergueev,  S. M. Sharada,  S. Sharma,  D. W. Small,  T. Stauch,  
 T. Stein,  Yu-Chuan Su,  A. J. W. Thom,  T. Tsuchimochi,  L. Vogt,  
 O. Vydrov,  M. A. Watson,  J. Wenzel,  M. de Wergifosse,  T. A. Wesolowski,  
 A. White,  J. Witte,  A. Yamada,  Jun Yang,  K. Yao,  S. Yeganeh,  
 S. R. Yost,  Zhi-Qiang You,  A. Zech,  Igor Ying Zhang,  Xing Zhang,  
 Yan Zhao,  Ying Zhu,  B. R. Brooks,  G. K. L. Chan,  C. J. Cramer,  
 M. S. Gordon,  W. J. Hehre,  A. Klamt,  M. W. Schmidt,  C. D. Sherrill,  
 D. G. Truhlar,  A. Aspuru-Guzik,  R. Baer,  A. T. Bell,  N. A. Besley,  
 Jeng-Da Chai,  A. Dreuw,  B. D. Dunietz,  T. R. Furlani,  Chao-Ping Hsu,  
 Yousung Jung,  Jing Kong,  D. S. Lambrecht,  WanZhen Liang,  C. Ochsenfeld,  
 V. A. Rassolov,  L. V. Slipchenko,  J. E. Subotnik,  T. Van Voorhis,  
 J. M. Herbert,  A. I. Krylov,  P. M. W. Gill,  M. Head-Gordon

 Contributors to earlier versions of Q-Chem not listed above: 
 R. D. Adamson,  B. Austin,  J. Baker,  G. J. O. Beran,  K. Brandhorst,  
 S. T. Brown,  E. F. C. Byrd,  A. K. Chakraborty,  C.-L. Cheng,  
 Siu Hung Chien,  D. M. Chipman,  D. L. Crittenden,  H. Dachsel,  
 R. A. DiStasio Jr.,  R. J. Doerksen,  A. D. Dutoi,  L. Fusti-Molnar,  
 W. A. Goddard III,  A. Golubeva-Zadorozhnaya,  S. R. Gwaltney,  G. Hawkins,  
 A. Heyden,  S. Hirata,  G. Kedziora,  F. J. Keil,  C. Kelley,  Jihan Kim,  
 R. A. King,  R. Z. Khaliullin,  P. P. Korambath,  W. Kurlancheek,  
 A. M. Lee,  M. S. Lee,  S. V. Levchenko,  Ching Yeh Lin,  D. Liotard,  
 R. C. Lochan,  I. Lotan,  P. E. Maslen,  N. Nair,  D. P. O'Neill,  
 D. Neuhauser,  E. Neuscamman,  C. M. Oana,  R. Olson,  B. Peters,  
 R. Peverati,  P. A. Pieniazek,  Y. M. Rhee,  J. Ritchie,  M. A. Rohrdanz,  
 E. Rosta,  N. J. Russ,  H. F. Schaefer III,  N. E. Schultz,  N. Shenvi,  
 A. C. Simmonett,  A. Sodt,  D. Stuck,  K. S. Thanthiriwatte,  V. Vanovschi,  
 Tao Wang,  A. Warshel,  C. F. Williams,  Q. Wu,  X. Xu,  W. Zhang

 Please cite Q-Chem as follows:
 Y. Shao et al., Mol. Phys. 113, 184-215 (2015)
 DOI: 10.1080/00268976.2014.952696

 Q-Chem 5.0.1 for Intel X86 EM64T Linux

 Parts of Q-Chem use Armadillo 5.200.1 (Boston Tea Smuggler).
 http://arma.sourceforge.net/

 Q-Chem begins on Wed Apr 18 16:09:28 2018  

Host: vega02.cac.cornell.edu
0

     Scratch files written to /scratch/jj585/vdw/benzene_distance_5.300_01.save//
 Parallel job on  1  processors

Checking the input file for inconsistencies... 	...done.

--------------------------------------------------------------
User input:
--------------------------------------------------------------
$molecule
0  1
C        +0.00000000        +1.39198000        +5.30000000
C        +1.20549000        +0.69599000        +5.30000000
C        +1.20549000        -0.69599000        +5.30000000
C        +0.00000000        -1.39198000        +5.30000000
C        -1.20549000        -0.69599000        +5.30000000
C        -1.20549000        +0.69599000        +5.30000000
H        +0.00000000        +2.47223000        +5.30000000
H        +2.14101000        +1.23612000        +5.30000000
H        +2.14101000        -1.23612000        +5.30000000
H        +0.00000000        -2.47223000        +5.30000000
H        -2.14101000        -1.23612000        +5.30000000
H        -2.14101000        +1.23612000        +5.30000000
@C        +0.00000000        +1.39198000        +0.00000000
@C        +1.20549000        +0.69599000        +0.00000000
@C        +1.20549000        -0.69599000        +0.00000000
@C        +0.00000000        -1.39198000        +0.00000000
@C        -1.20549000        -0.69599000        +0.00000000
@C        -1.20549000        +0.69599000        +0.00000000
@H        +0.00000000        +2.47223000        +0.00000000
@H        +2.14101000        +1.23612000        +0.00000000
@H        +2.14101000        -1.23612000        +0.00000000
@H        +0.00000000        -2.47223000        +0.00000000
@H        -2.14101000        -1.23612000        +0.00000000
@H        -2.14101000        +1.23612000        +0.00000000
$end

$rem
JOBTYPE                   SP
METHOD                    B3LYP
DFT_D                     d3_op
BASIS                     6-311++G(d,p)
SYMMETRY                  False
THRESH                    12
SCF_CONVERGENCE           8
MAX_SUB_FILE_NUM          128
MEM_STATIC                400
MEM_TOTAL                 4000
$end
--------------------------------------------------------------
 Adding empirical dispersion correction 
 ----------------------------------------------------------------
 Doing -D3(op) with
 s6 =   1.00000
 s8 =   0.78311
 a1 =   0.30000
 a2 =   4.25000
 n  =  10.00000
 -D3 energy without 3body term =     -0.0081861633 hartrees
 ----------------------------------------------------------------
             Standard Nuclear Orientation (Angstroms)
    I     Atom           X                Y                Z
 ----------------------------------------------------------------
    1      C       0.0000000000     1.3919800000     5.3000000000
    2      C       1.2054900000     0.6959900000     5.3000000000
    3      C       1.2054900000    -0.6959900000     5.3000000000
    4      C       0.0000000000    -1.3919800000     5.3000000000
    5      C      -1.2054900000    -0.6959900000     5.3000000000
    6      C      -1.2054900000     0.6959900000     5.3000000000
    7      H       0.0000000000     2.4722300000     5.3000000000
    8      H       2.1410100000     1.2361200000     5.3000000000
    9      H       2.1410100000    -1.2361200000     5.3000000000
   10      H       0.0000000000    -2.4722300000     5.3000000000
   11      H      -2.1410100000    -1.2361200000     5.3000000000
   12      H      -2.1410100000     1.2361200000     5.3000000000
   13      GH      0.0000000000     1.3919800000     0.0000000000
   14      GH      1.2054900000     0.6959900000     0.0000000000
   15      GH      1.2054900000    -0.6959900000     0.0000000000
   16      GH      0.0000000000    -1.3919800000     0.0000000000
   17      GH     -1.2054900000    -0.6959900000     0.0000000000
   18      GH     -1.2054900000     0.6959900000     0.0000000000
   19      GH      0.0000000000     2.4722300000     0.0000000000
   20      GH      2.1410100000     1.2361200000     0.0000000000
   21      GH      2.1410100000    -1.2361200000     0.0000000000
   22      GH      0.0000000000    -2.4722300000     0.0000000000
   23      GH     -2.1410100000    -1.2361200000     0.0000000000
   24      GH     -2.1410100000     1.2361200000     0.0000000000
 ----------------------------------------------------------------
 Nuclear Repulsion Energy =   203.9449308443 hartrees
 There are       21 alpha and       21 beta electrons
 Requested basis set is 6-311++G(d,p)
 There are 132 shells and 348 basis functions

 Total QAlloc Memory Limit   4000 MB
 Mega-Array Size       392 MB
 MEM_STATIC part       400 MB
 A cutoff of  1.0D-12 yielded   7020 shell pairs
 There are     48546 function pairs (     51492 Cartesian)
 
 -------------------------------------------------------
 OpenMP Integral Computing Module                       
 Release: version 1.0, May 2013, Q-Chem Inc. Pittsburgh 
 -------------------------------------------------------
 Integral Job Info:
 Integral job number is                      11
 Integral operator is                         1
 short-range coefficients                     0
 long-range coefficients              100000000
 Omega coefficients                           0
 if combine SR and LR in K                    0
 Integral screening is                        0
 Integral computing path is                   2
 max size of driver memory is            800000
 size of driver memory is                593474
 size of scratch memory is              2361544
 max col of scratch BK array               1296
 max len of scratch array in speh3          155
 max len of scratch index in speh4           18
 max int batch size is                      520
 min int batch size is                       52
 fixed nKL is                                52
 max L of basis functions is                  2
 order of int derivative is                   0
 number of shells is                        132
 number of basis is                         360
 number of cartesian basis is               360
 number of contracted shell pairs          7020
 number of primitive shell pairs          16272
 maxK2 (contraction) of shell pair           36
 max number of K2 of shell pair               1
 max number of CS2 of shell pair           1296
 max number of PS2 of shell pair           2232
 mem total for path MDJ                   87402
 -------------------------------------------------------
 Smallest overlap matrix eigenvalue = 4.97E-07
 Linear dependence detected in AO basis
 Number of orthogonalized atomic orbitals = 347
 Maximum deviation from orthogonality = 4.544E-11

 Scale SEOQF with 1.000000e-01/1.000000e-01/1.000000e-02

 Standard Electronic Orientation quadrupole field applied
 Nucleus-field energy     =    -0.0000000069 hartrees
 Guess from superposition of atomic densities
 Warning:  Energy on first SCF cycle will be non-variational

 Q-Chem warning in module /opt/software/qchem/qchem-5.0.1/libgen/Atomic_PolEc.C, line 58:

 No atomic polarizability available.


 Q-Chem warning in module /opt/software/qchem/qchem-5.0.1/libgen/Atomic_PolEc.C, line 73:

 No atomic polarizability available.


 Q-Chem warning in module /opt/software/qchem/qchem-5.0.1/libgen/Atomic_PolEc.C, line 58:

 No atomic polarizability available.


 Q-Chem warning in module /opt/software/qchem/qchem-5.0.1/libgen/Atomic_PolEc.C, line 73:

 No atomic polarizability available.


 Q-Chem warning in module /opt/software/qchem/qchem-5.0.1/libgen/Atomic_PolEc.C, line 58:

 No atomic polarizability available.


 Q-Chem warning in module /opt/software/qchem/qchem-5.0.1/libgen/Atomic_PolEc.C, line 73:

 No atomic polarizability available.


 Q-Chem warning in module /opt/software/qchem/qchem-5.0.1/libgen/Atomic_PolEc.C, line 58:

 No atomic polarizability available.


 Q-Chem warning in module /opt/software/qchem/qchem-5.0.1/libgen/Atomic_PolEc.C, line 73:

 No atomic polarizability available.


 Q-Chem warning in module /opt/software/qchem/qchem-5.0.1/libgen/Atomic_PolEc.C, line 58:

 No atomic polarizability available.


 Q-Chem warning in module /opt/software/qchem/qchem-5.0.1/libgen/Atomic_PolEc.C, line 73:

 No atomic polarizability available.


 Q-Chem warning in module /opt/software/qchem/qchem-5.0.1/libgen/Atomic_PolEc.C, line 58:

 No atomic polarizability available.


 Q-Chem warning in module /opt/software/qchem/qchem-5.0.1/libgen/Atomic_PolEc.C, line 73:

 No atomic polarizability available.


 Q-Chem warning in module /opt/software/qchem/qchem-5.0.1/libgen/Atomic_PolEc.C, line 58:

 No atomic polarizability available.


 Q-Chem warning in module /opt/software/qchem/qchem-5.0.1/libgen/Atomic_PolEc.C, line 73:

 No atomic polarizability available.


 Q-Chem warning in module /opt/software/qchem/qchem-5.0.1/libgen/Atomic_PolEc.C, line 58:

 No atomic polarizability available.


 Q-Chem warning in module /opt/software/qchem/qchem-5.0.1/libgen/Atomic_PolEc.C, line 73:

 No atomic polarizability available.


 Q-Chem warning in module /opt/software/qchem/qchem-5.0.1/libgen/Atomic_PolEc.C, line 58:

 No atomic polarizability available.


 Q-Chem warning in module /opt/software/qchem/qchem-5.0.1/libgen/Atomic_PolEc.C, line 73:

 No atomic polarizability available.


 Q-Chem warning in module /opt/software/qchem/qchem-5.0.1/libgen/Atomic_PolEc.C, line 58:

 No atomic polarizability available.


 Q-Chem warning in module /opt/software/qchem/qchem-5.0.1/libgen/Atomic_PolEc.C, line 73:

 No atomic polarizability available.


 Q-Chem warning in module /opt/software/qchem/qchem-5.0.1/libgen/Atomic_PolEc.C, line 58:

 No atomic polarizability available.


 Q-Chem warning in module /opt/software/qchem/qchem-5.0.1/libgen/Atomic_PolEc.C, line 73:

 No atomic polarizability available.


 Q-Chem warning in module /opt/software/qchem/qchem-5.0.1/libgen/Atomic_PolEc.C, line 58:

 No atomic polarizability available.


 Q-Chem warning in module /opt/software/qchem/qchem-5.0.1/libgen/Atomic_PolEc.C, line 73:

 No atomic polarizability available.

 A restricted hybrid HF-DFT SCF calculation will be
 performed using Pulay DIIS extrapolation
 Exchange:     0.2000 Hartree-Fock + 0.0800 Slater + 0.7200 B88
 Correlation:  0.1900 VWN1RPA + 0.8100 LYP
 Using SG-1 standard quadrature grid
 Dispersion:   Grimme D3
 SCF converges when DIIS error is below 1.0E-08
 using 4 threads for integral computing
 -------------------------------------------------------
 OpenMP Integral computing Module                
 Release: version 1.0, May 2013, Q-Chem Inc. Pittsburgh 
 -------------------------------------------------------
 -------------------------------------------------------
 OpenMP BLAS3 based DFT computing Module                
 Release: version 1.0, May 2013, Q-Chem Inc. Pittsburgh 
 -------------------------------------------------------
 ---------------------------------------
  Cycle       Energy         DIIS Error
 ---------------------------------------
    1    -233.6360967097      2.44E-02
    2    -232.1994387284      2.65E-03
    3    -232.1630806860      3.09E-03
    4    -232.3189498556      2.09E-04
    5    -232.3194972930      2.98E-05
    6    -232.3195099650      1.89E-06
    7    -232.3195100315      3.30E-07
    8    -232.3195100327      1.66E-07
    9    -232.3195100331      4.52E-08
   10    -232.3195100332      4.34E-09 Convergence criterion met
 ---------------------------------------
 SCF time:  CPU 170.36 s  wall 42.75 s
 SCF   energy in the final basis set = -232.31951003
 Total energy in the final basis set = -232.31951003
 
 --------------------------------------------------------------
 
                    Orbital Energies (a.u.)
 --------------------------------------------------------------
 
 Alpha MOs
 -- Occupied --
-10.178 -10.178 -10.178 -10.177 -10.177 -10.177  -0.861  -0.752
 -0.752  -0.609  -0.609  -0.531  -0.467  -0.454  -0.429  -0.429
 -0.374  -0.351  -0.351  -0.260  -0.260
 -- Virtual --
 -0.017  -0.017  -0.008   0.009   0.009   0.021   0.032   0.032
  0.040   0.040   0.059   0.060   0.065   0.065   0.068   0.091
  0.092   0.092   0.094   0.099   0.113   0.113   0.117   0.119
  0.119   0.128   0.128   0.128   0.137   0.137   0.142   0.142
  0.143   0.155   0.155   0.162   0.166   0.166   0.168   0.187
  0.187   0.189   0.190   0.199   0.200   0.200   0.200   0.206
  0.206   0.221   0.238   0.243   0.250   0.250   0.250   0.250
  0.263   0.263   0.265   0.286   0.286   0.295   0.295   0.307
  0.307   0.308   0.320   0.320   0.336   0.346   0.346   0.360
  0.360   0.373   0.373   0.398   0.409   0.409   0.418   0.440
  0.452   0.481   0.481   0.500   0.518   0.519   0.551   0.551
  0.552   0.554   0.570   0.570   0.579   0.579   0.580   0.589
  0.589   0.606   0.606   0.631   0.631   0.644   0.644   0.673
  0.690   0.703   0.723   0.725   0.725   0.732   0.733   0.736
  0.736   0.755   0.755   0.791   0.794   0.841   0.841   0.856
  0.860   0.860   0.873   0.889   0.889   0.917   0.917   0.945
  0.945   0.946   0.950   1.012   1.020   1.020   1.078   1.078
  1.104   1.117   1.140   1.140   1.168   1.168   1.207   1.208
  1.219   1.306   1.318   1.348   1.412   1.412   1.449   1.458
  1.507   1.519   1.519   1.524   1.524   1.536   1.554   1.554
  1.570   1.574   1.574   1.651   1.651   1.667   1.667   1.710
  1.710   1.714   1.714   1.716   1.727   1.732   1.732   1.775
  1.779   1.779   1.784   1.831   1.831   1.853   1.872   1.883
  1.883   1.930   1.930   1.950   1.950   1.958   1.969   1.969
  1.973   2.002   2.024   2.024   2.029   2.030   2.037   2.037
  2.086   2.086   2.237   2.251   2.272   2.304   2.316   2.332
  2.347   2.383   2.383   2.412   2.412   2.425   2.425   2.426
  2.457   2.464   2.464   2.491   2.491   2.567   2.572   2.572
  2.598   2.598   2.632   2.632   2.668   2.668   2.731   2.745
  2.745   2.755   2.767   2.767   2.781   2.820   2.820   2.898
  2.898   2.906   2.906   2.919   2.962   2.962   3.001   3.001
  3.002   3.002   3.017   3.082   3.110   3.199   3.199   3.307
  3.307   3.352   3.352   3.379   3.386   3.394   3.492   3.492
  3.504   3.530   3.530   3.536   3.555   3.586   3.586   3.698
  3.727   3.727   3.976   4.003   4.003   4.028   4.028   4.088
  4.160   4.160   4.541   4.847   4.873   4.884   4.885   5.106
  5.106   5.603   7.050   7.122   7.122   7.216   7.216   7.358
  7.695   7.737   7.737   7.753   7.789   7.789   7.964   7.965
  7.983   7.983   8.285   8.905   9.629  10.219  10.219  10.279
 10.280  10.349  23.600  23.986  23.986  24.104  24.104  24.213
 69.768  70.026  70.027  70.058  70.059  70.106
 --------------------------------------------------------------
 
          Ground-State Mulliken Net Atomic Charges

     Atom                 Charge (a.u.)
  ----------------------------------------
      1 C                    -0.159300
      2 C                    -0.156726
      3 C                    -0.156726
      4 C                    -0.159300
      5 C                    -0.156726
      6 C                    -0.156726
      7 H                     0.158286
      8 H                     0.158155
      9 H                     0.158155
     10 H                     0.158286
     11 H                     0.158155
     12 H                     0.158155
     13 GH                   -0.001189
     14 GH                   -0.000828
     15 GH                   -0.000828
     16 GH                   -0.001189
     17 GH                   -0.000828
     18 GH                   -0.000828
     19 GH                    0.000293
     20 GH                    0.000354
     21 GH                    0.000354
     22 GH                    0.000293
     23 GH                    0.000354
     24 GH                    0.000354
  ----------------------------------------
  Sum of atomic charges =    -0.000000

 -----------------------------------------------------------------
                    Cartesian Multipole Moments
 -----------------------------------------------------------------
    Charge (ESU x 10^10)
                -0.0000
    Dipole Moment (Debye)
         X      -0.0000      Y      -0.0000      Z      -0.0002
       Tot       0.0002
    Quadrupole Moments (Debye-Ang)
        XX     -32.1428     XY       0.0000     YY     -32.1470
        XZ      -0.0000     YZ      -0.0000     ZZ     -40.2439
    Octopole Moments (Debye-Ang^2)
       XXX       0.0000    XXY       0.0000    XYY      -0.0000
       YYY       0.0000    XXZ    -170.3544    XYZ       0.0000
       YYZ    -170.3761    XZZ      -0.0000    YZZ      -0.0000
       ZZZ    -639.8439
    Hexadecapole Moments (Debye-Ang^3)
      XXXX    -275.1199   XXXY      -0.0000   XXYY     -91.7104
      XYYY       0.0000   YYYY    -275.1487   XXXZ       0.0000
      XXYZ       0.0000   XYYZ      -0.0000   YYYZ       0.0000
      XXZZ    -967.8061   XYZZ       0.0000   YYZZ    -967.9325
      XZZZ      -0.0000   YZZZ      -0.0000   ZZZZ   -6832.0047
 -----------------------------------------------------------------
Archival summary:
1\1\vega02.cac.cornell.edu\SP\ProcedureUnspecified\BasisUnspecified\66h12\jj585\WedApr1816:10:112018WedApr1816:10:112018\0\\#,ProcedureUnspecified,BasisUnspecified,\\0,1\C\H,1,1.08025\C,1,1.39198,2,120\H,3,1.08025,1,120,2,-0,0\C,1,1.39198,2,120,3,-180,0\H,5,1.08025,1,120,2,-0,0\C,3,1.39198,1,120,2,-180,0\H,7,1.08025,3,120,1,-180,0\C,7,1.39198,3,120,1,-0,0\H,9,1.08025,7,120,3,-180,0\C,9,1.39198,7,120,3,-0,0\H,11,1.08025,9,120,7,-180,0\Gh,4,5.3,3,90,1,90,0\Gh,13,1.08025,4,90,3,-0,0\Gh,14,1.39198,13,120,4,-90,0\Gh,15,1.08025,14,120,13,-0,0\Gh,15,1.39198,14,120,13,-180,0\Gh,17,1.08025,15,120,14,-180,0\Gh,14,1.39198,13,120,4,90,0\Gh,19,1.08025,14,120,13,-0,0\Gh,19,1.39198,14,120,13,-180,0\Gh,21,1.08025,19,120,14,-180,0\Gh,21,1.39198,19,120,14,-0,0\Gh,23,1.08025,21,120,19,-180,0\\\@

 Total job time:  43.42s(wall), 172.17s(cpu) 
 Wed Apr 18 16:10:11 2018

        *************************************************************
        *                                                           *
        *  Thank you very much for using Q-Chem.  Have a nice day.  *
        *                                                           *
        *************************************************************


0 sent ACK to 0 
now end server 0 ... 
