r0093.ten.osc.edu 10.25.153
Q-Chem Developer Version! Running on 10.25.153.*
                  Welcome to Q-Chem
     A Quantum Leap Into The Future Of Chemistry


 Q-Chem 5.0, Q-Chem, Inc., Pleasanton, CA (2017)

 Yihan Shao,  Zhengting Gan,  E. Epifanovsky,  A. T. B. Gilbert,  M. Wormit,  
 J. Kussmann,  A. W. Lange,  A. Behn,  Jia Deng,  Xintian Feng,  D. Ghosh,  
 M. Goldey,  P. R. Horn,  L. D. Jacobson,  I. Kaliman,  T. Kus,  A. Landau,  
 Jie Liu,  E. I. Proynov,  R. M. Richard,  R. P. Steele,  E. J. Sundstrom,  
 H. L. Woodcock III,  P. M. Zimmerman,  D. Zuev,  B. Albrecht,  E. Alguire,  
 S. A. Baeppler,  Z. Benda,  Y. A. Bernard,  E. J. Berquist,  K. B. Bravaya,  
 D. Casanova,  Chun-Min Chang,  Yunqing Chen,  A. Chien,  K. D. Closser,  
 M. P. Coons,  S. Dasgupta,  M. Diedenhofen,  Hainam Do,  R. G. Edgar,  
 Po-Tung Fang,  S. Fatehi,  Qingguo Feng,  Qinghui Ge,  A. Ghysels,  
 J. Gomes,  J. Gonthier,  A. Gunina,  M. W. D. Hanson-Heine,  
 P. H. P. Harbach,  A. W. Hauser,  J. E. Herr,  E. G. Hohenstein,  
 Z. C. Holden,  Kerwin Hui,  T.-C. Jagau,  Hyunjun Ji,  B. Kaduk,  
 K. Khistyaev,  Jaehoon Kim,  P. Klunzinger,  K. Koh,  D. Kosenkov,  
 T. Kowalczyk,  C. M. Krauter,  A. Kunitsa,  Ka Un Lao,  A. Laurent,  
 K. V. Lawler,  Joonho Lee,  D. Lefrancois,  S. Lehtola,  D. S. Levine,  
 Yi-Pei Li,  You-Sheng Lin,  Fenglai Liu,  E. Livshits,  A. Luenser,  
 P. Manohar,  E. Mansoor,  S. F. Manzer,  Shan-Ping Mao,  Yuezhi Mao,  
 N. Mardirossian,  A. V. Marenich,  L. A. Martinez-Martinez,  S. A. Maurer,  
 N. J. Mayhall,  S. C. McKenzie,  J.-M. Mewes,  A. F. Morrison,  K. Nanda,  
 T. S. Nguyen-Beck,  R. Olivares-Amaya,  J. A. Parkhill,  T. M. Perrine,  
 F. Plasser,  S. Prager,  A. Prociuk,  D. R. Rehn,  F. Rob,  M. Schneider,  
 N. Sergueev,  S. M. Sharada,  S. Sharma,  D. W. Small,  T. Stauch,  
 T. Stein,  Yu-Chuan Su,  A. J. W. Thom,  T. Tsuchimochi,  L. Vogt,  
 O. Vydrov,  M. A. Watson,  J. Wenzel,  M. de Wergifosse,  T. A. Wesolowski,  
 A. White,  J. Witte,  A. Yamada,  Jun Yang,  K. Yao,  S. Yeganeh,  
 S. R. Yost,  Zhi-Qiang You,  A. Zech,  Igor Ying Zhang,  Xing Zhang,  
 Yan Zhao,  Ying Zhu,  B. R. Brooks,  G. K. L. Chan,  C. J. Cramer,  
 M. S. Gordon,  W. J. Hehre,  A. Klamt,  M. W. Schmidt,  C. D. Sherrill,  
 D. G. Truhlar,  A. Aspuru-Guzik,  R. Baer,  A. T. Bell,  N. A. Besley,  
 Jeng-Da Chai,  A. Dreuw,  B. D. Dunietz,  T. R. Furlani,  Chao-Ping Hsu,  
 Yousung Jung,  Jing Kong,  D. S. Lambrecht,  WanZhen Liang,  C. Ochsenfeld,  
 V. A. Rassolov,  L. V. Slipchenko,  J. E. Subotnik,  T. Van Voorhis,  
 J. M. Herbert,  A. I. Krylov,  P. M. W. Gill,  M. Head-Gordon

 Contributors to earlier versions of Q-Chem not listed above: 
 R. D. Adamson,  B. Austin,  J. Baker,  G. J. O. Beran,  K. Brandhorst,  
 S. T. Brown,  E. F. C. Byrd,  A. K. Chakraborty,  C.-L. Cheng,  
 Siu Hung Chien,  D. M. Chipman,  D. L. Crittenden,  H. Dachsel,  
 R. A. DiStasio Jr.,  R. J. Doerksen,  A. D. Dutoi,  L. Fusti-Molnar,  
 W. A. Goddard III,  A. Golubeva-Zadorozhnaya,  S. R. Gwaltney,  G. Hawkins,  
 A. Heyden,  S. Hirata,  G. Kedziora,  F. J. Keil,  C. Kelley,  Jihan Kim,  
 R. A. King,  R. Z. Khaliullin,  P. P. Korambath,  W. Kurlancheek,  
 A. M. Lee,  M. S. Lee,  S. V. Levchenko,  Ching Yeh Lin,  D. Liotard,  
 R. C. Lochan,  I. Lotan,  P. E. Maslen,  N. Nair,  D. P. O'Neill,  
 D. Neuhauser,  E. Neuscamman,  C. M. Oana,  R. Olson,  B. Peters,  
 R. Peverati,  P. A. Pieniazek,  Y. M. Rhee,  J. Ritchie,  M. A. Rohrdanz,  
 E. Rosta,  N. J. Russ,  H. F. Schaefer III,  N. E. Schultz,  N. Shenvi,  
 A. C. Simmonett,  A. Sodt,  D. Stuck,  K. S. Thanthiriwatte,  V. Vanovschi,  
 Tao Wang,  A. Warshel,  C. F. Williams,  Q. Wu,  X. Xu,  W. Zhang

 Please cite Q-Chem as follows:
 Y. Shao et al., Mol. Phys. 113, 184-215 (2015)
 DOI: 10.1080/00268976.2014.952696

 Q-Chem 5.0.1 for Intel X86 EM64T Linux

 Parts of Q-Chem use Armadillo 5.200.1 (Boston Tea Smuggler).
 http://arma.sourceforge.net/

 Q-Chem begins on Sun Oct 15 23:04:32 2017  

Host: r0093.ten.osc.edu
0

     Scratch files written to /tmp/pbstmp.1310561/01//
Processing $rem in /users/PAS0291/osu6415/.qchemrc.
molden_format             true

Checking the input file for inconsistencies... 	...done.

--------------------------------------------------------------
User input:
--------------------------------------------------------------
$molecule
0 1
C -0.45609665 -0.85278374 0.40048012
C -0.62392778 0.67715223 0.72978490
C 0.88988421 -1.34184110 -0.10073377
C 0.40243975 1.69069393 0.23251392
O 1.73033188 -1.53878465 0.93821161
O 1.16434800 -1.60879444 -1.24325454
O 1.60165012 1.16314285 -0.04770041
O 0.15560142 2.86871449 0.13265095
C 2.59936371 2.07222729 -0.55156420
C 3.05744537 -1.97082608 0.59651404
C -1.61282847 -1.06852898 -0.61733096
C -2.92737149 -1.24771796 0.16448932
C -3.13066177 0.19745035 0.71399577
C -1.97592350 0.95443538 0.01691482
O -1.79071678 0.23007733 -1.20753482
H -0.64317267 -1.41248376 1.31938666
H -0.69257759 0.83312227 1.80950797
H 2.24721448 2.54537083 -1.46842678
H 3.54638195 -1.22525783 -0.03273753
H -1.39663043 -1.79707119 -1.39308170
H -3.73136452 -1.52994272 -0.51687464
H -2.86064462 -2.00582149 0.94763409
H -4.09379736 0.61102357 0.41302234
H -3.06536763 0.25531728 1.80274010
H -2.14984935 2.00578761 -0.19064218
H 2.82342835 2.83852167 0.19154873
H 3.47462631 1.45798276 -0.74934998
H 3.02664322 -2.92306945 0.06468261
H 3.58317322 -2.07651826 1.54296954
$end

$rem
sym_ignore      true
jobtype         ts
method          b3lyp
basis           6-311++G(d,p)
dft_d           d3_op
mem_total       62000
MEM_STATIC      4000
ao2mo_disk      350000
max_scf_cycles  200
geom_opt_max_cycles 1000
geom_opt_tol_displacement 1
GEOM_OPT_TOL_GRADIENT       1
GEOM_OPT_TOL_ENERGY         1
$end

--------------------------------------------------------------
 Adding empirical dispersion correction 
 ----------------------------------------------------------------
 Doing -D3(op) with
 s6 =   1.00000
 s8 =   0.78311
 a1 =   0.30000
 a2 =   4.25000
 n  =  10.00000
 -D3 energy without 3body term =     -0.0305598003 hartrees
 ----------------------------------------------------------------
             Standard Nuclear Orientation (Angstroms)
    I     Atom           X                Y                Z
 ----------------------------------------------------------------
    1      C      -0.4560966500    -0.8527837400     0.4004801200
    2      C      -0.6239277800     0.6771522300     0.7297849000
    3      C       0.8898842100    -1.3418411000    -0.1007337700
    4      C       0.4024397500     1.6906939300     0.2325139200
    5      O       1.7303318800    -1.5387846500     0.9382116100
    6      O       1.1643480000    -1.6087944400    -1.2432545400
    7      O       1.6016501200     1.1631428500    -0.0477004100
    8      O       0.1556014200     2.8687144900     0.1326509500
    9      C       2.5993637100     2.0722272900    -0.5515642000
   10      C       3.0574453700    -1.9708260800     0.5965140400
   11      C      -1.6128284700    -1.0685289800    -0.6173309600
   12      C      -2.9273714900    -1.2477179600     0.1644893200
   13      C      -3.1306617700     0.1974503500     0.7139957700
   14      C      -1.9759235000     0.9544353800     0.0169148200
   15      O      -1.7907167800     0.2300773300    -1.2075348200
   16      H      -0.6431726700    -1.4124837600     1.3193866600
   17      H      -0.6925775900     0.8331222700     1.8095079700
   18      H       2.2472144800     2.5453708300    -1.4684267800
   19      H       3.5463819500    -1.2252578300    -0.0327375300
   20      H      -1.3966304300    -1.7970711900    -1.3930817000
   21      H      -3.7313645200    -1.5299427200    -0.5168746400
   22      H      -2.8606446200    -2.0058214900     0.9476340900
   23      H      -4.0937973600     0.6110235700     0.4130223400
   24      H      -3.0653676300     0.2553172800     1.8027401000
   25      H      -2.1498493500     2.0057876100    -0.1906421800
   26      H       2.8234283500     2.8385216700     0.1915487300
   27      H       3.4746263100     1.4579827600    -0.7493499800
   28      H       3.0266432200    -2.9230694500     0.0646826100
   29      H       3.5831732200    -2.0765182600     1.5429695400
 ----------------------------------------------------------------
 Nuclear Repulsion Energy =  1114.3836726856 hartrees
 There are       57 alpha and       57 beta electrons
 Requested basis set is 6-311++G(d,p)
 There are 160 shells and 428 basis functions

 Total QAlloc Memory Limit  62000 MB
 Mega-Array Size      3911 MB
 MEM_STATIC part      4000 MB
 A cutoff of  1.0D-11 yielded  10601 shell pairs
 There are     77443 function pairs (     82707 Cartesian)
 
 -------------------------------------------------------
 OpenMP Integral Computing Module                       
 Release: version 1.0, May 2013, Q-Chem Inc. Pittsburgh 
 -------------------------------------------------------
 Integral Job Info:
 Integral job number is                      11
 Integral operator is                         1
 short-range coefficients                     0
 long-range coefficients              100000000
 Omega coefficients                           0
 if combine SR and LR in K                    0
 Integral screening is                        0
 Integral computing path is                   2
 max size of driver memory is            800000
 size of driver memory is                593474
 size of scratch memory is              2361544
 max col of scratch BK array               1296
 max len of scratch array in speh3          155
 max len of scratch index in speh4           18
 max int batch size is                      520
 min int batch size is                       52
 fixed nKL is                                52
 max L of basis functions is                  2
 order of int derivative is                   0
 number of shells is                        160
 number of basis is                         443
 number of cartesian basis is               443
 number of contracted shell pairs         10601
 number of primitive shell pairs          24050
 maxK2 (contraction) of shell pair           36
 max number of K2 of shell pair               1
 max number of CS2 of shell pair           1952
 max number of PS2 of shell pair           3426
 mem total for path MDJ                  143512
 -------------------------------------------------------
 Smallest overlap matrix eigenvalue = 1.10E-06

 Q-Chem warning in module /fs/scratch/osu6415/qchem-kaunlao-vdw/stvman/mkSTV.C, line 281:

 Overlap eigenvalue is smaller than square root of threshold


 Scale SEOQF with 1.000000e-01/1.000000e-01/1.000000e-01

 Standard Electronic Orientation quadrupole field applied
 Nucleus-field energy     =     0.0000000288 hartrees
 Guess from superposition of atomic densities
 Warning:  Energy on first SCF cycle will be non-variational
 A restricted hybrid HF-DFT SCF calculation will be
 performed using Pulay DIIS extrapolation
 Exchange:     0.2000 Hartree-Fock + 0.0800 Slater + 0.7200 B88
 Correlation:  0.1900 VWN1RPA + 0.8100 LYP
 Using SG-1 standard quadrature grid
 Dispersion:   Grimme D3
 SCF converges when DIIS error is below 1.0E-08
 using 20 threads for integral computing
 -------------------------------------------------------
 OpenMP Integral computing Module                
 Release: version 1.0, May 2013, Q-Chem Inc. Pittsburgh 
 -------------------------------------------------------
 -------------------------------------------------------
 OpenMP BLAS3 based DFT computing Module                
 Release: version 1.0, May 2013, Q-Chem Inc. Pittsburgh 
 -------------------------------------------------------
 ---------------------------------------
  Cycle       Energy         DIIS Error
 ---------------------------------------
    1    -768.9276571830      3.08E-02
    2    -765.5717170560      3.94E-03
    3    -765.0491229101      6.87E-03
    4    -765.8177479204      1.50E-03
    5    -765.8561381592      4.41E-04
    6    -765.8590199223      1.39E-04
    7    -765.8593286257      4.41E-05
    8    -765.8593612958      1.09E-05
    9    -765.8593634741      3.07E-06
   10    -765.8593635921      1.77E-06
   11    -765.8593636417      3.81E-07
   12    -765.8593636440      1.86E-07
   13    -765.8593636447      3.60E-08
   14    -765.8593636438      1.44E-08
   15    -765.8593636463      3.23E-09 Convergence criterion met
 ---------------------------------------
 SCF time:  CPU 741.66 s  wall 39.27 s
 SCF   energy in the final basis set = -765.85936365
 Total energy in the final basis set = -765.85936365
 
 --------------------------------------------------------------
 
                    Orbital Energies (a.u.)
 --------------------------------------------------------------
 
 Alpha MOs
 -- Occupied --
-19.181 -19.172 -19.130 -19.119 -19.115 -10.312 -10.307 -10.233
-10.232 -10.230 -10.230 -10.212 -10.205 -10.181 -10.180  -1.124
 -1.113  -1.063  -1.032  -1.027  -0.831  -0.784  -0.774  -0.741
 -0.730  -0.658  -0.606  -0.596  -0.573  -0.568  -0.549  -0.523
 -0.504  -0.492  -0.489  -0.488  -0.478  -0.475  -0.463  -0.432
 -0.424  -0.419  -0.414  -0.404  -0.382  -0.375  -0.370  -0.366
 -0.360  -0.354  -0.338  -0.333  -0.322  -0.310  -0.293  -0.282
 -0.276
 -- Virtual --
 -0.020  -0.009  -0.008  -0.002   0.004   0.011   0.014   0.022
  0.027   0.034   0.039   0.041   0.044   0.046   0.048   0.056
  0.069   0.076   0.080   0.085   0.092   0.093   0.098   0.100
  0.104   0.108   0.111   0.113   0.117   0.120   0.123   0.129
  0.129   0.134   0.138   0.142   0.142   0.147   0.149   0.151
  0.154   0.156   0.159   0.162   0.164   0.167   0.171   0.173
  0.181   0.184   0.190   0.191   0.192   0.195   0.202   0.208
  0.210   0.216   0.223   0.227   0.231   0.236   0.243   0.246
  0.253   0.257   0.270   0.275   0.280   0.281   0.288   0.293
  0.298   0.301   0.304   0.311   0.315   0.322   0.326   0.331
  0.335   0.335   0.338   0.345   0.349   0.355   0.358   0.364
  0.368   0.375   0.377   0.381   0.388   0.393   0.403   0.404
  0.408   0.418   0.426   0.429   0.438   0.453   0.461   0.470
  0.483   0.494   0.503   0.505   0.513   0.539   0.540   0.551
  0.555   0.577   0.587   0.592   0.595   0.608   0.616   0.628
  0.634   0.639   0.646   0.649   0.668   0.670   0.675   0.682
  0.685   0.695   0.703   0.712   0.716   0.724   0.731   0.735
  0.746   0.753   0.760   0.764   0.771   0.779   0.785   0.791
  0.800   0.824   0.841   0.858   0.879   0.893   0.937   0.954
  0.974   0.980   0.983   1.008   1.022   1.046   1.061   1.076
  1.097   1.105   1.118   1.159   1.170   1.188   1.191   1.198
  1.210   1.216   1.233   1.245   1.260   1.272   1.276   1.296
  1.318   1.319   1.350   1.359   1.364   1.379   1.392   1.403
  1.409   1.418   1.433   1.440   1.455   1.458   1.489   1.502
  1.510   1.529   1.551   1.556   1.562   1.570   1.571   1.576
  1.584   1.586   1.611   1.613   1.640   1.643   1.659   1.682
  1.696   1.700   1.706   1.716   1.723   1.726   1.742   1.750
  1.761   1.800   1.801   1.809   1.821   1.831   1.842   1.847
  1.868   1.879   1.896   1.903   1.925   1.927   1.938   1.967
  1.975   1.991   2.013   2.016   2.033   2.046   2.068   2.093
  2.107   2.119   2.124   2.138   2.160   2.171   2.185   2.205
  2.230   2.235   2.254   2.300   2.313   2.330   2.365   2.413
  2.448   2.462   2.465   2.477   2.493   2.502   2.505   2.512
  2.529   2.535   2.552   2.569   2.576   2.594   2.617   2.640
  2.648   2.670   2.694   2.720   2.742   2.758   2.779   2.781
  2.822   2.832   2.838   2.853   2.859   2.878   2.889   2.903
  2.916   2.932   2.954   2.961   2.997   3.001   3.025   3.032
  3.045   3.070   3.092   3.109   3.117   3.123   3.145   3.145
  3.190   3.198   3.225   3.229   3.247   3.269   3.309   3.311
  3.354   3.376   3.394   3.408   3.446   3.595   3.605   3.646
  3.676   3.721   3.775   3.779   3.842   3.865   3.882   3.933
  3.995   4.020   4.041   4.070   4.090   4.122   4.131   4.161
  4.177   4.229   4.250   4.409   4.488   5.024   5.064   5.083
  5.135   5.188   5.246   5.268   5.415   5.448   5.494   5.588
  5.637   5.645   5.872   5.885  23.826  23.834  23.839  23.867
 23.888  23.927  23.935  23.948  23.959  24.052  49.904  49.930
 49.968  50.024  50.035
 --------------------------------------------------------------
 
          Ground-State Mulliken Net Atomic Charges

     Atom                 Charge (a.u.)
  ----------------------------------------
      1 C                     0.245271
      2 C                     0.088554
      3 C                    -0.463101
      4 C                    -0.744567
      5 O                     0.009787
      6 O                    -0.195831
      7 O                    -0.082487
      8 O                    -0.227212
      9 C                    -0.223499
     10 C                    -0.146896
     11 C                     0.068024
     12 C                    -0.668154
     13 C                    -0.318260
     14 C                     0.088787
     15 O                    -0.115472
     16 H                     0.263588
     17 H                     0.219846
     18 H                     0.191999
     19 H                     0.174425
     20 H                     0.286166
     21 H                     0.189198
     22 H                     0.120547
     23 H                     0.185641
     24 H                     0.132399
     25 H                     0.280692
     26 H                     0.186981
     27 H                     0.126870
     28 H                     0.170792
     29 H                     0.155913
  ----------------------------------------
  Sum of atomic charges =     0.000000

 -----------------------------------------------------------------
                    Cartesian Multipole Moments
 -----------------------------------------------------------------
    Charge (ESU x 10^10)
                 0.0000
    Dipole Moment (Debye)
         X       1.0497      Y      -1.4851      Z       2.9546
       Tot       3.4695
    Quadrupole Moments (Debye-Ang)
        XX     -73.8041     XY       3.7424     YY     -92.9329
        XZ      -2.0937     YZ      -3.0941     ZZ     -93.0978
    Octopole Moments (Debye-Ang^2)
       XXX      46.8038    XXY       2.3191    XYY      16.2070
       YYY     -34.5980    XXZ       2.4608    XYZ     -11.1780
       YYZ      -3.4596    XZZ       5.0504    YZZ       7.1956
       ZZZ       1.9683
    Hexadecapole Moments (Debye-Ang^3)
      XXXX   -2046.7170   XXXY     -11.9862   XXYY    -517.9497
      XYYY      11.7877   YYYY   -1417.5125   XXXZ      20.7569
      XXYZ     -11.4788   XYYZ      14.1023   YYYZ      -1.8556
      XXZZ    -439.4786   XYZZ      19.7341   YYZZ    -281.1113
      XZZZ       6.3017   YZZZ      14.1987   ZZZZ    -370.5960
 -----------------------------------------------------------------
 Calculating analytic gradient of the SCF energy
 Gradient of SCF Energy
            1           2           3           4           5           6
    1  -0.0004815   0.0005052   0.0003928   0.0001010   0.0000071  -0.0002523
    2  -0.0003156  -0.0000878   0.0011526   0.0000630  -0.0000183  -0.0007883
    3  -0.0011912   0.0008399   0.0001349   0.0005288  -0.0000034   0.0001064
            7           8           9          10          11          12
    1  -0.0000158  -0.0001495   0.0000081  -0.0000163   0.0000073  -0.0000036
    2  -0.0000104  -0.0000451   0.0000470  -0.0000178   0.0000552  -0.0000615
    3  -0.0000190  -0.0004505   0.0000359  -0.0000626  -0.0000225  -0.0000202
           13          14          15          16          17          18
    1   0.0000081  -0.0000215  -0.0000151  -0.0000532  -0.0000035   0.0000196
    2   0.0000678   0.0000208   0.0000086   0.0000497  -0.0000695  -0.0000190
    3   0.0000409   0.0000173   0.0000062   0.0000112   0.0000054   0.0000138
           19          20          21          22          23          24
    1  -0.0000048  -0.0000159  -0.0000066  -0.0000095   0.0000061  -0.0000131
    2  -0.0000081   0.0000070   0.0000339   0.0000119   0.0000045  -0.0000064
    3   0.0000098  -0.0000031  -0.0000068  -0.0000093  -0.0000062   0.0000062
           25          26          27          28          29
    1   0.0000049   0.0000071   0.0000129  -0.0000133  -0.0000048
    2   0.0000017  -0.0000227  -0.0000116  -0.0000135  -0.0000279
    3   0.0000090   0.0000228   0.0000195  -0.0000054  -0.0000081
 Max gradient component =       1.191E-03
 RMS gradient           =       2.510E-04
 Gradient time:  CPU 247.73 s  wall 18.11 s
 Geometry Optimization Parameters
   NAtoms,    NIC,     NZ,  NCons,   NDum,   NFix, NCnnct, MaxDiis
       29     227       0       0       0       0       0       0


** GEOMETRY OPTIMIZATION IN DELOCALIZED INTERNAL COORDINATES **
   Searching for a Transition State

   Optimization Cycle:   1

                       Coordinates (Angstroms)
     ATOM                X               Y               Z
      1  C        -0.4560966500   -0.8527837400    0.4004801200
      2  C        -0.6239277800    0.6771522300    0.7297849000
      3  C         0.8898842100   -1.3418411000   -0.1007337700
      4  C         0.4024397500    1.6906939300    0.2325139200
      5  O         1.7303318800   -1.5387846500    0.9382116100
      6  O         1.1643480000   -1.6087944400   -1.2432545400
      7  O         1.6016501200    1.1631428500   -0.0477004100
      8  O         0.1556014200    2.8687144900    0.1326509500
      9  C         2.5993637100    2.0722272900   -0.5515642000
     10  C         3.0574453700   -1.9708260800    0.5965140400
     11  C        -1.6128284700   -1.0685289800   -0.6173309600
     12  C        -2.9273714900   -1.2477179600    0.1644893200
     13  C        -3.1306617700    0.1974503500    0.7139957700
     14  C        -1.9759235000    0.9544353800    0.0169148200
     15  O        -1.7907167800    0.2300773300   -1.2075348200
     16  H        -0.6431726700   -1.4124837600    1.3193866600
     17  H        -0.6925775900    0.8331222700    1.8095079700
     18  H         2.2472144800    2.5453708300   -1.4684267800
     19  H         3.5463819500   -1.2252578300   -0.0327375300
     20  H        -1.3966304300   -1.7970711900   -1.3930817000
     21  H        -3.7313645200   -1.5299427200   -0.5168746400
     22  H        -2.8606446200   -2.0058214900    0.9476340900
     23  H        -4.0937973600    0.6110235700    0.4130223400
     24  H        -3.0653676300    0.2553172800    1.8027401000
     25  H        -2.1498493500    2.0057876100   -0.1906421800
     26  H         2.8234283500    2.8385216700    0.1915487300
     27  H         3.4746263100    1.4579827600   -0.7493499800
     28  H         3.0266432200   -2.9230694500    0.0646826100
     29  H         3.5831732200   -2.0765182600    1.5429695400
   Point Group: c1    Number of degrees of freedom:    81


   Energy is   -765.859363646


 Attempting to Generate Delocalized Internal Coordinates

 81 Hessian modes will be used to form the next step
  Hessian Eigenvalues:
     0.003234    0.005770    0.006897    0.007280    0.010256    0.010322
     0.010766    0.010785    0.021950    0.022159    0.023615    0.026356
     0.030374    0.036034    0.038362    0.040912    0.043839    0.048431
     0.051657    0.055037    0.055943    0.057363    0.059011    0.062486
     0.064163    0.065073    0.074183    0.075403    0.092797    0.094507
     0.097960    0.101400    0.101486    0.105921    0.106169    0.115203
     0.121696    0.158750    0.160000    0.160000    0.160000    0.160000
     0.160000    0.160000    0.167454    0.235157    0.238316    0.248071
     0.249465    0.249942    0.250000    0.250000    0.250000    0.250000
     0.258745    0.271451    0.281654    0.298175    0.306327    0.335432
     0.344582    0.345557    0.345727    0.345812    0.346653    0.346754
     0.346826    0.346957    0.347317    0.347513    0.347909    0.350665
     0.351115    0.352840    0.353183    0.394835    0.400154    0.548605
     0.572605    1.010285    1.023658
**WARNING** Hessian does not have the Desired Local Structure

 Transition State Search - Taking P-RFO Step
 Searching for Lamda that Maximizes Along the Lowest mode
 Value Taken    Lamda =   0.00323399
 Searching for Lamda that Minimizes Along All other modes
 Value Taken    Lamda =  -0.00013006
 Calculated Step too Large.  Step scaled by  0.001973
 Step Taken.  Stepsize is  0.300000

                             Maximum     Tolerance    Cnvgd?
         Gradient           0.000549      0.000001      NO
         Displacement       0.099538      0.000001      NO
         Energy change     *********      0.000000      NO


 New Cartesian Coordinates Obtained by Inverse Iteration

 Displacement from previous Coordinates is:  0.723423
 Adding empirical dispersion correction 
 ----------------------------------------------------------------
 Doing -D3(op) with
 s6 =   1.00000
 s8 =   0.78311
 a1 =   0.30000
 a2 =   4.25000
 n  =  10.00000
 -D3 energy without 3body term =     -0.0304832810 hartrees
 ----------------------------------------------------------------
             Standard Nuclear Orientation (Angstroms)
    I     Atom           X                Y                Z
 ----------------------------------------------------------------
    1      C      -0.4546286157    -0.8384869444     0.3986672003
    2      C      -0.6105690180     0.6895973223     0.7407341220
    3      C       0.8954794706    -1.3414830749    -0.0770014140
    4      C       0.4018681160     1.7044708010     0.2182603450
    5      O       1.7095970541    -1.5596757169     0.9785321224
    6      O       1.1919102000    -1.6015481681    -1.2156159749
    7      O       1.5931468697     1.1777924911    -0.0954284716
    8      O       0.1522827572     2.8826745029     0.1278317697
    9      C       2.5767846204     2.0882222729    -0.6239357685
   10      C       3.0380499796    -2.0068379007     0.6624528806
   11      C      -1.5936797190    -1.0294915961    -0.6452475066
   12      C      -2.9151980053    -1.2509331961     0.1112100421
   13      C      -3.1081292129     0.1593413334     0.7481698808
   14      C      -1.9788035565     0.9646866543     0.0609954905
   15      O      -1.7886317424     0.2870787323    -1.1891174153
   16      H      -0.6697939444    -1.4041111722     1.3077458057
   17      H      -0.6511634870     0.8424521207     1.8223204204
   18      H       2.1999597937     2.5634102939    -1.5298664079
   19      H       3.5511181801    -1.2622899025     0.0514717995
   20      H      -1.3585531666    -1.7253468267    -1.4451259787
   21      H      -3.7148232220    -1.4818608289    -0.5941866063
   22      H      -2.8616052930    -2.0576143994     0.8452961621
   23      H      -4.0828313791     0.5825970093     0.5030814860
   24      H      -3.0079380503     0.1548392674     1.8357900212
   25      H      -2.1765666704     2.0188119997    -0.1074716418
   26      H       2.8207266275     2.8528452761     0.1146255889
   27      H       3.4464676652     1.4745993448    -0.8466877378
   28      H       3.0062462551    -2.9535822958     0.1209508072
   29      H       3.5408788732    -2.1285792094     1.6193649592
 ----------------------------------------------------------------
 Nuclear Repulsion Energy =  1114.0083073739 hartrees
 There are       57 alpha and       57 beta electrons
 Applying Cartesian multipole field
    Component          Value
    ---------          -----
     (2,0,0)        1.00000E-11
     (0,2,0)        2.00000E-11
     (0,0,2)       -3.00000E-11
 Nucleus-field energy     =     0.0000000286 hartrees
 Requested basis set is 6-311++G(d,p)
 There are 160 shells and 428 basis functions
 A cutoff of  1.0D-11 yielded  10584 shell pairs
 There are     77313 function pairs (     82570 Cartesian)
 Smallest overlap matrix eigenvalue = 1.12E-06

 Q-Chem warning in module /fs/scratch/osu6415/qchem-kaunlao-vdw/stvman/mkSTV.C, line 281:

 Overlap eigenvalue is smaller than square root of threshold

 Guess MOs from SCF MO coefficient file
 Reading MOs from coefficient file
 Reading MOs from coefficient file
 A restricted hybrid HF-DFT SCF calculation will be
 performed using Pulay DIIS extrapolation
 Exchange:     0.2000 Hartree-Fock + 0.0800 Slater + 0.7200 B88
 Correlation:  0.1900 VWN1RPA + 0.8100 LYP
 Using SG-1 standard quadrature grid
 Dispersion:   Grimme D3
 SCF converges when DIIS error is below 1.0E-08
 Geometry optimization detected.  Setting ReadMinima to 0
 Setting SaveMinima to 0
 using 20 threads for integral computing
 -------------------------------------------------------
 OpenMP Integral computing Module                
 Release: version 1.0, May 2013, Q-Chem Inc. Pittsburgh 
 -------------------------------------------------------
 -------------------------------------------------------
 OpenMP BLAS3 based DFT computing Module                
 Release: version 1.0, May 2013, Q-Chem Inc. Pittsburgh 
 -------------------------------------------------------
 ---------------------------------------
  Cycle       Energy         DIIS Error
 ---------------------------------------
    1    -765.8534101724      8.90E-04
    2    -765.8587607761      1.25E-04
    3    -765.8586181940      1.63E-04
    4    -765.8591079648      3.07E-05
    5    -765.8591201190      1.28E-05
    6    -765.8591227160      4.02E-06
    7    -765.8591229059      2.37E-06
    8    -765.8591229976      4.33E-07
    9    -765.8591230008      1.05E-07
   10    -765.8591230009      4.60E-08
   11    -765.8591230023      1.90E-08
   12    -765.8591230024      8.94E-09 Convergence criterion met
 ---------------------------------------
 SCF time:  CPU 615.36 s  wall 33.23 s
 SCF   energy in the final basis set = -765.85912300
 Total energy in the final basis set = -765.85912300
 
 --------------------------------------------------------------
 
                    Orbital Energies (a.u.)
 --------------------------------------------------------------
 
 Alpha MOs
 -- Occupied --
-19.180 -19.173 -19.130 -19.119 -19.115 -10.312 -10.307 -10.233
-10.233 -10.230 -10.230 -10.211 -10.205 -10.181 -10.179  -1.123
 -1.113  -1.063  -1.032  -1.027  -0.831  -0.784  -0.774  -0.741
 -0.730  -0.658  -0.606  -0.596  -0.573  -0.568  -0.549  -0.522
 -0.504  -0.492  -0.489  -0.487  -0.479  -0.474  -0.462  -0.432
 -0.424  -0.419  -0.414  -0.404  -0.382  -0.374  -0.370  -0.366
 -0.360  -0.354  -0.339  -0.333  -0.322  -0.311  -0.293  -0.282
 -0.275
 -- Virtual --
 -0.020  -0.009  -0.008  -0.002   0.004   0.011   0.014   0.022
  0.027   0.034   0.039   0.041   0.044   0.046   0.048   0.055
  0.069   0.076   0.080   0.085   0.092   0.093   0.098   0.101
  0.105   0.107   0.111   0.112   0.116   0.120   0.122   0.129
  0.130   0.134   0.138   0.141   0.142   0.147   0.149   0.151
  0.155   0.156   0.159   0.162   0.164   0.168   0.170   0.172
  0.180   0.183   0.189   0.190   0.193   0.196   0.201   0.206
  0.209   0.215   0.220   0.227   0.232   0.236   0.243   0.245
  0.253   0.256   0.270   0.276   0.279   0.283   0.288   0.294
  0.297   0.301   0.305   0.311   0.315   0.321   0.328   0.331
  0.334   0.336   0.338   0.343   0.349   0.354   0.357   0.364
  0.366   0.375   0.377   0.380   0.390   0.393   0.402   0.404
  0.407   0.421   0.425   0.431   0.438   0.455   0.460   0.470
  0.482   0.494   0.505   0.506   0.514   0.536   0.539   0.550
  0.556   0.577   0.588   0.593   0.595   0.606   0.615   0.629
  0.634   0.638   0.644   0.651   0.668   0.671   0.674   0.683
  0.686   0.695   0.703   0.709   0.716   0.724   0.734   0.736
  0.747   0.753   0.757   0.763   0.770   0.776   0.785   0.790
  0.802   0.823   0.836   0.858   0.876   0.893   0.937   0.953
  0.976   0.979   0.989   1.010   1.021   1.045   1.061   1.074
  1.097   1.103   1.121   1.159   1.168   1.188   1.191   1.200
  1.210   1.219   1.228   1.248   1.260   1.269   1.278   1.286
  1.314   1.321   1.349   1.359   1.364   1.378   1.390   1.400
  1.408   1.417   1.433   1.438   1.454   1.457   1.483   1.499
  1.511   1.534   1.554   1.556   1.561   1.568   1.572   1.576
  1.583   1.589   1.612   1.616   1.639   1.646   1.657   1.681
  1.696   1.700   1.708   1.715   1.721   1.727   1.740   1.749
  1.761   1.798   1.799   1.811   1.820   1.832   1.839   1.849
  1.866   1.883   1.893   1.905   1.920   1.930   1.937   1.965
  1.974   1.992   2.012   2.023   2.031   2.044   2.066   2.093
  2.106   2.115   2.117   2.137   2.162   2.176   2.187   2.209
  2.226   2.236   2.259   2.301   2.316   2.329   2.362   2.411
  2.446   2.459   2.463   2.479   2.493   2.502   2.505   2.511
  2.530   2.536   2.550   2.569   2.581   2.599   2.615   2.638
  2.648   2.667   2.693   2.719   2.743   2.754   2.778   2.784
  2.823   2.832   2.839   2.854   2.860   2.877   2.889   2.899
  2.921   2.930   2.955   2.961   2.994   2.998   3.025   3.031
  3.047   3.063   3.091   3.114   3.119   3.125   3.145   3.148
  3.189   3.198   3.224   3.229   3.247   3.269   3.309   3.319
  3.359   3.376   3.395   3.407   3.448   3.595   3.606   3.649
  3.677   3.723   3.775   3.779   3.840   3.866   3.885   3.929
  3.991   4.022   4.042   4.067   4.091   4.123   4.131   4.161
  4.178   4.229   4.251   4.408   4.486   5.024   5.062   5.085
  5.133   5.190   5.251   5.267   5.413   5.449   5.495   5.586
  5.638   5.645   5.870   5.888  23.826  23.836  23.840  23.866
 23.888  23.927  23.934  23.951  23.953  24.052  49.906  49.927
 49.971  50.023  50.036
 --------------------------------------------------------------
 
          Ground-State Mulliken Net Atomic Charges

     Atom                 Charge (a.u.)
  ----------------------------------------
      1 C                     0.114192
      2 C                     0.168924
      3 C                    -0.441355
      4 C                    -0.736589
      5 O                     0.005223
      6 O                    -0.196925
      7 O                    -0.076841
      8 O                    -0.227473
      9 C                    -0.228042
     10 C                    -0.145101
     11 C                     0.148430
     12 C                    -0.705925
     13 C                    -0.308316
     14 C                     0.051442
     15 O                    -0.116428
     16 H                     0.262537
     17 H                     0.220181
     18 H                     0.191531
     19 H                     0.170889
     20 H                     0.289903
     21 H                     0.188458
     22 H                     0.122000
     23 H                     0.185742
     24 H                     0.136201
     25 H                     0.282895
     26 H                     0.186603
     27 H                     0.131514
     28 H                     0.170890
     29 H                     0.155438
  ----------------------------------------
  Sum of atomic charges =    -0.000000

 -----------------------------------------------------------------
                    Cartesian Multipole Moments
 -----------------------------------------------------------------
    Charge (ESU x 10^10)
                -0.0000
    Dipole Moment (Debye)
         X       1.0260      Y      -1.5705      Z       2.8954
       Tot       3.4500
    Quadrupole Moments (Debye-Ang)
        XX     -74.0361     XY       3.7637     YY     -93.0009
        XZ      -2.0079     YZ      -3.0701     ZZ     -92.7581
    Octopole Moments (Debye-Ang^2)
       XXX      45.5474    XXY       1.6835    XYY      16.6648
       YYY     -36.4514    XXZ       2.6984    XYZ     -12.3044
       YYZ      -3.5588    XZZ       5.2742    YZZ       6.3172
       ZZZ       0.2825
    Hexadecapole Moments (Debye-Ang^3)
      XXXX   -2027.0668   XXXY      -9.6918   XXYY    -516.0289
      XYYY      13.8637   YYYY   -1431.9047   XXXZ      20.1914
      XXYZ      -9.9287   XYYZ      13.2413   YYYZ       6.3104
      XXZZ    -435.9233   XYZZ      21.2683   YYZZ    -284.6531
      XZZZ       7.1733   YZZZ      24.4964   ZZZZ    -378.8133
 -----------------------------------------------------------------
 Calculating analytic gradient of the SCF energy
 Gradient of SCF Energy
            1           2           3           4           5           6
    1  -0.0014356   0.0012995   0.0009234   0.0001482  -0.0001735  -0.0003174
    2  -0.0008995   0.0005964   0.0010601  -0.0000791  -0.0009754  -0.0004636
    3  -0.0000854  -0.0005925   0.0005509   0.0006655  -0.0000416  -0.0000020
            7           8           9          10          11          12
    1   0.0000459  -0.0000787  -0.0000661  -0.0002962   0.0014340  -0.0008208
    2   0.0004325   0.0000457   0.0001479   0.0000547   0.0006627   0.0001318
    3  -0.0004769  -0.0005116   0.0000098   0.0000366   0.0005302  -0.0010454
           13          14          15          16          17          18
    1   0.0011726  -0.0014817  -0.0001369  -0.0000645  -0.0000405   0.0000616
    2  -0.0002204  -0.0004761   0.0001890   0.0000058   0.0001483  -0.0000029
    3   0.0009147  -0.0002944   0.0006251   0.0000611  -0.0001767  -0.0000047
           19          20          21          22          23          24
    1   0.0000314  -0.0001954  -0.0001298  -0.0000559   0.0000039   0.0001237
    2  -0.0000687  -0.0000406  -0.0001475  -0.0000100   0.0000525  -0.0001815
    3   0.0000075  -0.0000375   0.0000793  -0.0002150  -0.0001310  -0.0000643
           25          26          27          28          29
    1   0.0000005  -0.0000155   0.0000508   0.0000125   0.0000003
    2   0.0000290  -0.0000541   0.0000907  -0.0000060  -0.0000215
    3   0.0001763   0.0000025   0.0000640  -0.0000402  -0.0000043
 Max gradient component =       1.482E-03
 RMS gradient           =       4.823E-04
 Gradient time:  CPU 242.33 s  wall 17.26 s
 Geometry Optimization Parameters
   NAtoms,    NIC,     NZ,  NCons,   NDum,   NFix, NCnnct, MaxDiis
       29     227       0       0       0       0       0       0

 Cartesian Hessian Update
 Hessian Updated using Powell/Murtagh-Sargent Update
  Mixing factors:     0.000033 Powell
                      0.999967 Murtagh-Sargent


** GEOMETRY OPTIMIZATION IN DELOCALIZED INTERNAL COORDINATES **
   Searching for a Transition State

   Optimization Cycle:   2

                       Coordinates (Angstroms)
     ATOM                X               Y               Z
      1  C        -0.4546286157   -0.8384869444    0.3986672003
      2  C        -0.6105690180    0.6895973223    0.7407341220
      3  C         0.8954794706   -1.3414830749   -0.0770014140
      4  C         0.4018681160    1.7044708010    0.2182603450
      5  O         1.7095970541   -1.5596757169    0.9785321224
      6  O         1.1919102000   -1.6015481681   -1.2156159749
      7  O         1.5931468697    1.1777924911   -0.0954284716
      8  O         0.1522827572    2.8826745029    0.1278317697
      9  C         2.5767846204    2.0882222729   -0.6239357685
     10  C         3.0380499796   -2.0068379007    0.6624528806
     11  C        -1.5936797190   -1.0294915961   -0.6452475066
     12  C        -2.9151980053   -1.2509331961    0.1112100421
     13  C        -3.1081292129    0.1593413334    0.7481698808
     14  C        -1.9788035565    0.9646866543    0.0609954905
     15  O        -1.7886317424    0.2870787323   -1.1891174153
     16  H        -0.6697939444   -1.4041111722    1.3077458057
     17  H        -0.6511634870    0.8424521207    1.8223204204
     18  H         2.1999597937    2.5634102939   -1.5298664079
     19  H         3.5511181801   -1.2622899025    0.0514717995
     20  H        -1.3585531666   -1.7253468267   -1.4451259787
     21  H        -3.7148232220   -1.4818608289   -0.5941866063
     22  H        -2.8616052930   -2.0576143994    0.8452961621
     23  H        -4.0828313791    0.5825970093    0.5030814860
     24  H        -3.0079380503    0.1548392674    1.8357900212
     25  H        -2.1765666704    2.0188119997   -0.1074716418
     26  H         2.8207266275    2.8528452761    0.1146255889
     27  H         3.4464676652    1.4745993448   -0.8466877378
     28  H         3.0062462551   -2.9535822958    0.1209508072
     29  H         3.5408788732   -2.1285792094    1.6193649592
   Point Group: c1    Number of degrees of freedom:    81


   Energy is   -765.859123002

 Hessian Updated using Powell/Murtagh-Sargent Update
  Mixing factors:     0.982563 Powell
                      0.017437 Murtagh-Sargent

 80 Hessian modes will be used to form the next step
  Hessian Eigenvalues:
     0.000273    0.005789    0.007235    0.009013    0.010263    0.010341
     0.010766    0.012207    0.021966    0.022171    0.023623    0.026366
     0.030385    0.036184    0.038366    0.040934    0.043867    0.048760
     0.051679    0.055094    0.056030    0.057363    0.059116    0.062773
     0.064188    0.065076    0.074198    0.075477    0.092805    0.094508
     0.098133    0.101400    0.101486    0.105921    0.106171    0.115353
     0.121829    0.158839    0.160000    0.160000    0.160000    0.160000
     0.160008    0.167473    0.235358    0.238319    0.248077    0.249469
     0.249942    0.250000    0.250000    0.250000    0.250566    0.258779
     0.271456    0.281659    0.298235    0.306331    0.335458    0.344585
     0.345557    0.345728    0.345815    0.346653    0.346773    0.346826
     0.346958    0.347318    0.347514    0.347909    0.350665    0.351116
     0.352840    0.353183    0.394836    0.400161    0.548605    0.572606
     1.010286    1.023658
**WARNING** Hessian does not have the Desired Local Structure

 Transition State Search - Taking P-RFO Step
 Searching for Lamda that Maximizes Along the Lowest mode
 Value Taken    Lamda =   0.00048033
 Searching for Lamda that Minimizes Along All other modes
 Value Taken    Lamda =  -0.00042128
 Calculated Step too Large.  Step scaled by  0.195893
 Step Taken.  Stepsize is  0.300000

                             Maximum     Tolerance    Cnvgd?
         Gradient           0.003010      0.000001      NO
         Displacement       0.104059      0.000001      NO
         Energy change      0.000241      0.000000      NO


 New Cartesian Coordinates Obtained by Inverse Iteration

 Displacement from previous Coordinates is:  0.729844
 Adding empirical dispersion correction 
 ----------------------------------------------------------------
 Doing -D3(op) with
 s6 =   1.00000
 s8 =   0.78311
 a1 =   0.30000
 a2 =   4.25000
 n  =  10.00000
 -D3 energy without 3body term =     -0.0308006769 hartrees
 ----------------------------------------------------------------
             Standard Nuclear Orientation (Angstroms)
    I     Atom           X                Y                Z
 ----------------------------------------------------------------
    1      C      -0.4755544033    -0.8473290863     0.3957283105
    2      C      -0.6102077086     0.6768722906     0.7544520232
    3      C       0.8741248934    -1.3632281690    -0.0663458812
    4      C       0.4101012319     1.6748452691     0.2178762662
    5      O       1.7097437445    -1.4955363331     0.9866792356
    6      O       1.1733249288    -1.6489624864    -1.1980596253
    7      O       1.5907156980     1.1250459333    -0.0967812910
    8      O       0.1810406707     2.8574912072     0.1317408821
    9      C       2.5900151319     2.0123289446    -0.6348167801
   10      C       3.0502329662    -1.9078540512     0.6727392068
   11      C      -1.6044155608    -1.0098760468    -0.6660519500
   12      C      -2.9357083716    -1.2427297656     0.0676760003
   13      C      -3.1035316856     0.1403733983     0.7685035876
   14      C      -1.9818892797     0.9674129782     0.0912047851
   15      O      -1.7938029753     0.3210566477    -1.1767439372
   16      H      -0.7140718228    -1.4151570289     1.2974641621
   17      H      -0.6285991511     0.8255188566     1.8374477391
   18      H       2.2166836977     2.4927817904    -1.5394170683
   19      H       3.5249450472    -1.1768352121     0.0160480001
   20      H      -1.3594244861    -1.6834019839    -1.4818880456
   21      H      -3.7302198828    -1.4147357540    -0.6598125872
   22      H      -2.9125959587    -2.0872980419     0.7598179524
   23      H      -4.0822627036     0.5801854313     0.5742050464
   24      H      -2.9706605254     0.0862766800     1.8513672840
   25      H      -2.1849375727     2.0245399389    -0.0499358297
   26      H       2.8562760314     2.7736963295     0.0994684485
   27      H       3.4439340942     1.3785625397    -0.8623311413
   28      H       3.0473928772    -2.8819984242     0.1812289669
   29      H       3.5709524549    -1.9604676620     1.6263522198
 ----------------------------------------------------------------
 Nuclear Repulsion Energy =  1117.0594568938 hartrees
 There are       57 alpha and       57 beta electrons
 Applying Cartesian multipole field
    Component          Value
    ---------          -----
     (2,0,0)        1.00000E-11
     (0,2,0)        2.00000E-11
     (0,0,2)       -3.00000E-11
 Nucleus-field energy     =     0.0000000280 hartrees
 Requested basis set is 6-311++G(d,p)
 There are 160 shells and 428 basis functions
 A cutoff of  1.0D-11 yielded  10609 shell pairs
 There are     77425 function pairs (     82685 Cartesian)
 Smallest overlap matrix eigenvalue = 1.15E-06

 Q-Chem warning in module /fs/scratch/osu6415/qchem-kaunlao-vdw/stvman/mkSTV.C, line 281:

 Overlap eigenvalue is smaller than square root of threshold

 Guess MOs from SCF MO coefficient file
 Reading MOs from coefficient file
 Reading MOs from coefficient file
 A restricted hybrid HF-DFT SCF calculation will be
 performed using Pulay DIIS extrapolation
 Exchange:     0.2000 Hartree-Fock + 0.0800 Slater + 0.7200 B88
 Correlation:  0.1900 VWN1RPA + 0.8100 LYP
 Using SG-1 standard quadrature grid
 Dispersion:   Grimme D3
 SCF converges when DIIS error is below 1.0E-08
 Geometry optimization detected.  Setting ReadMinima to 0
 Setting SaveMinima to 0
 using 20 threads for integral computing
 -------------------------------------------------------
 OpenMP Integral computing Module                
 Release: version 1.0, May 2013, Q-Chem Inc. Pittsburgh 
 -------------------------------------------------------
 -------------------------------------------------------
 OpenMP BLAS3 based DFT computing Module                
 Release: version 1.0, May 2013, Q-Chem Inc. Pittsburgh 
 -------------------------------------------------------
 ---------------------------------------
  Cycle       Energy         DIIS Error
 ---------------------------------------
    1    -765.8407526941      8.52E-04
    2    -765.8583929893      1.10E-04
    3    -765.8582940455      1.42E-04
    4    -765.8586580410      4.80E-05
    5    -765.8586922931      1.32E-05
    6    -765.8586951386      3.81E-06
    7    -765.8586953720      1.84E-06
    8    -765.8586954268      6.08E-07
    9    -765.8586954323      1.63E-07
   10    -765.8586954331      7.66E-08
   11    -765.8586954322      1.70E-08
   12    -765.8586954323      5.88E-09 Convergence criterion met
 ---------------------------------------
 SCF time:  CPU 610.97 s  wall 31.55 s
 SCF   energy in the final basis set = -765.85869543
 Total energy in the final basis set = -765.85869543
 
 --------------------------------------------------------------
 
                    Orbital Energies (a.u.)
 --------------------------------------------------------------
 
 Alpha MOs
 -- Occupied --
-19.180 -19.172 -19.131 -19.118 -19.115 -10.311 -10.307 -10.233
-10.233 -10.230 -10.230 -10.211 -10.205 -10.182 -10.179  -1.123
 -1.113  -1.063  -1.032  -1.027  -0.831  -0.785  -0.773  -0.741
 -0.730  -0.658  -0.606  -0.596  -0.573  -0.568  -0.549  -0.523
 -0.505  -0.492  -0.489  -0.487  -0.478  -0.474  -0.462  -0.433
 -0.424  -0.419  -0.414  -0.404  -0.383  -0.374  -0.369  -0.367
 -0.361  -0.354  -0.339  -0.333  -0.322  -0.310  -0.293  -0.282
 -0.276
 -- Virtual --
 -0.020  -0.009  -0.007  -0.002   0.004   0.011   0.014   0.021
  0.027   0.035   0.039   0.042   0.044   0.046   0.048   0.055
  0.069   0.076   0.080   0.086   0.091   0.094   0.099   0.101
  0.104   0.106   0.112   0.112   0.116   0.120   0.123   0.129
  0.130   0.134   0.138   0.142   0.142   0.147   0.149   0.151
  0.155   0.156   0.159   0.163   0.165   0.168   0.170   0.171
  0.180   0.183   0.188   0.191   0.192   0.196   0.203   0.206
  0.209   0.215   0.221   0.227   0.233   0.239   0.243   0.245
  0.250   0.255   0.272   0.276   0.277   0.284   0.288   0.292
  0.298   0.303   0.305   0.309   0.314   0.321   0.328   0.332
  0.335   0.336   0.338   0.344   0.350   0.355   0.356   0.363
  0.368   0.374   0.375   0.379   0.392   0.395   0.401   0.405
  0.408   0.423   0.426   0.433   0.439   0.456   0.463   0.471
  0.481   0.496   0.505   0.507   0.515   0.536   0.539   0.549
  0.556   0.577   0.586   0.592   0.595   0.605   0.614   0.630
  0.634   0.639   0.646   0.651   0.667   0.672   0.677   0.683
  0.688   0.695   0.701   0.711   0.717   0.725   0.733   0.736
  0.746   0.753   0.755   0.763   0.769   0.774   0.786   0.790
  0.806   0.824   0.834   0.861   0.874   0.899   0.938   0.952
  0.976   0.980   0.992   1.011   1.024   1.044   1.061   1.073
  1.101   1.113   1.129   1.160   1.165   1.185   1.190   1.195
  1.211   1.221   1.232   1.251   1.261   1.268   1.281   1.282
  1.311   1.324   1.353   1.359   1.366   1.375   1.387   1.404
  1.411   1.418   1.435   1.443   1.458   1.463   1.481   1.496
  1.515   1.537   1.554   1.558   1.561   1.570   1.572   1.579
  1.584   1.590   1.611   1.619   1.636   1.648   1.658   1.680
  1.693   1.701   1.708   1.716   1.722   1.728   1.739   1.750
  1.759   1.796   1.801   1.811   1.819   1.833   1.838   1.848
  1.868   1.886   1.890   1.904   1.918   1.936   1.939   1.968
  1.976   1.991   2.008   2.023   2.032   2.049   2.066   2.093
  2.107   2.109   2.116   2.140   2.163   2.179   2.190   2.213
  2.231   2.238   2.259   2.301   2.319   2.328   2.362   2.411
  2.452   2.457   2.463   2.482   2.492   2.499   2.504   2.515
  2.534   2.537   2.554   2.571   2.586   2.603   2.615   2.639
  2.647   2.673   2.691   2.718   2.743   2.751   2.778   2.785
  2.824   2.830   2.842   2.854   2.863   2.876   2.889   2.899
  2.924   2.930   2.955   2.962   2.993   2.998   3.026   3.030
  3.049   3.060   3.091   3.114   3.119   3.125   3.142   3.150
  3.188   3.202   3.228   3.230   3.250   3.273   3.306   3.323
  3.364   3.375   3.397   3.407   3.452   3.594   3.605   3.651
  3.679   3.724   3.775   3.779   3.842   3.868   3.887   3.924
  3.991   4.024   4.038   4.066   4.093   4.123   4.132   4.163
  4.179   4.229   4.251   4.407   4.485   5.021   5.069   5.089
  5.136   5.190   5.254   5.265   5.416   5.456   5.496   5.585
  5.639   5.644   5.872   5.889  23.827  23.838  23.840  23.867
 23.889  23.929  23.934  23.951  23.954  24.050  49.904  49.933
 49.974  50.021  50.039
 --------------------------------------------------------------
 
          Ground-State Mulliken Net Atomic Charges

     Atom                 Charge (a.u.)
  ----------------------------------------
      1 C                     0.004146
      2 C                     0.215425
      3 C                    -0.405295
      4 C                    -0.717541
      5 O                     0.014643
      6 O                    -0.197818
      7 O                    -0.087394
      8 O                    -0.228172
      9 C                    -0.228966
     10 C                    -0.148436
     11 C                     0.216157
     12 C                    -0.741354
     13 C                    -0.293816
     14 C                     0.014234
     15 O                    -0.118414
     16 H                     0.259241
     17 H                     0.222876
     18 H                     0.191682
     19 H                     0.173618
     20 H                     0.292934
     21 H                     0.187201
     22 H                     0.124898
     23 H                     0.186005
     24 H                     0.138108
     25 H                     0.284920
     26 H                     0.187412
     27 H                     0.125969
     28 H                     0.170794
     29 H                     0.156942
  ----------------------------------------
  Sum of atomic charges =     0.000000

 -----------------------------------------------------------------
                    Cartesian Multipole Moments
 -----------------------------------------------------------------
    Charge (ESU x 10^10)
                 0.0000
    Dipole Moment (Debye)
         X       1.0074      Y      -1.5482      Z       2.8634
       Tot       3.4075
    Quadrupole Moments (Debye-Ang)
        XX     -73.8805     XY       3.8224     YY     -93.6988
        XZ      -2.0840     YZ      -3.0779     ZZ     -92.5301
    Octopole Moments (Debye-Ang^2)
       XXX      46.3562    XXY       2.3249    XYY      14.4743
       YYY     -34.2245    XXZ       2.5820    XYZ     -12.4017
       YYZ      -2.8212    XZZ       5.6227    YZZ       6.5023
       ZZZ      -1.0309
    Hexadecapole Moments (Debye-Ang^3)
      XXXX   -2036.7145   XXXY     -13.3375   XXYY    -515.7039
      XYYY       8.7224   YYYY   -1389.6743   XXXZ      18.4111
      XXYZ      -9.8747   XYYZ      11.8143   YYYZ       1.4558
      XXZZ    -437.0312   XYZZ      20.6687   YYZZ    -279.3111
      XZZZ       6.1146   YZZZ      21.3786   ZZZZ    -380.2733
 -----------------------------------------------------------------
 Calculating analytic gradient of the SCF energy
 Gradient of SCF Energy
            1           2           3           4           5           6
    1  -0.0008220   0.0011098  -0.0021883  -0.0002212   0.0009712   0.0008643
    2   0.0014397   0.0007069  -0.0051778  -0.0009277   0.0024092   0.0019250
    3   0.0004856   0.0000623   0.0001585  -0.0012194  -0.0001337  -0.0002225
            7           8           9          10          11          12
    1  -0.0000742  -0.0002060   0.0003273   0.0002287   0.0015987  -0.0008888
    2  -0.0013629   0.0003151   0.0000799   0.0000878   0.0007412  -0.0000797
    3   0.0009306   0.0002770   0.0000640  -0.0000669   0.0002200  -0.0010230
           13          14          15          16          17          18
    1   0.0012567  -0.0015601  -0.0003918   0.0000779   0.0002712  -0.0000452
    2  -0.0001384  -0.0005729  -0.0002118   0.0006384   0.0003975  -0.0000763
    3   0.0008306  -0.0006365   0.0005213   0.0000779  -0.0000269   0.0000303
           19          20          21          22          23          24
    1   0.0000551  -0.0000604   0.0000151  -0.0003156  -0.0000638   0.0003062
    2   0.0001012   0.0001017   0.0001292  -0.0002685   0.0001253  -0.0001408
    3  -0.0000755  -0.0001418  -0.0000175  -0.0003588   0.0001532  -0.0002156
           25          26          27          28          29
    1  -0.0001882  -0.0000491   0.0000326  -0.0000733   0.0000332
    2  -0.0000108  -0.0000120  -0.0001431  -0.0000463  -0.0000290
    3   0.0003042  -0.0000230   0.0001030  -0.0000222  -0.0000351
 Max gradient component =       5.178E-03
 RMS gradient           =       8.675E-04
 Gradient time:  CPU 242.39 s  wall 17.48 s
 Geometry Optimization Parameters
   NAtoms,    NIC,     NZ,  NCons,   NDum,   NFix, NCnnct, MaxDiis
       29     227       0       0       0       0       0       0

 Cartesian Hessian Update
 Hessian Updated using Powell/Murtagh-Sargent Update
  Mixing factors:     0.044129 Powell
                      0.955871 Murtagh-Sargent


** GEOMETRY OPTIMIZATION IN DELOCALIZED INTERNAL COORDINATES **
   Searching for a Transition State

   Optimization Cycle:   3

                       Coordinates (Angstroms)
     ATOM                X               Y               Z
      1  C        -0.4755544033   -0.8473290863    0.3957283105
      2  C        -0.6102077086    0.6768722906    0.7544520232
      3  C         0.8741248934   -1.3632281690   -0.0663458812
      4  C         0.4101012319    1.6748452691    0.2178762662
      5  O         1.7097437445   -1.4955363331    0.9866792356
      6  O         1.1733249288   -1.6489624864   -1.1980596253
      7  O         1.5907156980    1.1250459333   -0.0967812910
      8  O         0.1810406707    2.8574912072    0.1317408821
      9  C         2.5900151319    2.0123289446   -0.6348167801
     10  C         3.0502329662   -1.9078540512    0.6727392068
     11  C        -1.6044155608   -1.0098760468   -0.6660519500
     12  C        -2.9357083716   -1.2427297656    0.0676760003
     13  C        -3.1035316856    0.1403733983    0.7685035876
     14  C        -1.9818892797    0.9674129782    0.0912047851
     15  O        -1.7938029753    0.3210566477   -1.1767439372
     16  H        -0.7140718228   -1.4151570289    1.2974641621
     17  H        -0.6285991511    0.8255188566    1.8374477391
     18  H         2.2166836977    2.4927817904   -1.5394170683
     19  H         3.5249450472   -1.1768352121    0.0160480001
     20  H        -1.3594244861   -1.6834019839   -1.4818880456
     21  H        -3.7302198828   -1.4147357540   -0.6598125872
     22  H        -2.9125959587   -2.0872980419    0.7598179524
     23  H        -4.0822627036    0.5801854313    0.5742050464
     24  H        -2.9706605254    0.0862766800    1.8513672840
     25  H        -2.1849375727    2.0245399389   -0.0499358297
     26  H         2.8562760314    2.7736963295    0.0994684485
     27  H         3.4439340942    1.3785625397   -0.8623311413
     28  H         3.0473928772   -2.8819984242    0.1812289669
     29  H         3.5709524549   -1.9604676620    1.6263522198
   Point Group: c1    Number of degrees of freedom:    81


   Energy is   -765.858695432

 Hessian Updated using Powell/Murtagh-Sargent Update
  Mixing factors:     0.930000 Powell
                      0.070000 Murtagh-Sargent

 77 Hessian modes will be used to form the next step
  Hessian Eigenvalues:
    -0.009206    0.005796    0.007258    0.009229    0.010299    0.010370
     0.010766    0.020800    0.022112    0.023619    0.023933    0.027369
     0.031232    0.036405    0.039155    0.040973    0.044306    0.049870
     0.051731    0.055331    0.056062    0.057422    0.059417    0.062988
     0.064271    0.065077    0.074200    0.075552    0.092855    0.094728
     0.099314    0.101400    0.101486    0.105921    0.106172    0.116175
     0.123595    0.159788    0.160000    0.160001    0.160216    0.167575
     0.235801    0.238486    0.248117    0.249471    0.249943    0.250000
     0.250001    0.254995    0.258822    0.271549    0.281659    0.298867
     0.306334    0.335537    0.344589    0.345559    0.345742    0.345816
     0.346656    0.346825    0.346857    0.346959    0.347318    0.347514
     0.347909    0.350665    0.351117    0.352840    0.353183    0.394837
     0.400184    0.548617    0.572644    1.010291    1.023659

 Transition State Search - Taking P-RFO Step
 Searching for Lamda that Maximizes Along the Lowest mode
 Value Taken    Lamda =   0.00005289
 Searching for Lamda that Minimizes Along All other modes
 Value Taken    Lamda =  -0.00092758
 Step Taken.  Stepsize is  0.190258

                             Maximum     Tolerance    Cnvgd?
         Gradient           0.006810      0.000001      NO
         Displacement       0.053264      0.000001      NO
         Energy change      0.000428      0.000000      NO


 New Cartesian Coordinates Obtained by Inverse Iteration

 Displacement from previous Coordinates is:  0.578837
 Adding empirical dispersion correction 
 ----------------------------------------------------------------
 Doing -D3(op) with
 s6 =   1.00000
 s8 =   0.78311
 a1 =   0.30000
 a2 =   4.25000
 n  =  10.00000
 -D3 energy without 3body term =     -0.0304862237 hartrees
 ----------------------------------------------------------------
             Standard Nuclear Orientation (Angstroms)
    I     Atom           X                Y                Z
 ----------------------------------------------------------------
    1      C      -0.4550233301    -0.8417459878     0.3964784456
    2      C      -0.6073954215     0.6827365123     0.7544338802
    3      C       0.8962646231    -1.3489617452    -0.0699485401
    4      C       0.4041071196     1.7004663582     0.2347323509
    5      O       1.7157305532    -1.5291860758     0.9884607459
    6      O       1.1823515268    -1.6624699931    -1.1977016933
    7      O       1.5847423026     1.1712428990    -0.1125113331
    8      O       0.1618160052     2.8818081518     0.1710809211
    9      C       2.5625123768     2.0827534753    -0.6495302039
   10      C       3.0414541310    -1.9911602564     0.6816469007
   11      C      -1.5891528363    -1.0202990550    -0.6564372126
   12      C      -2.9167346848    -1.2448461437     0.0877340204
   13      C      -3.1026747505     0.1541712777     0.7504283093
   14      C      -1.9714284103     0.9674319143     0.0732086220
   15      O      -1.7768969558     0.3037525989    -1.1852701502
   16      H      -0.6849207955    -1.4136924995     1.2980967488
   17      H      -0.6411814510     0.8265299522     1.8377118976
   18      H       2.1637350619     2.5831880197    -1.5322094931
   19      H       3.5515280288    -1.2716637723     0.0390495343
   20      H      -1.3461687328    -1.7063593434    -1.4623367406
   21      H      -3.7095532174    -1.4441327230    -0.6346456443
   22      H      -2.8851515299    -2.0700133822     0.8026007499
   23      H      -4.0798542615     0.5849481749     0.5301428282
   24      H      -2.9868156462     0.1269420117     1.8363801424
   25      H      -2.1699160500     2.0229662778    -0.0853930647
   26      H       2.8382101868     2.8272880424     0.0984551544
   27      H       3.4172897667     1.4646338699    -0.9136290704
   28      H       3.0046275006    -2.9580597284     0.1774130381
   29      H       3.5501002706    -2.0766906402     1.6393748366
 ----------------------------------------------------------------
 Nuclear Repulsion Energy =  1114.2760383463 hartrees
 There are       57 alpha and       57 beta electrons
 Applying Cartesian multipole field
    Component          Value
    ---------          -----
     (2,0,0)        1.00000E-11
     (0,2,0)        2.00000E-11
     (0,0,2)       -3.00000E-11
 Nucleus-field energy     =     0.0000000285 hartrees
 Requested basis set is 6-311++G(d,p)
 There are 160 shells and 428 basis functions
 A cutoff of  1.0D-11 yielded  10592 shell pairs
 There are     77358 function pairs (     82621 Cartesian)
 Smallest overlap matrix eigenvalue = 1.14E-06

 Q-Chem warning in module /fs/scratch/osu6415/qchem-kaunlao-vdw/stvman/mkSTV.C, line 281:

 Overlap eigenvalue is smaller than square root of threshold

 Guess MOs from SCF MO coefficient file
 Reading MOs from coefficient file
 Reading MOs from coefficient file
 A restricted hybrid HF-DFT SCF calculation will be
 performed using Pulay DIIS extrapolation
 Exchange:     0.2000 Hartree-Fock + 0.0800 Slater + 0.7200 B88
 Correlation:  0.1900 VWN1RPA + 0.8100 LYP
 Using SG-1 standard quadrature grid
 Dispersion:   Grimme D3
 SCF converges when DIIS error is below 1.0E-08
 Geometry optimization detected.  Setting ReadMinima to 0
 Setting SaveMinima to 0
 using 20 threads for integral computing
 -------------------------------------------------------
 OpenMP Integral computing Module                
 Release: version 1.0, May 2013, Q-Chem Inc. Pittsburgh 
 -------------------------------------------------------
 -------------------------------------------------------
 OpenMP BLAS3 based DFT computing Module                
 Release: version 1.0, May 2013, Q-Chem Inc. Pittsburgh 
 -------------------------------------------------------
 ---------------------------------------
  Cycle       Energy         DIIS Error
 ---------------------------------------
    1    -765.8534502665      6.75E-04
    2    -765.8588536686      8.46E-05
    3    -765.8587415280      1.26E-04
    4    -765.8590086944      2.95E-05
    5    -765.8590202680      1.21E-05
    6    -765.8590227910      3.19E-06
    7    -765.8590229235      1.61E-06
    8    -765.8590229684      2.49E-07
    9    -765.8590229693      9.17E-08
   10    -765.8590229706      3.85E-08
   11    -765.8590229704      1.76E-08
   12    -765.8590229740      6.79E-09 Convergence criterion met
 ---------------------------------------
 SCF time:  CPU 610.02 s  wall 33.41 s
 SCF   energy in the final basis set = -765.85902297
 Total energy in the final basis set = -765.85902297
 
 --------------------------------------------------------------
 
                    Orbital Energies (a.u.)
 --------------------------------------------------------------
 
 Alpha MOs
 -- Occupied --
-19.180 -19.172 -19.131 -19.119 -19.115 -10.311 -10.307 -10.233
-10.233 -10.230 -10.230 -10.211 -10.205 -10.181 -10.180  -1.123
 -1.113  -1.063  -1.032  -1.027  -0.831  -0.785  -0.774  -0.741
 -0.730  -0.658  -0.606  -0.596  -0.573  -0.568  -0.549  -0.523
 -0.504  -0.492  -0.489  -0.487  -0.478  -0.475  -0.462  -0.432
 -0.424  -0.419  -0.413  -0.404  -0.382  -0.375  -0.370  -0.367
 -0.360  -0.354  -0.338  -0.333  -0.322  -0.311  -0.293  -0.282
 -0.276
 -- Virtual --
 -0.020  -0.009  -0.007  -0.001   0.004   0.011   0.014   0.022
  0.027   0.034   0.039   0.041   0.044   0.046   0.048   0.055
  0.069   0.076   0.080   0.085   0.091   0.094   0.098   0.101
  0.105   0.106   0.111   0.113   0.116   0.120   0.122   0.129
  0.130   0.134   0.138   0.141   0.142   0.147   0.148   0.151
  0.155   0.157   0.158   0.162   0.164   0.168   0.170   0.171
  0.180   0.183   0.189   0.190   0.193   0.196   0.201   0.206
  0.209   0.214   0.220   0.227   0.232   0.237   0.244   0.245
  0.252   0.256   0.271   0.276   0.278   0.283   0.288   0.293
  0.298   0.301   0.305   0.311   0.315   0.320   0.327   0.332
  0.334   0.336   0.337   0.344   0.349   0.354   0.356   0.363
  0.367   0.374   0.376   0.380   0.391   0.394   0.401   0.404
  0.407   0.422   0.427   0.432   0.438   0.456   0.461   0.471
  0.481   0.495   0.506   0.507   0.514   0.535   0.540   0.550
  0.556   0.576   0.587   0.593   0.595   0.605   0.615   0.630
  0.634   0.638   0.644   0.651   0.666   0.672   0.673   0.683
  0.687   0.694   0.703   0.709   0.715   0.724   0.734   0.736
  0.746   0.752   0.757   0.763   0.771   0.775   0.785   0.791
  0.803   0.826   0.833   0.860   0.875   0.894   0.938   0.952
  0.975   0.981   0.990   1.010   1.022   1.042   1.060   1.074
  1.099   1.105   1.126   1.157   1.163   1.188   1.189   1.198
  1.209   1.220   1.228   1.250   1.260   1.267   1.278   1.284
  1.316   1.323   1.351   1.357   1.365   1.378   1.392   1.402
  1.408   1.416   1.433   1.439   1.454   1.460   1.482   1.496
  1.513   1.536   1.555   1.557   1.562   1.567   1.572   1.575
  1.583   1.590   1.613   1.616   1.638   1.647   1.656   1.681
  1.694   1.699   1.707   1.714   1.720   1.728   1.739   1.749
  1.761   1.798   1.800   1.809   1.817   1.832   1.837   1.850
  1.867   1.883   1.891   1.906   1.919   1.931   1.937   1.967
  1.975   1.991   2.011   2.024   2.028   2.042   2.066   2.094
  2.106   2.111   2.117   2.137   2.163   2.179   2.189   2.212
  2.227   2.237   2.259   2.300   2.317   2.331   2.361   2.411
  2.445   2.458   2.463   2.481   2.493   2.500   2.504   2.512
  2.531   2.536   2.551   2.569   2.583   2.601   2.615   2.637
  2.647   2.667   2.692   2.718   2.744   2.753   2.776   2.785
  2.823   2.831   2.840   2.852   2.861   2.876   2.888   2.898
  2.921   2.928   2.954   2.960   2.994   2.998   3.024   3.031
  3.046   3.061   3.092   3.114   3.119   3.125   3.145   3.149
  3.187   3.199   3.226   3.230   3.250   3.269   3.307   3.321
  3.362   3.376   3.395   3.408   3.449   3.594   3.606   3.649
  3.678   3.722   3.775   3.779   3.840   3.866   3.885   3.926
  3.988   4.023   4.042   4.066   4.092   4.122   4.131   4.162
  4.179   4.229   4.251   4.408   4.485   5.025   5.061   5.085
  5.133   5.191   5.251   5.265   5.414   5.449   5.494   5.584
  5.639   5.643   5.870   5.887  23.826  23.836  23.840  23.866
 23.888  23.927  23.934  23.952  23.953  24.051  49.905  49.928
 49.971  50.021  50.038
 --------------------------------------------------------------
 
          Ground-State Mulliken Net Atomic Charges

     Atom                 Charge (a.u.)
  ----------------------------------------
      1 C                     0.038584
      2 C                     0.232132
      3 C                    -0.449774
      4 C                    -0.727760
      5 O                     0.003765
      6 O                    -0.196194
      7 O                    -0.071788
      8 O                    -0.228886
      9 C                    -0.227844
     10 C                    -0.147346
     11 C                     0.197092
     12 C                    -0.723494
     13 C                    -0.300059
     14 C                     0.020731
     15 O                    -0.118522
     16 H                     0.257913
     17 H                     0.223848
     18 H                     0.190448
     19 H                     0.171557
     20 H                     0.291603
     21 H                     0.187843
     22 H                     0.124610
     23 H                     0.186134
     24 H                     0.135894
     25 H                     0.283652
     26 H                     0.187021
     27 H                     0.132984
     28 H                     0.170609
     29 H                     0.155247
  ----------------------------------------
  Sum of atomic charges =     0.000000

 -----------------------------------------------------------------
                    Cartesian Multipole Moments
 -----------------------------------------------------------------
    Charge (ESU x 10^10)
                -0.0000
    Dipole Moment (Debye)
         X       1.0109      Y      -1.5311      Z       2.8216
       Tot       3.3657
    Quadrupole Moments (Debye-Ang)
        XX     -74.0280     XY       3.8120     YY     -93.3683
        XZ      -2.0321     YZ      -3.5018     ZZ     -92.5870
    Octopole Moments (Debye-Ang^2)
       XXX      45.0173    XXY       1.8059    XYY      15.8826
       YYY     -35.4723    XXZ       2.3396    XYZ     -12.6107
       YYZ      -3.8849    XZZ       5.4477    YZZ       6.3112
       ZZZ      -1.0079
    Hexadecapole Moments (Debye-Ang^3)
      XXXX   -2020.6492   XXXY      -9.4129   XXYY    -516.0736
      XYYY      14.9404   YYYY   -1431.9954   XXXZ      18.2672
      XXYZ     -10.8472   XYYZ      12.7897   YYYZ      -0.8178
      XXZZ    -434.0839   XYZZ      21.9803   YYZZ    -285.8552
      XZZZ       5.8388   YZZZ      22.8344   ZZZZ    -381.9242
 -----------------------------------------------------------------
 Calculating analytic gradient of the SCF energy
 Gradient of SCF Energy
            1           2           3           4           5           6
    1  -0.0004028   0.0003110   0.0017039  -0.0002054  -0.0005422  -0.0007675
    2  -0.0016121   0.0003938   0.0038076   0.0002417  -0.0013355  -0.0018118
    3   0.0000884   0.0000301  -0.0007482   0.0002594   0.0000740   0.0004620
            7           8           9          10          11          12
    1   0.0000257   0.0000015  -0.0000931  -0.0001747   0.0001397  -0.0000843
    2   0.0006315  -0.0001071   0.0000631  -0.0000537  -0.0000737  -0.0002973
    3   0.0001632  -0.0005387   0.0001464  -0.0000067  -0.0001111   0.0001093
           13          14          15          16          17          18
    1   0.0000491   0.0000871   0.0000456  -0.0007217   0.0005574   0.0000342
    2   0.0000384  -0.0001752  -0.0001050   0.0002695   0.0000632  -0.0000460
    3  -0.0000263  -0.0001707   0.0001921  -0.0000263   0.0001534  -0.0000293
           19          20          21          22          23          24
    1  -0.0000920   0.0001715   0.0001414  -0.0003861  -0.0001566   0.0004646
    2  -0.0000560   0.0000677   0.0004090  -0.0002657   0.0000939  -0.0002386
    3   0.0000054  -0.0000492  -0.0001261  -0.0001484   0.0004115  -0.0001359
           25          26          27          28          29
    1  -0.0001454  -0.0000275   0.0000182   0.0000597  -0.0000115
    2   0.0000265   0.0000260   0.0000897   0.0000007  -0.0000447
    3   0.0000479  -0.0000210   0.0000298  -0.0000202  -0.0000146
 Max gradient component =       3.808E-03
 RMS gradient           =       5.906E-04
 Gradient time:  CPU 246.99 s  wall 17.43 s
 Geometry Optimization Parameters
   NAtoms,    NIC,     NZ,  NCons,   NDum,   NFix, NCnnct, MaxDiis
       29     227       0       0       0       0       0       0

 Cartesian Hessian Update
 Hessian Updated using Powell/Murtagh-Sargent Update
  Mixing factors:     0.833214 Powell
                      0.166786 Murtagh-Sargent


** GEOMETRY OPTIMIZATION IN DELOCALIZED INTERNAL COORDINATES **
   Searching for a Transition State

   Optimization Cycle:   4

                       Coordinates (Angstroms)
     ATOM                X               Y               Z
      1  C        -0.4550233301   -0.8417459878    0.3964784456
      2  C        -0.6073954215    0.6827365123    0.7544338802
      3  C         0.8962646231   -1.3489617452   -0.0699485401
      4  C         0.4041071196    1.7004663582    0.2347323509
      5  O         1.7157305532   -1.5291860758    0.9884607459
      6  O         1.1823515268   -1.6624699931   -1.1977016933
      7  O         1.5847423026    1.1712428990   -0.1125113331
      8  O         0.1618160052    2.8818081518    0.1710809211
      9  C         2.5625123768    2.0827534753   -0.6495302039
     10  C         3.0414541310   -1.9911602564    0.6816469007
     11  C        -1.5891528363   -1.0202990550   -0.6564372126
     12  C        -2.9167346848   -1.2448461437    0.0877340204
     13  C        -3.1026747505    0.1541712777    0.7504283093
     14  C        -1.9714284103    0.9674319143    0.0732086220
     15  O        -1.7768969558    0.3037525989   -1.1852701502
     16  H        -0.6849207955   -1.4136924995    1.2980967488
     17  H        -0.6411814510    0.8265299522    1.8377118976
     18  H         2.1637350619    2.5831880197   -1.5322094931
     19  H         3.5515280288   -1.2716637723    0.0390495343
     20  H        -1.3461687328   -1.7063593434   -1.4623367406
     21  H        -3.7095532174   -1.4441327230   -0.6346456443
     22  H        -2.8851515299   -2.0700133822    0.8026007499
     23  H        -4.0798542615    0.5849481749    0.5301428282
     24  H        -2.9868156462    0.1269420117    1.8363801424
     25  H        -2.1699160500    2.0229662778   -0.0853930647
     26  H         2.8382101868    2.8272880424    0.0984551544
     27  H         3.4172897667    1.4646338699   -0.9136290704
     28  H         3.0046275006   -2.9580597284    0.1774130381
     29  H         3.5501002706   -2.0766906402    1.6393748366
   Point Group: c1    Number of degrees of freedom:    81


   Energy is   -765.859022974

 Hessian Updated using Powell/Murtagh-Sargent Update
  Mixing factors:     0.956765 Powell
                      0.043235 Murtagh-Sargent

 79 Hessian modes will be used to form the next step
  Hessian Eigenvalues:
    -0.020807    0.003482    0.007288    0.009553    0.010148    0.010763
     0.011181    0.021507    0.022125    0.023609    0.025516    0.029742
     0.033652    0.036330    0.040115    0.041381    0.044460    0.051482
     0.051876    0.055968    0.056155    0.057879    0.059825    0.063011
     0.064314    0.065078    0.074187    0.075598    0.092918    0.094824
     0.100635    0.101400    0.101489    0.105921    0.106172    0.116196
     0.126845    0.159955    0.160000    0.160000    0.160010    0.161779
     0.167542    0.236181    0.238553    0.248129    0.249471    0.249945
     0.250000    0.250001    0.250014    0.258205    0.259022    0.271706
     0.281660    0.299208    0.306333    0.335557    0.344593    0.345559
     0.345741    0.345819    0.346657    0.346826    0.346941    0.346969
     0.347318    0.347516    0.347909    0.350665    0.351119    0.352840
     0.353184    0.394837    0.400200    0.548629    0.572720    1.010294
     1.023664

 Transition State Search - Taking P-RFO Step
 Searching for Lamda that Maximizes Along the Lowest mode
 Value Taken    Lamda =   0.00023587
 Searching for Lamda that Minimizes Along All other modes
 Value Taken    Lamda =  -0.00024722
 Step Taken.  Stepsize is  0.180351

                             Maximum     Tolerance    Cnvgd?
         Gradient           0.003553      0.000001      NO
         Displacement       0.055318      0.000001      NO
         Energy change     -0.000328      0.000000      NO


 New Cartesian Coordinates Obtained by Inverse Iteration

 Displacement from previous Coordinates is:  0.586078
 Adding empirical dispersion correction 
 ----------------------------------------------------------------
 Doing -D3(op) with
 s6 =   1.00000
 s8 =   0.78311
 a1 =   0.30000
 a2 =   4.25000
 n  =  10.00000
 -D3 energy without 3body term =     -0.0305262623 hartrees
 ----------------------------------------------------------------
             Standard Nuclear Orientation (Angstroms)
    I     Atom           X                Y                Z
 ----------------------------------------------------------------
    1      C      -0.4560790618    -0.8450644891     0.3965471205
    2      C      -0.5979843740     0.6737984203     0.7796128113
    3      C       0.8978925900    -1.3627135983    -0.0492603966
    4      C       0.4135337929     1.6937698297     0.2627370336
    5      O       1.7084305438    -1.5265110927     1.0186171663
    6      O       1.2001444977    -1.6757400488    -1.1729869492
    7      O       1.5670628567     1.1586009401    -0.1587663535
    8      O       0.1829943716     2.8788106989     0.2354885165
    9      C       2.5318136669     2.0718328906    -0.7159632988
   10      C       3.0401501922    -1.9828485722     0.7296776968
   11      C      -1.5762654415    -0.9928928902    -0.6761682755
   12      C      -2.9118921363    -1.2351631272     0.0463252618
   13      C      -3.0941576396     0.1405489226     0.7565379834
   14      C      -1.9616158097     0.9747834619     0.1055161992
   15      O      -1.7589004949     0.3458184289    -1.1700423169
   16      H      -0.7096305483    -1.4301124375     1.2835112574
   17      H      -0.6234843407     0.8024570388     1.8648916321
   18      H       2.0944896697     2.6141674421    -1.5545595239
   19      H       3.5521193243    -1.2668762393     0.0846640636
   20      H      -1.3227790942    -1.6571407075    -1.4968888335
   21      H      -3.6971992632    -1.3994952102    -0.6929942703
   22      H      -2.8961283116    -2.0862044865     0.7306296690
   23      H      -4.0720500814     0.5795275460     0.5573751556
   24      H      -2.9728901022     0.0754167147     1.8404947382
   25      H      -2.1623087192     2.0335163329    -0.0265536350
   26      H       2.8652702484     2.7809800472     0.0428616945
   27      H       3.3568890902     1.4484181410    -1.0522200045
   28      H       3.0144855494    -2.9552407677     0.2354423097
   29      H       3.5396904047    -2.0548649984     1.6932895283
 ----------------------------------------------------------------
 Nuclear Repulsion Energy =  1115.0233740209 hartrees
 There are       57 alpha and       57 beta electrons
 Applying Cartesian multipole field
    Component          Value
    ---------          -----
     (2,0,0)        1.00000E-11
     (0,2,0)        2.00000E-11
     (0,0,2)       -3.00000E-11
 Nucleus-field energy     =     0.0000000280 hartrees
 Requested basis set is 6-311++G(d,p)
 There are 160 shells and 428 basis functions
 A cutoff of  1.0D-11 yielded  10592 shell pairs
 There are     77345 function pairs (     82613 Cartesian)
 Smallest overlap matrix eigenvalue = 1.16E-06

 Q-Chem warning in module /fs/scratch/osu6415/qchem-kaunlao-vdw/stvman/mkSTV.C, line 281:

[...]
     0.00010232      0.00028113     -0.00001314
     0.01528322      0.04195224      0.04732379
     0.03844827     -0.02836593     -0.01177045
     0.02998261      0.53990901      0.31295950
    -0.20913738      0.05188574     -0.38276099
vibration 69
    -0.00006033     -0.00019365      0.00036498
    -0.00009430     -0.00005674     -0.00073464
     0.00013001      0.00013838      0.00030090
     0.00225457     -0.00166156     -0.00048727
    -0.00022691      0.00001894     -0.00001853
     0.00003416     -0.00006851     -0.00013090
    -0.00234319     -0.00086988      0.00099778
    -0.00018630      0.00092204     -0.00006033
    -0.02394914     -0.03643716      0.00653034
    -0.00351549      0.00162486      0.00219179
     0.00004047     -0.00001868     -0.00000421
    -0.00019329     -0.00016417     -0.00008078
    -0.00053819      0.00030923      0.00061152
     0.00003782      0.00002389      0.00004817
    -0.00002440     -0.00000768     -0.00001874
     0.00085546      0.00256375     -0.00460296
    -0.00097185      0.00113067      0.00877040
    -0.20221036      0.27461173     -0.47053649
     0.02552009      0.04244384     -0.03260682
    -0.00013631      0.00028370      0.00029608
     0.00226732      0.00084588      0.00197968
    -0.00013086      0.00093579     -0.00108248
     0.00654381     -0.00283763      0.00257637
    -0.00065020     -0.00070857     -0.00983943
     0.00005110     -0.00048749      0.00011205
     0.15879172      0.43507496      0.48940515
     0.34397609     -0.25828062     -0.10612135
    -0.00299437     -0.05647064     -0.03290125
     0.02092020     -0.00519433      0.03826720
vibration 70
     0.00236762      0.00625660     -0.01067220
    -0.00203036      0.00307627      0.02019362
    -0.00001103      0.00005037     -0.00048156
    -0.00000500     -0.00002468      0.00036113
    -0.00000732     -0.00000776      0.00003756
    -0.00001645      0.00003612      0.00012873
     0.00000611     -0.00002931      0.00001821
    -0.00001594      0.00003251     -0.00003200
    -0.00030452     -0.00040654      0.00009648
     0.00053260     -0.00014562     -0.00029481
     0.00000648      0.00142466      0.00124172
    -0.02212788     -0.03705799      0.01163010
     0.02609576     -0.01511602     -0.03778605
    -0.00082977      0.00115348      0.00009933
     0.00002208      0.00005670      0.00003452
    -0.02542762     -0.07362260      0.12840511
     0.02473332     -0.03408565     -0.24278202
    -0.00234697      0.00317324     -0.00542889
    -0.00394160     -0.00616976      0.00484083
     0.00269901     -0.01728243     -0.01475194
     0.29433700      0.10154673      0.25506787
    -0.04358196      0.33430015     -0.39050796
    -0.33791552      0.13903537     -0.13006164
     0.04016700      0.04129258      0.57346235
     0.00414246     -0.01359505      0.00146511
     0.00176640      0.00491787      0.00553095
     0.00403663     -0.00306818     -0.00125344
     0.00034580      0.00710046      0.00408216
    -0.00281347      0.00072729     -0.00514510
vibration 71
    -0.00172665     -0.00485379      0.00954750
     0.00419062     -0.00667461     -0.04442732
    -0.00005052     -0.00004298      0.00038673
     0.00013992     -0.00007337     -0.00070469
    -0.00001074      0.00003664     -0.00003604
    -0.00003758     -0.00002587     -0.00013007
    -0.00011683      0.00007733     -0.00002383
    -0.00000318     -0.00001515      0.00006754
     0.00036162      0.00056417     -0.00011233
     0.00001133      0.00012301     -0.00004755
     0.00038284      0.00207842      0.00177629
    -0.02782487     -0.03924491      0.00480350
    -0.01267759      0.00937842      0.02729152
     0.00128315     -0.00055402     -0.00015639
    -0.00006034      0.00016657     -0.00000828
     0.02250973      0.06214717     -0.11099533
    -0.05281664      0.07486899      0.53283266
     0.00279971     -0.00378747      0.00643447
    -0.00014094     -0.00048518      0.00035025
     0.00417686     -0.02651272     -0.02292576
     0.36638187      0.12824521      0.31432063
    -0.04445720      0.32210065     -0.37427459
     0.17007816     -0.07067969      0.06882003
    -0.02644795     -0.02979359     -0.38520585
    -0.00429890      0.01164750     -0.00200614
    -0.00226239     -0.00625223     -0.00699009
    -0.00437145      0.00338404      0.00133553
    -0.00008361     -0.00071160     -0.00037910
     0.00013595     -0.00004026      0.00031689
vibration 72
    -0.00685363     -0.01892255      0.03331405
     0.00447778     -0.00760289     -0.05183411
     0.00000218     -0.00020541      0.00125541
     0.00010686     -0.00001429     -0.00070219
     0.00007734      0.00003148     -0.00007669
     0.00004129     -0.00010316     -0.00034751
    -0.00009173      0.00009615     -0.00003931
     0.00006951      0.00000584      0.00009878
     0.00012696      0.00010350      0.00001856
    -0.00088316      0.00043535      0.00049984
    -0.00020835     -0.00090796     -0.00108308
     0.00782172      0.01449994     -0.00384703
     0.02360731     -0.01382526     -0.02809341
    -0.00064360      0.00214374     -0.00111505
    -0.00010470      0.00018318      0.00033681
     0.08055130      0.22676911     -0.39795179
    -0.05945100      0.08731411      0.62305488
     0.00036123     -0.00036739      0.00064727
     0.00638908      0.00952574     -0.00754778
    -0.00322427      0.01536692      0.01501677
    -0.10972674     -0.03689371     -0.09546396
     0.01805617     -0.12523953      0.14362118
    -0.30052065      0.12454973     -0.11388694
     0.03077089      0.03234645      0.44295102
     0.00645316     -0.03257002      0.00505184
    -0.00059924     -0.00171255     -0.00186274
    -0.00085394      0.00077013      0.00027291
    -0.00057727     -0.01283159     -0.00737114
     0.00442316     -0.00113088      0.00814626
vibration 73
     0.01185675      0.03475567     -0.05999871
     0.00372523     -0.00594018     -0.03900750
    -0.00076835      0.00076524     -0.00203619
     0.00000502     -0.00064113     -0.00035473
     0.00012334     -0.00008961      0.00027128
     0.00007707      0.00012976      0.00057660
    -0.00004680      0.00009855     -0.00003254
     0.00000946      0.00014006      0.00002738
    -0.00002793     -0.00013577      0.00024155
     0.00070677     -0.00044088     -0.00010472
     0.00083957     -0.00068576     -0.00116789
     0.01293193      0.00495386      0.01061276
     0.00519637     -0.00287615     -0.00455252
     0.00016444      0.00160371     -0.00104049
    -0.00006417     -0.00018624      0.00051115
    -0.14548093     -0.41489579      0.71904097
    -0.04692147      0.06663153      0.46870491
    -0.00138970      0.00209877     -0.00349284
    -0.00439802     -0.00576236      0.00467615
    -0.00417101      0.01692102      0.01526580
    -0.15373272     -0.05729031     -0.12693314
     0.00134418     -0.00064824      0.00389566
    -0.06648684      0.02783845     -0.02422062
     0.00530249      0.00516692      0.07843202
     0.00341991     -0.02430303      0.00489226
     0.00028150      0.00056350      0.00053578
     0.00149641     -0.00088869     -0.00050737
     0.00032757      0.00884848      0.00497689
    -0.00348993      0.00087168     -0.00693370
vibration 74
    -0.00174028     -0.00487886      0.00826226
     0.00038325     -0.00038480     -0.00188418
    -0.00000302     -0.00000402      0.00030634
     0.00007979      0.00012949     -0.00000111
     0.00001009      0.00001465     -0.00003848
     0.00001706     -0.00003937     -0.00011528
    -0.00005588     -0.00000650      0.00000328
    -0.00002900     -0.00001947     -0.00000101
     0.00001667      0.00009069     -0.00001563
    -0.00004211      0.00026457      0.00000603
     0.00114758     -0.00196083     -0.00090818
     0.03400376     -0.01553656      0.05681021
    -0.04535584      0.01616268     -0.04347847
     0.00040571     -0.00394041      0.00042700
    -0.00008715      0.00023344     -0.00007873
     0.02001998      0.05678300     -0.10082290
    -0.00094360      0.00330193      0.02323022
     0.00026054     -0.00036553      0.00062494
    -0.00003051     -0.00030927      0.00022664
    -0.00494555      0.01721891      0.01662250
    -0.37618300     -0.14312066     -0.30861798
    -0.03079757      0.32891949     -0.36910284
     0.52407886     -0.21717045      0.17843910
     0.01126804      0.02870580      0.34144213
    -0.00814669      0.04608665     -0.00963453
    -0.00028523     -0.00069281     -0.00073306
    -0.00017864      0.00007977      0.00005877
    -0.00009855     -0.00248718     -0.00146745
     0.00049987     -0.00009092      0.00091726
vibration 75
     0.00151709      0.00421307     -0.00710512
     0.00073083     -0.00086053     -0.00543028
     0.00004977     -0.00001639     -0.00029459
     0.00007766      0.00001331      0.00000960
    -0.00001984     -0.00000680      0.00003768
    -0.00004993      0.00005528      0.00015259
    -0.00004371     -0.00001446      0.00000797
    -0.00002093     -0.00004910      0.00002558
     0.00014875      0.00008150      0.00031961
    -0.00007763     -0.00077611     -0.00000494
    -0.00105018      0.00240749      0.00082746
    -0.03360987      0.01285979     -0.05368168
    -0.04378716      0.01463925     -0.05014187
     0.00025093     -0.00422394     -0.00020924
     0.00017776     -0.00012508      0.00057002
    -0.01580076     -0.04991131      0.08644715
    -0.00499412      0.00983537      0.06731481
    -0.00081939      0.00113369     -0.00185066
     0.00158186      0.00284744     -0.00232576
     0.00487857     -0.01910379     -0.01793559
     0.37578733      0.14478207      0.31108866
     0.02796309     -0.29855550      0.33140052
     0.50526048     -0.21192748      0.17109239
     0.01641257      0.03889421      0.42832384
    -0.00779994      0.04287634     -0.00872849
    -0.00073435     -0.00209681     -0.00220150
    -0.00007665      0.00007913      0.00008388
     0.00025110      0.00595496      0.00359764
    -0.00066204      0.00000864     -0.00116065
vibration 76
    -0.00009915     -0.00033423      0.00021063
     0.00005704     -0.00000413     -0.00002128
     0.00008231      0.00013347      0.00003190
    -0.00020253      0.00003856      0.00005404
     0.00001363      0.00032877     -0.00002926
    -0.00001669      0.00015944     -0.00004350
     0.00010185      0.00000608     -0.00000799
     0.00004991     -0.00003176     -0.00001049
     0.00129437     -0.00168113      0.00011686
    -0.02712669     -0.09070167      0.00303672
    -0.00001243      0.00002950      0.00007151
     0.00030095     -0.00018509      0.00053856
     0.00024870     -0.00008374      0.00029057
    -0.00001860      0.00003046     -0.00002557
     0.00000086      0.00002389     -0.00000301
     0.00027745      0.00147421     -0.00227539
     0.00001131      0.00001775      0.00006529
    -0.00421863      0.00590054     -0.01066365
     0.29976983      0.48943424     -0.40072016
     0.00023799     -0.00059879     -0.00053822
    -0.00330507     -0.00125690     -0.00269428
    -0.00030647      0.00343644     -0.00386015
    -0.00280818      0.00122898     -0.00096768
    -0.00010909     -0.00024497     -0.00248594
     0.00005272     -0.00039537      0.00009919
     0.00196159      0.00453182      0.00538600
    -0.01268513      0.00930012      0.00365532
     0.03117802      0.60114837      0.37110687
    -0.00909296     -0.01724808     -0.00585746
vibration 77
     0.00002754      0.00009229     -0.00013494
    -0.00003642     -0.00006531     -0.00040014
    -0.00001971     -0.00001970     -0.00020296
    -0.00006798      0.00003308      0.00020579
     0.00003725      0.00001113      0.00005137
    -0.00002905     -0.00000509      0.00010265
     0.00017628      0.00008817      0.00035822
     0.00000894      0.00000164      0.00013493
    -0.02596547     -0.01382677     -0.09033393
     0.00010839     -0.00024446      0.00056328
    -0.00001240      0.00005471      0.00002490
    -0.00008796      0.00006027     -0.00015829
    -0.00013753      0.00004239     -0.00023303
    -0.00001629      0.00004225     -0.00002857
    -0.00000334     -0.00000198      0.00002734
    -0.00042201     -0.00108850      0.00181686
     0.00010469      0.00049495      0.00212445
     0.25313717     -0.35374694      0.56602579
     0.00142160      0.00230202     -0.00200134
     0.00014571     -0.00040644     -0.00040495
     0.00096816      0.00038459      0.00080491
     0.00008621     -0.00107541      0.00120781
     0.00153274     -0.00064361      0.00052694
     0.00008287      0.00018933      0.00233167
     0.00012055     -0.00066870      0.00011531
     0.15281125      0.45068082      0.49057211
    -0.09824892      0.06639908      0.01093371
     0.00005177     -0.00013462      0.00004261
    -0.00275786      0.00050904     -0.00488182
vibration 78
     0.00001383      0.00002210     -0.00000785
    -0.00000771     -0.00003349     -0.00007620
     0.00080429     -0.00036181     -0.00085759
     0.00005534      0.00001577     -0.00003024
     0.00016698      0.00000611      0.00036417
    -0.00027915      0.00013477      0.00044474
    -0.00000483      0.00000493      0.00002157
    -0.00000835      0.00000682      0.00000838
    -0.00283038      0.00287940     -0.00026423
    -0.02625107      0.00454258     -0.09054951
    -0.00044999      0.00169597      0.00172606
     0.00013412      0.00006627      0.00004041
    -0.00002286     -0.00001976     -0.00008533
    -0.00015654      0.00095474     -0.00024692
    -0.00001089      0.00001594      0.00000654
    -0.00047784     -0.00038032      0.00096905
    -0.00015017      0.00016365      0.00083818
     0.00694865     -0.00937348      0.01682079
    -0.13517971     -0.21922928      0.15222337
     0.00558552     -0.01969542     -0.01993342
    -0.00148330     -0.00052066     -0.00110118
    -0.00000526     -0.00038842      0.00049755
     0.00035433     -0.00012392      0.00008135
     0.00004751      0.00007233      0.00080106
     0.00187652     -0.01137752      0.00261093
    -0.00210813     -0.00350440     -0.00488508
     0.02825572     -0.02127604     -0.00879635
     0.01293561      0.27210586      0.14055120
     0.42741782     -0.10537887      0.78169882
vibration 79
    -0.00006162      0.00064951      0.00016337
     0.00014545      0.00044537     -0.00010786
     0.00017905     -0.00022820     -0.00104838
     0.00028460     -0.00066509      0.00018124
    -0.00007679      0.00003998      0.00009669
     0.00017184      0.00011838      0.00048504
    -0.00003462      0.00008204     -0.00000176
    -0.00032863      0.00024253     -0.00007043
    -0.00170716      0.00185006      0.00007502
    -0.00079018     -0.00001120     -0.00262688
     0.01289008     -0.04757449     -0.04860813
    -0.00313904     -0.00048183     -0.00159333
     0.00257399     -0.00019097      0.00193318
     0.00813080     -0.04788086      0.01163502
     0.00006479     -0.00034583     -0.00005198
    -0.00086142     -0.00197826      0.00116869
     0.00064777      0.00013527      0.00341624
     0.00371119     -0.00493789      0.00893471
    -0.00358594     -0.00576773      0.00386508
    -0.15357136      0.55475010      0.56163801
     0.03421740      0.01234106      0.02499393
     0.00135285      0.00148715     -0.00296844
    -0.03448401      0.01299976     -0.00996216
    -0.00070126     -0.00135298     -0.00965236
    -0.09293287      0.56166122     -0.12942209
    -0.00165334     -0.00345998     -0.00432695
     0.01841568     -0.01374887     -0.00564417
     0.00033136      0.00896343      0.00467018
     0.01199576     -0.00298722      0.02225964
vibration 80
    -0.00054627      0.00069375     -0.00102973
    -0.00035176     -0.00043957     -0.00196806
    -0.00019594      0.00029265      0.00075070
     0.00019682     -0.00099212      0.00027460
     0.00011519     -0.00005754     -0.00005898
    -0.00008997     -0.00009537     -0.00035021
     0.00006305      0.00010122     -0.00005400
    -0.00040146      0.00035628     -0.00009890
    -0.00334559      0.00358639      0.00033260
     0.00016126     -0.00008751      0.00091980
    -0.00961484      0.03617013      0.03557490
     0.00335616      0.00211433      0.00097035
     0.00546899     -0.00155379      0.00105148
     0.01144575     -0.06785656      0.01506009
    -0.00004388      0.00022158     -0.00043070
    -0.00115204     -0.00510487      0.00955200
    -0.00026193      0.00257066      0.02062522
     0.00655830     -0.00859141      0.01590660
     0.00191782      0.00300725     -0.00218665
     0.11121780     -0.40190618     -0.40795559
    -0.03307288     -0.01159802     -0.02482625
    -0.00054412     -0.00720749      0.01037767
    -0.05880525      0.02173353     -0.01791171
    -0.00062671     -0.00156298      0.00070802
    -0.12740484      0.77088131     -0.17851628
    -0.00332412     -0.00705686     -0.00887481
     0.03650873     -0.02717449     -0.01108303
    -0.00000808     -0.00296053     -0.00153450
    -0.00361780      0.00086989     -0.00692308
vibration 81
     0.00003564     -0.00006954      0.00002635
     0.00002778     -0.00003840      0.00011596
    -0.00015774      0.00006719      0.00006061
     0.00045801      0.00120931     -0.00025287
     0.00004500     -0.00001059     -0.00000375
     0.00005724     -0.00001696     -0.00004864
     0.00016269     -0.00030470     -0.00005113
    -0.00004438     -0.00054037      0.00010824
    -0.06318192      0.06984919      0.00673060
     0.00024118     -0.00200490      0.00407881
     0.00018019     -0.00068190     -0.00064595
    -0.00009517     -0.00007960     -0.00002998
    -0.00033947      0.00007428     -0.00011067
    -0.00081625      0.00486072     -0.00109375
    -0.00000202     -0.00002352      0.00002140
     0.00002476      0.00009642     -0.00025123
    -0.00009429     -0.00029636     -0.00128200
     0.12553043     -0.16908878      0.31170063
     0.01388323      0.02258649     -0.01735724
    -0.00199524      0.00698700      0.00713606
     0.00082760      0.00026384      0.00060644
     0.00001574      0.00004466     -0.00015017
     0.00381027     -0.00143369      0.00114223
     0.00007053      0.00011952      0.00024714
     0.00937651     -0.05567960      0.01292414
    -0.06898665     -0.14554802     -0.18099128
     0.68873012     -0.51691056     -0.20865517
     0.00012335     -0.00211348     -0.00031504
    -0.01694539      0.00378180     -0.03089051
[INT]
    2.394584
    0.503118
    2.918526
    0.190497
    1.653989
    0.562033
    0.880019
    1.000312
    0.196176
    1.874430
    2.908213
    1.074172
   12.712430
    4.261511
    2.540558
   14.893829
   12.438148
   22.875149
    7.476053
    4.062949
    7.953304
    2.582910
   10.502555
   13.623058
   19.214146
    6.681994
    3.212990
    5.191544
    4.154990
    1.807588
   22.404649
   31.258955
    3.915844
   21.483648
   42.788859
   34.838112
   12.269338
    6.981801
   18.440367
   26.058249
    2.551787
   18.313945
  177.695748
    3.190686
    4.339287
   50.062757
    4.363024
   25.338435
   12.460561
  419.583590
    2.607665
    3.342226
   86.269058
    9.279752
   13.472555
    4.941024
   44.766210
    7.851420
   23.555281
    6.506448
    8.690826
    2.381724
   12.139489
    8.123518
    6.876764
  286.296711
  220.488582
   31.576244
   35.519919
   19.186676
   27.006398
   17.256927
   10.521966
    1.708224
   39.659874
   22.902304
   13.765189
   15.318957
   13.144387
    2.128654
   12.460235

======= END OF MOLDEN-FORMATTED INPUT FILE =======


        *************************************************************
        *                                                           *
        *  Thank you very much for using Q-Chem.  Have a nice day.  *
        *                                                           *
        *************************************************************


