r0112.ten.osc.edu 10.25.153
Q-Chem Developer Version! Running on 10.25.153.*
                  Welcome to Q-Chem
     A Quantum Leap Into The Future Of Chemistry


 Q-Chem 5.0, Q-Chem, Inc., Pleasanton, CA (2017)

 Yihan Shao,  Zhengting Gan,  E. Epifanovsky,  A. T. B. Gilbert,  M. Wormit,  
 J. Kussmann,  A. W. Lange,  A. Behn,  Jia Deng,  Xintian Feng,  D. Ghosh,  
 M. Goldey,  P. R. Horn,  L. D. Jacobson,  I. Kaliman,  T. Kus,  A. Landau,  
 Jie Liu,  E. I. Proynov,  R. M. Richard,  R. P. Steele,  E. J. Sundstrom,  
 H. L. Woodcock III,  P. M. Zimmerman,  D. Zuev,  B. Albrecht,  E. Alguire,  
 S. A. Baeppler,  Z. Benda,  Y. A. Bernard,  E. J. Berquist,  K. B. Bravaya,  
 D. Casanova,  Chun-Min Chang,  Yunqing Chen,  A. Chien,  K. D. Closser,  
 M. P. Coons,  S. Dasgupta,  M. Diedenhofen,  Hainam Do,  R. G. Edgar,  
 Po-Tung Fang,  S. Fatehi,  Qingguo Feng,  Qinghui Ge,  A. Ghysels,  
 J. Gomes,  J. Gonthier,  A. Gunina,  M. W. D. Hanson-Heine,  
 P. H. P. Harbach,  A. W. Hauser,  J. E. Herr,  E. G. Hohenstein,  
 Z. C. Holden,  Kerwin Hui,  T.-C. Jagau,  Hyunjun Ji,  B. Kaduk,  
 K. Khistyaev,  Jaehoon Kim,  P. Klunzinger,  K. Koh,  D. Kosenkov,  
 T. Kowalczyk,  C. M. Krauter,  A. Kunitsa,  Ka Un Lao,  A. Laurent,  
 K. V. Lawler,  Joonho Lee,  D. Lefrancois,  S. Lehtola,  D. S. Levine,  
 Yi-Pei Li,  You-Sheng Lin,  Fenglai Liu,  E. Livshits,  A. Luenser,  
 P. Manohar,  E. Mansoor,  S. F. Manzer,  Shan-Ping Mao,  Yuezhi Mao,  
 N. Mardirossian,  A. V. Marenich,  L. A. Martinez-Martinez,  S. A. Maurer,  
 N. J. Mayhall,  S. C. McKenzie,  J.-M. Mewes,  A. F. Morrison,  K. Nanda,  
 T. S. Nguyen-Beck,  R. Olivares-Amaya,  J. A. Parkhill,  T. M. Perrine,  
 F. Plasser,  S. Prager,  A. Prociuk,  D. R. Rehn,  F. Rob,  M. Schneider,  
 N. Sergueev,  S. M. Sharada,  S. Sharma,  D. W. Small,  T. Stauch,  
 T. Stein,  Yu-Chuan Su,  A. J. W. Thom,  T. Tsuchimochi,  L. Vogt,  
 O. Vydrov,  M. A. Watson,  J. Wenzel,  M. de Wergifosse,  T. A. Wesolowski,  
 A. White,  J. Witte,  A. Yamada,  Jun Yang,  K. Yao,  S. Yeganeh,  
 S. R. Yost,  Zhi-Qiang You,  A. Zech,  Igor Ying Zhang,  Xing Zhang,  
 Yan Zhao,  Ying Zhu,  B. R. Brooks,  G. K. L. Chan,  C. J. Cramer,  
 M. S. Gordon,  W. J. Hehre,  A. Klamt,  M. W. Schmidt,  C. D. Sherrill,  
 D. G. Truhlar,  A. Aspuru-Guzik,  R. Baer,  A. T. Bell,  N. A. Besley,  
 Jeng-Da Chai,  A. Dreuw,  B. D. Dunietz,  T. R. Furlani,  Chao-Ping Hsu,  
 Yousung Jung,  Jing Kong,  D. S. Lambrecht,  WanZhen Liang,  C. Ochsenfeld,  
 V. A. Rassolov,  L. V. Slipchenko,  J. E. Subotnik,  T. Van Voorhis,  
 J. M. Herbert,  A. I. Krylov,  P. M. W. Gill,  M. Head-Gordon

 Contributors to earlier versions of Q-Chem not listed above: 
 R. D. Adamson,  B. Austin,  J. Baker,  G. J. O. Beran,  K. Brandhorst,  
 S. T. Brown,  E. F. C. Byrd,  A. K. Chakraborty,  C.-L. Cheng,  
 Siu Hung Chien,  D. M. Chipman,  D. L. Crittenden,  H. Dachsel,  
 R. A. DiStasio Jr.,  R. J. Doerksen,  A. D. Dutoi,  L. Fusti-Molnar,  
 W. A. Goddard III,  A. Golubeva-Zadorozhnaya,  S. R. Gwaltney,  G. Hawkins,  
 A. Heyden,  S. Hirata,  G. Kedziora,  F. J. Keil,  C. Kelley,  Jihan Kim,  
 R. A. King,  R. Z. Khaliullin,  P. P. Korambath,  W. Kurlancheek,  
 A. M. Lee,  M. S. Lee,  S. V. Levchenko,  Ching Yeh Lin,  D. Liotard,  
 R. C. Lochan,  I. Lotan,  P. E. Maslen,  N. Nair,  D. P. O'Neill,  
 D. Neuhauser,  E. Neuscamman,  C. M. Oana,  R. Olson,  B. Peters,  
 R. Peverati,  P. A. Pieniazek,  Y. M. Rhee,  J. Ritchie,  M. A. Rohrdanz,  
 E. Rosta,  N. J. Russ,  H. F. Schaefer III,  N. E. Schultz,  N. Shenvi,  
 A. C. Simmonett,  A. Sodt,  D. Stuck,  K. S. Thanthiriwatte,  V. Vanovschi,  
 Tao Wang,  A. Warshel,  C. F. Williams,  Q. Wu,  X. Xu,  W. Zhang

 Please cite Q-Chem as follows:
 Y. Shao et al., Mol. Phys. 113, 184-215 (2015)
 DOI: 10.1080/00268976.2014.952696

 Q-Chem 5.0.1 for Intel X86 EM64T Linux

 Parts of Q-Chem use Armadillo 5.200.1 (Boston Tea Smuggler).
 http://arma.sourceforge.net/

 Q-Chem begins on Sat Oct 14 17:07:36 2017  

Host: r0112.ten.osc.edu
0

     Scratch files written to /tmp/pbstmp.1310443/02//
Processing $rem in /users/PAS0291/osu6415/.qchemrc.
molden_format             true

Checking the input file for inconsistencies... 	...done.

--------------------------------------------------------------
User input:
--------------------------------------------------------------
$molecule
0 1
C -0.55564553 -0.93020643 0.46474262
C -0.62163588 0.60679546 0.78631068
C 0.77597809 -1.45844191 -0.03981196
C 0.60733030 1.44303817 0.49298740
O 1.75964129 -1.15962883 0.83565728
O 0.94355977 -2.11166720 -1.03736003
O 1.10774803 1.20593789 -0.73248944
O 1.05166109 2.27345475 1.24948289
C 2.26409863 1.97205248 -1.11068311
C 3.08551068 -1.57534265 0.46196117
C -1.70275096 -1.08457286 -0.56125363
C -3.05827931 -1.01300320 0.17532544
C -3.13950629 0.50972904 0.50404317
C -1.82394730 1.01687763 -0.12917840
O -1.66530932 0.16651367 -1.26625504
H -0.76226996 -1.49165464 1.38039465
H -0.84729322 0.78140022 1.83661098
H 2.03470724 3.03856676 -1.10534791
H 3.36305803 -1.12920562 -0.49439701
H -1.56655442 -1.90492724 -1.25941933
H -3.86545018 -1.31886326 -0.49129817
H -3.08966771 -1.64873338 1.06246837
H -3.99544426 0.97809904 0.01609812
H -3.20088834 0.72183335 1.57306552
H -1.82094946 2.05922176 -0.44149047
H 3.08833353 1.78075768 -0.42119883
H 2.51438917 1.63742910 -2.11475021
H 3.13757462 -2.66195512 0.37896133
H 3.73608018 -1.21857904 1.25712823
$end

$rem
sym_ignore      true
jobtype         opt
method          b3lyp
basis           6-311++G(d,p)
dft_d           d3_op
mem_total       62000
MEM_STATIC      4000
ao2mo_disk      350000
max_scf_cycles  200
geom_opt_max_cycles 1000
geom_opt_tol_displacement 1
GEOM_OPT_TOL_GRADIENT       1
GEOM_OPT_TOL_ENERGY         1
$end

--------------------------------------------------------------
 Adding empirical dispersion correction 
 ----------------------------------------------------------------
 Doing -D3(op) with
 s6 =   1.00000
 s8 =   0.78311
 a1 =   0.30000
 a2 =   4.25000
 n  =  10.00000
 -D3 energy without 3body term =     -0.0315969310 hartrees
 ----------------------------------------------------------------
             Standard Nuclear Orientation (Angstroms)
    I     Atom           X                Y                Z
 ----------------------------------------------------------------
    1      C      -0.5556455300    -0.9302064300     0.4647426200
    2      C      -0.6216358800     0.6067954600     0.7863106800
    3      C       0.7759780900    -1.4584419100    -0.0398119600
    4      C       0.6073303000     1.4430381700     0.4929874000
    5      O       1.7596412900    -1.1596288300     0.8356572800
    6      O       0.9435597700    -2.1116672000    -1.0373600300
    7      O       1.1077480300     1.2059378900    -0.7324894400
    8      O       1.0516610900     2.2734547500     1.2494828900
    9      C       2.2640986300     1.9720524800    -1.1106831100
   10      C       3.0855106800    -1.5753426500     0.4619611700
   11      C      -1.7027509600    -1.0845728600    -0.5612536300
   12      C      -3.0582793100    -1.0130032000     0.1753254400
   13      C      -3.1395062900     0.5097290400     0.5040431700
   14      C      -1.8239473000     1.0168776300    -0.1291784000
   15      O      -1.6653093200     0.1665136700    -1.2662550400
   16      H      -0.7622699600    -1.4916546400     1.3803946500
   17      H      -0.8472932200     0.7814002200     1.8366109800
   18      H       2.0347072400     3.0385667600    -1.1053479100
   19      H       3.3630580300    -1.1292056200    -0.4943970100
   20      H      -1.5665544200    -1.9049272400    -1.2594193300
   21      H      -3.8654501800    -1.3188632600    -0.4912981700
   22      H      -3.0896677100    -1.6487333800     1.0624683700
   23      H      -3.9954442600     0.9780990400     0.0160981200
   24      H      -3.2008883400     0.7218333500     1.5730655200
   25      H      -1.8209494600     2.0592217600    -0.4414904700
   26      H       3.0883335300     1.7807576800    -0.4211988300
   27      H       2.5143891700     1.6374291000    -2.1147502100
   28      H       3.1375746200    -2.6619551200     0.3789613300
   29      H       3.7360801800    -1.2185790400     1.2571282300
 ----------------------------------------------------------------
 Nuclear Repulsion Energy =  1124.8405731190 hartrees
 There are       57 alpha and       57 beta electrons
 Requested basis set is 6-311++G(d,p)
 There are 160 shells and 428 basis functions

 Total QAlloc Memory Limit  62000 MB
 Mega-Array Size      3911 MB
 MEM_STATIC part      4000 MB
 A cutoff of  1.0D-11 yielded  10691 shell pairs
 There are     78191 function pairs (     83529 Cartesian)
 
 -------------------------------------------------------
 OpenMP Integral Computing Module                       
 Release: version 1.0, May 2013, Q-Chem Inc. Pittsburgh 
 -------------------------------------------------------
 Integral Job Info:
 Integral job number is                      11
 Integral operator is                         1
 short-range coefficients                     0
 long-range coefficients              100000000
 Omega coefficients                           0
 if combine SR and LR in K                    0
 Integral screening is                        0
 Integral computing path is                   2
 max size of driver memory is            800000
 size of driver memory is                593474
 size of scratch memory is              2361544
 max col of scratch BK array               1296
 max len of scratch array in speh3          155
 max len of scratch index in speh4           18
 max int batch size is                      520
 min int batch size is                       52
 fixed nKL is                                52
 max L of basis functions is                  2
 order of int derivative is                   0
 number of shells is                        160
 number of basis is                         443
 number of cartesian basis is               443
 number of contracted shell pairs         10691
 number of primitive shell pairs          24199
 maxK2 (contraction) of shell pair           36
 max number of K2 of shell pair               1
 max number of CS2 of shell pair           1965
 max number of PS2 of shell pair           3444
 mem total for path MDJ                  145384
 -------------------------------------------------------
 Smallest overlap matrix eigenvalue = 1.22E-06

 Q-Chem warning in module /fs/scratch/osu6415/qchem-kaunlao-vdw/stvman/mkSTV.C, line 281:

 Overlap eigenvalue is smaller than square root of threshold


 Scale SEOQF with 1.000000e-01/1.000000e-01/1.000000e-01

 Standard Electronic Orientation quadrupole field applied
 Nucleus-field energy     =     0.0000000235 hartrees
 Guess from superposition of atomic densities
 Warning:  Energy on first SCF cycle will be non-variational
 A restricted hybrid HF-DFT SCF calculation will be
 performed using Pulay DIIS extrapolation
 Exchange:     0.2000 Hartree-Fock + 0.0800 Slater + 0.7200 B88
 Correlation:  0.1900 VWN1RPA + 0.8100 LYP
 Using SG-1 standard quadrature grid
 Dispersion:   Grimme D3
 SCF converges when DIIS error is below 1.0E-08
 using 20 threads for integral computing
 -------------------------------------------------------
 OpenMP Integral computing Module                
 Release: version 1.0, May 2013, Q-Chem Inc. Pittsburgh 
 -------------------------------------------------------
 -------------------------------------------------------
 OpenMP BLAS3 based DFT computing Module                
 Release: version 1.0, May 2013, Q-Chem Inc. Pittsburgh 
 -------------------------------------------------------
 ---------------------------------------
  Cycle       Energy         DIIS Error
 ---------------------------------------
    1    -768.9299434340      3.08E-02
    2    -765.5768158165      3.93E-03
    3    -765.0836425216      6.75E-03
    4    -765.8235657771      1.45E-03
    5    -765.8594735585      4.34E-04
    6    -765.8623055099      1.35E-04
    7    -765.8625919528      4.34E-05
    8    -765.8626231039      1.14E-05
    9    -765.8626253791      3.41E-06
   10    -765.8626255250      1.78E-06
   11    -765.8626255766      4.34E-07
   12    -765.8626255793      1.85E-07
   13    -765.8626255801      3.49E-08
   14    -765.8626255798      1.39E-08
   15    -765.8626255841      3.40E-09 Convergence criterion met
 ---------------------------------------
 SCF time:  CPU 757.44 s  wall 39.58 s
 SCF   energy in the final basis set = -765.86262558
 Total energy in the final basis set = -765.86262558
 
 --------------------------------------------------------------
 
                    Orbital Energies (a.u.)
 --------------------------------------------------------------
 
 Alpha MOs
 -- Occupied --
-19.177 -19.174 -19.132 -19.120 -19.116 -10.310 -10.307 -10.240
-10.232 -10.231 -10.230 -10.208 -10.207 -10.183 -10.182  -1.121
 -1.114  -1.065  -1.032  -1.028  -0.833  -0.786  -0.777  -0.739
 -0.730  -0.659  -0.608  -0.598  -0.577  -0.567  -0.551  -0.520
 -0.506  -0.496  -0.490  -0.485  -0.476  -0.473  -0.463  -0.432
 -0.427  -0.425  -0.411  -0.399  -0.385  -0.376  -0.372  -0.368
 -0.363  -0.359  -0.339  -0.338  -0.321  -0.314  -0.291  -0.282
 -0.275
 -- Virtual --
 -0.020  -0.012  -0.006   0.000   0.007   0.011   0.014   0.019
  0.026   0.035   0.037   0.040   0.044   0.046   0.054   0.056
  0.068   0.072   0.079   0.086   0.087   0.095   0.096   0.099
  0.105   0.108   0.110   0.113   0.116   0.118   0.125   0.128
  0.131   0.132   0.135   0.137   0.142   0.146   0.148   0.151
  0.154   0.157   0.159   0.162   0.165   0.169   0.173   0.174
  0.181   0.184   0.185   0.191   0.196   0.202   0.206   0.208
  0.212   0.214   0.223   0.227   0.229   0.240   0.243   0.249
  0.257   0.265   0.266   0.269   0.277   0.281   0.290   0.293
  0.296   0.299   0.309   0.313   0.317   0.320   0.322   0.329
  0.335   0.338   0.340   0.352   0.355   0.356   0.361   0.365
  0.366   0.367   0.378   0.382   0.386   0.393   0.397   0.407
  0.411   0.415   0.424   0.433   0.446   0.457   0.478   0.490
  0.497   0.499   0.502   0.521   0.527   0.535   0.544   0.554
  0.563   0.567   0.585   0.592   0.593   0.607   0.617   0.623
  0.640   0.641   0.653   0.657   0.663   0.672   0.676   0.679
  0.688   0.698   0.699   0.714   0.719   0.724   0.737   0.739
  0.740   0.751   0.755   0.766   0.772   0.781   0.796   0.803
  0.816   0.826   0.831   0.846   0.879   0.891   0.939   0.955
  0.974   0.986   1.006   1.028   1.040   1.062   1.069   1.091
  1.110   1.119   1.137   1.154   1.161   1.184   1.196   1.201
  1.207   1.229   1.237   1.248   1.259   1.271   1.287   1.299
  1.307   1.326   1.343   1.348   1.359   1.378   1.393   1.407
  1.424   1.432   1.439   1.446   1.463   1.466   1.502   1.514
  1.521   1.529   1.540   1.550   1.557   1.562   1.572   1.586
  1.587   1.596   1.605   1.625   1.635   1.654   1.672   1.677
  1.684   1.699   1.706   1.712   1.719   1.731   1.749   1.757
  1.766   1.798   1.803   1.805   1.817   1.830   1.838   1.863
  1.866   1.880   1.897   1.905   1.920   1.942   1.954   1.962
  1.981   2.004   2.011   2.019   2.043   2.045   2.074   2.099
  2.111   2.124   2.137   2.139   2.162   2.171   2.173   2.196
  2.210   2.238   2.253   2.277   2.295   2.341   2.371   2.432
  2.454   2.455   2.469   2.471   2.491   2.506   2.512   2.521
  2.527   2.546   2.561   2.573   2.585   2.600   2.616   2.647
  2.663   2.677   2.711   2.724   2.743   2.761   2.770   2.797
  2.810   2.830   2.845   2.848   2.851   2.873   2.881   2.907
  2.917   2.921   2.950   2.971   2.995   3.015   3.028   3.039
  3.053   3.066   3.074   3.094   3.114   3.130   3.144   3.154
  3.188   3.211   3.226   3.239   3.249   3.261   3.300   3.338
  3.348   3.383   3.388   3.399   3.446   3.591   3.596   3.649
  3.685   3.714   3.778   3.780   3.831   3.854   3.913   3.936
  4.012   4.039   4.057   4.070   4.089   4.125   4.140   4.156
  4.168   4.211   4.246   4.397   4.495   5.026   5.094   5.137
  5.182   5.200   5.240   5.263   5.404   5.423   5.500   5.598
  5.634   5.646   5.866   5.884  23.823  23.836  23.849  23.884
 23.899  23.929  23.940  23.946  23.971  24.048  49.900  49.935
 49.961  50.031  50.038
 --------------------------------------------------------------
 
          Ground-State Mulliken Net Atomic Charges

     Atom                 Charge (a.u.)
  ----------------------------------------
      1 C                    -0.031158
      2 C                     0.637490
      3 C                    -0.547454
      4 C                    -0.740612
      5 O                    -0.023521
      6 O                    -0.208970
      7 O                    -0.028900
      8 O                    -0.177177
      9 C                    -0.224447
     10 C                    -0.209240
     11 C                    -0.064500
     12 C                    -0.452978
     13 C                    -0.504574
     14 C                    -0.019046
     15 O                    -0.135690
     16 H                     0.234909
     17 H                     0.284967
     18 H                     0.176041
     19 H                     0.182382
     20 H                     0.278073
     21 H                     0.188445
     22 H                     0.125550
     23 H                     0.184567
     24 H                     0.123262
     25 H                     0.257877
     26 H                     0.186004
     27 H                     0.170186
     28 H                     0.174816
     29 H                     0.163698
  ----------------------------------------
  Sum of atomic charges =     0.000000

 -----------------------------------------------------------------
                    Cartesian Multipole Moments
 -----------------------------------------------------------------
    Charge (ESU x 10^10)
                 0.0000
    Dipole Moment (Debye)
         X      -0.1459      Y      -0.5596      Z       1.1487
       Tot       1.2861
    Quadrupole Moments (Debye-Ang)
        XX     -74.3110     XY      -0.5886     YY     -91.5795
        XZ      -5.5398     YZ     -10.0382     ZZ     -95.2481
    Octopole Moments (Debye-Ang^2)
       XXX      45.2689    XXY      -4.9242    XYY      -1.3302
       YYY       0.5144    XXZ      -2.8769    XYZ     -17.4126
       YYZ     -10.9099    XZZ       5.3851    YZZ      -1.6098
       ZZZ      -1.2419
    Hexadecapole Moments (Debye-Ang^3)
      XXXX   -1998.2871   XXXY     -39.5324   XXYY    -515.4217
      XYYY     -23.5960   YYYY   -1183.1359   XXXZ      21.7245
      XXYZ     -26.6297   XYYZ      -3.7818   YYYZ     -81.8361
      XXZZ    -432.9082   XYZZ       4.9374   YYZZ    -290.4670
      XZZZ     -13.6307   YZZZ     -25.5101   ZZZZ    -458.3704
 -----------------------------------------------------------------
 Calculating analytic gradient of the SCF energy
 Gradient of SCF Energy
            1           2           3           4           5           6
    1  -0.0001889   0.0000097   0.0001055   0.0002250  -0.0000280  -0.0000484
    2   0.0000339  -0.0000363   0.0003050  -0.0002127  -0.0000091  -0.0002136
    3  -0.0003181   0.0003686  -0.0001600   0.0000654  -0.0000070   0.0001127
            7           8           9          10          11          12
    1  -0.0000390  -0.0001280   0.0000389   0.0000228  -0.0000174   0.0000362
    2  -0.0000030   0.0001466  -0.0000012   0.0000025   0.0000516   0.0000403
    3   0.0000281  -0.0000673  -0.0000272   0.0000104  -0.0000364   0.0000809
           13          14          15          16          17          18
    1  -0.0000155  -0.0000399   0.0000049   0.0000320   0.0000133   0.0000119
    2  -0.0000143   0.0000297  -0.0000293  -0.0000478  -0.0000220   0.0000091
    3  -0.0000394   0.0000192   0.0000230  -0.0000209   0.0000136   0.0000424
           19          20          21          22          23          24
    1  -0.0000092   0.0000054   0.0000155  -0.0000517  -0.0000205   0.0000545
    2  -0.0000222  -0.0000120   0.0000500  -0.0000251   0.0000157  -0.0000057
    3  -0.0000280   0.0000088  -0.0000592  -0.0000383   0.0000523   0.0000126
           25          26          27          28          29
    1   0.0000395   0.0000020  -0.0000047  -0.0000111  -0.0000147
    2  -0.0000013   0.0000064   0.0000089  -0.0000201  -0.0000240
    3  -0.0000268   0.0000275   0.0000235  -0.0000413  -0.0000191
 Max gradient component =       3.686E-04
 RMS gradient           =       8.758E-05
 Gradient time:  CPU 247.76 s  wall 18.50 s
 Geometry Optimization Parameters
   NAtoms,    NIC,     NZ,  NCons,   NDum,   NFix, NCnnct, MaxDiis
       29     227       0       0       0       0       0       0


** GEOMETRY OPTIMIZATION IN DELOCALIZED INTERNAL COORDINATES **
   Searching for a Minimum

   Optimization Cycle:   1

                       Coordinates (Angstroms)
     ATOM                X               Y               Z
      1  C        -0.5556455300   -0.9302064300    0.4647426200
      2  C        -0.6216358800    0.6067954600    0.7863106800
      3  C         0.7759780900   -1.4584419100   -0.0398119600
      4  C         0.6073303000    1.4430381700    0.4929874000
      5  O         1.7596412900   -1.1596288300    0.8356572800
      6  O         0.9435597700   -2.1116672000   -1.0373600300
      7  O         1.1077480300    1.2059378900   -0.7324894400
      8  O         1.0516610900    2.2734547500    1.2494828900
      9  C         2.2640986300    1.9720524800   -1.1106831100
     10  C         3.0855106800   -1.5753426500    0.4619611700
     11  C        -1.7027509600   -1.0845728600   -0.5612536300
     12  C        -3.0582793100   -1.0130032000    0.1753254400
     13  C        -3.1395062900    0.5097290400    0.5040431700
     14  C        -1.8239473000    1.0168776300   -0.1291784000
     15  O        -1.6653093200    0.1665136700   -1.2662550400
     16  H        -0.7622699600   -1.4916546400    1.3803946500
     17  H        -0.8472932200    0.7814002200    1.8366109800
     18  H         2.0347072400    3.0385667600   -1.1053479100
     19  H         3.3630580300   -1.1292056200   -0.4943970100
     20  H        -1.5665544200   -1.9049272400   -1.2594193300
     21  H        -3.8654501800   -1.3188632600   -0.4912981700
     22  H        -3.0896677100   -1.6487333800    1.0624683700
     23  H        -3.9954442600    0.9780990400    0.0160981200
     24  H        -3.2008883400    0.7218333500    1.5730655200
     25  H        -1.8209494600    2.0592217600   -0.4414904700
     26  H         3.0883335300    1.7807576800   -0.4211988300
     27  H         2.5143891700    1.6374291000   -2.1147502100
     28  H         3.1375746200   -2.6619551200    0.3789613300
     29  H         3.7360801800   -1.2185790400    1.2571282300
   Point Group: c1    Number of degrees of freedom:    81


   Energy is   -765.862625584


 Attempting to Generate Delocalized Internal Coordinates

 81 Hessian modes will be used to form the next step
  Hessian Eigenvalues:
     0.003222    0.006689    0.007174    0.007345    0.010501    0.010558
     0.010653    0.011217    0.022102    0.022219    0.022950    0.026479
     0.030841    0.036286    0.040043    0.040967    0.045271    0.049546
     0.051756    0.054628    0.055335    0.056467    0.058640    0.062397
     0.064451    0.064702    0.073707    0.075072    0.092992    0.095436
     0.096863    0.101390    0.101458    0.105987    0.106107    0.114000
     0.123573    0.159250    0.160000    0.160000    0.160000    0.160000
     0.160000    0.160000    0.167269    0.235891    0.236962    0.247295
     0.249678    0.249759    0.250000    0.250000    0.250000    0.250000
     0.258044    0.272010    0.280186    0.304800    0.308379    0.337940
     0.343804    0.345984    0.346297    0.346413    0.346757    0.346949
     0.347068    0.347074    0.347405    0.350022    0.350295    0.350948
     0.350971    0.351439    0.353023    0.397385    0.398964    0.549561
     0.561475    1.008954    1.027831

 Minimum Search - Taking Simple RFO Step
 Searching for Lamda that Minimizes Along All modes
 Value Taken    Lamda =  -0.00001708
 Step Taken.  Stepsize is  0.045870

                             Maximum     Tolerance    Cnvgd?
         Gradient           0.000175      0.000001      NO
         Displacement       0.023474      0.000001      NO
         Energy change     *********      0.000000      NO


 New Cartesian Coordinates Obtained by Inverse Iteration

 Displacement from previous Coordinates is:  0.062749
 Adding empirical dispersion correction 
 ----------------------------------------------------------------
 Doing -D3(op) with
 s6 =   1.00000
 s8 =   0.78311
 a1 =   0.30000
 a2 =   4.25000
 n  =  10.00000
 -D3 energy without 3body term =     -0.0316031073 hartrees
 ----------------------------------------------------------------
             Standard Nuclear Orientation (Angstroms)
    I     Atom           X                Y                Z
 ----------------------------------------------------------------
    1      C      -0.5556679561    -0.9296986473     0.4660450802
    2      C      -0.6222150846     0.6078643151     0.7849897028
    3      C       0.7759343730    -1.4582998291    -0.0380733666
    4      C       0.6066254683     1.4439410339     0.4909723835
    5      O       1.7585152675    -1.1658079266     0.8407548753
    6      O       0.9461215586    -2.0977516311    -1.0440666809
    7      O       1.1040018133     1.2100021164    -0.7363692158
    8      O       1.0594350697     2.2648932349     1.2527469771
    9      C       2.2637512552     1.9718082079    -1.1127216367
   10      C       3.0853063450    -1.5760343721     0.4643289487
   11      C      -1.7025276310    -1.0850620444    -0.5601700527
   12      C      -3.0576491304    -1.0138157865     0.1771733879
   13      C      -3.1407025322     0.5095623586     0.5026022756
   14      C      -1.8249864536     1.0167688581    -0.1303257842
   15      O      -1.6658800321     0.1654354287    -1.2665151548
   16      H      -0.7630614403    -1.4902155240     1.3820823585
   17      H      -0.8473878432     0.7833416842     1.8352452644
   18      H       2.0400268007     3.0394766916    -1.1019493508
   19      H       3.3630982337    -1.1203554848    -0.4874393908
   20      H      -1.5661611394    -1.9058785327    -1.2577413850
   21      H      -3.8652042981    -1.3227988260    -0.4875251814
   22      H      -3.0867722492    -1.6472029515     1.0660759583
   23      H      -3.9963163295     0.9759852132     0.0122361179
   24      H      -3.2040756723     0.7239540218     1.5710528423
   25      H      -1.8226534659     2.0589241267    -0.4432602402
   26      H       3.0881238373     1.7727468484    -0.4256125427
   27      H       2.5106570143     1.6407479965    -2.1188231799
   28      H       3.1390803591    -2.6617282374     0.3711561957
   29      H       3.7346623726    -1.2258767227     1.2634351042
 ----------------------------------------------------------------
 Nuclear Repulsion Energy =  1124.8332776449 hartrees
 There are       57 alpha and       57 beta electrons
 Applying Cartesian multipole field
    Component          Value
    ---------          -----
     (2,0,0)        1.00000E-11
     (0,2,0)        2.00000E-11
     (0,0,2)       -3.00000E-11
 Nucleus-field energy     =     0.0000000234 hartrees
 Requested basis set is 6-311++G(d,p)
 There are 160 shells and 428 basis functions
 A cutoff of  1.0D-11 yielded  10693 shell pairs
 There are     78207 function pairs (     83549 Cartesian)
 Smallest overlap matrix eigenvalue = 1.22E-06

 Q-Chem warning in module /fs/scratch/osu6415/qchem-kaunlao-vdw/stvman/mkSTV.C, line 281:

 Overlap eigenvalue is smaller than square root of threshold

 Guess MOs from SCF MO coefficient file
 Reading MOs from coefficient file
 Reading MOs from coefficient file
 A restricted hybrid HF-DFT SCF calculation will be
 performed using Pulay DIIS extrapolation
 Exchange:     0.2000 Hartree-Fock + 0.0800 Slater + 0.7200 B88
 Correlation:  0.1900 VWN1RPA + 0.8100 LYP
 Using SG-1 standard quadrature grid
 Dispersion:   Grimme D3
 SCF converges when DIIS error is below 1.0E-08
 Geometry optimization detected.  Setting ReadMinima to 0
 Setting SaveMinima to 0
 using 20 threads for integral computing
 -------------------------------------------------------
 OpenMP Integral computing Module                
 Release: version 1.0, May 2013, Q-Chem Inc. Pittsburgh 
 -------------------------------------------------------
 -------------------------------------------------------
 OpenMP BLAS3 based DFT computing Module                
 Release: version 1.0, May 2013, Q-Chem Inc. Pittsburgh 
 -------------------------------------------------------
 ---------------------------------------
  Cycle       Energy         DIIS Error
 ---------------------------------------
    1    -765.8611065997      1.74E-04
    2    -765.8626224802      1.16E-05
    3    -765.8626255681      1.09E-05
    4    -765.8626273586      5.41E-06
    5    -765.8626277652      2.20E-06
    6    -765.8626278425      6.18E-07
    7    -765.8626278483      2.55E-07
    8    -765.8626278492      5.32E-08
    9    -765.8626278495      2.35E-08
   10    -765.8626278520      1.12E-08
   11    -765.8626278499      3.18E-09 Convergence criterion met
 ---------------------------------------
 SCF time:  CPU 535.32 s  wall 28.67 s
 SCF   energy in the final basis set = -765.86262785
 Total energy in the final basis set = -765.86262785
 
 --------------------------------------------------------------
 
                    Orbital Energies (a.u.)
 --------------------------------------------------------------
 
 Alpha MOs
 -- Occupied --
-19.177 -19.174 -19.132 -19.120 -19.116 -10.310 -10.307 -10.240
-10.232 -10.231 -10.230 -10.208 -10.207 -10.183 -10.182  -1.121
 -1.114  -1.065  -1.032  -1.028  -0.833  -0.786  -0.777  -0.739
 -0.730  -0.659  -0.608  -0.598  -0.578  -0.567  -0.551  -0.520
 -0.506  -0.496  -0.490  -0.484  -0.476  -0.473  -0.463  -0.432
 -0.427  -0.425  -0.411  -0.399  -0.385  -0.376  -0.372  -0.368
 -0.363  -0.359  -0.339  -0.338  -0.320  -0.314  -0.291  -0.282
 -0.275
 -- Virtual --
 -0.020  -0.012  -0.006   0.000   0.007   0.011   0.014   0.019
  0.026   0.035   0.037   0.040   0.044   0.046   0.054   0.056
  0.068   0.072   0.079   0.086   0.087   0.095   0.096   0.099
  0.105   0.108   0.110   0.113   0.116   0.118   0.125   0.128
  0.131   0.132   0.135   0.137   0.142   0.146   0.148   0.151
  0.154   0.157   0.159   0.162   0.165   0.169   0.173   0.174
  0.181   0.184   0.185   0.191   0.196   0.202   0.206   0.208
  0.212   0.214   0.223   0.227   0.228   0.240   0.243   0.249
  0.257   0.265   0.266   0.269   0.277   0.281   0.290   0.293
  0.296   0.299   0.309   0.313   0.317   0.320   0.321   0.329
  0.335   0.338   0.340   0.352   0.355   0.356   0.362   0.366
  0.366   0.367   0.379   0.382   0.386   0.393   0.398   0.407
  0.411   0.415   0.423   0.433   0.445   0.456   0.478   0.489
  0.496   0.499   0.502   0.521   0.527   0.535   0.544   0.555
  0.563   0.567   0.585   0.592   0.593   0.607   0.617   0.623
  0.640   0.641   0.653   0.657   0.663   0.672   0.677   0.680
  0.688   0.698   0.699   0.714   0.719   0.725   0.737   0.739
  0.740   0.751   0.755   0.766   0.772   0.781   0.796   0.803
  0.815   0.825   0.831   0.847   0.879   0.891   0.939   0.955
  0.974   0.985   1.006   1.028   1.041   1.061   1.069   1.091
  1.110   1.120   1.137   1.154   1.160   1.184   1.196   1.202
  1.207   1.229   1.237   1.249   1.259   1.271   1.286   1.298
  1.308   1.326   1.343   1.348   1.359   1.378   1.393   1.407
  1.424   1.433   1.439   1.446   1.463   1.465   1.502   1.514
  1.521   1.528   1.540   1.550   1.557   1.562   1.572   1.585
  1.587   1.595   1.605   1.625   1.634   1.653   1.672   1.677
  1.684   1.699   1.706   1.712   1.719   1.731   1.750   1.757
  1.766   1.798   1.803   1.805   1.817   1.830   1.839   1.863
  1.867   1.880   1.896   1.905   1.920   1.942   1.954   1.961
  1.981   2.004   2.012   2.019   2.043   2.045   2.074   2.100
  2.111   2.124   2.137   2.140   2.162   2.171   2.173   2.196
  2.210   2.237   2.253   2.277   2.295   2.340   2.371   2.432
  2.454   2.455   2.469   2.471   2.491   2.507   2.512   2.521
  2.527   2.546   2.560   2.572   2.584   2.600   2.615   2.647
  2.663   2.678   2.711   2.724   2.743   2.762   2.770   2.797
  2.810   2.831   2.845   2.847   2.852   2.874   2.882   2.907
  2.917   2.921   2.950   2.970   2.995   3.015   3.028   3.040
  3.053   3.066   3.074   3.093   3.114   3.130   3.144   3.154
  3.188   3.210   3.226   3.239   3.248   3.262   3.300   3.338
  3.350   3.382   3.388   3.399   3.446   3.591   3.596   3.649
  3.686   3.713   3.778   3.780   3.831   3.854   3.914   3.936
  4.013   4.039   4.058   4.070   4.088   4.125   4.140   4.156
  4.168   4.211   4.247   4.397   4.494   5.028   5.094   5.138
  5.181   5.200   5.239   5.264   5.404   5.423   5.500   5.598
  5.634   5.646   5.866   5.884  23.824  23.836  23.849  23.883
 23.899  23.929  23.940  23.946  23.972  24.048  49.900  49.935
 49.961  50.030  50.038
 --------------------------------------------------------------
 
          Ground-State Mulliken Net Atomic Charges

     Atom                 Charge (a.u.)
  ----------------------------------------
      1 C                    -0.035885
      2 C                     0.640203
      3 C                    -0.532851
      4 C                    -0.746132
      5 O                    -0.023041
      6 O                    -0.209116
      7 O                    -0.029394
      8 O                    -0.176742
      9 C                    -0.224634
     10 C                    -0.208453
     11 C                    -0.068682
     12 C                    -0.452309
     13 C                    -0.507594
     14 C                    -0.020706
     15 O                    -0.135244
     16 H                     0.235197
     17 H                     0.285235
     18 H                     0.175985
     19 H                     0.182019
     20 H                     0.278174
     21 H                     0.188379
     22 H                     0.125341
     23 H                     0.184509
     24 H                     0.123275
     25 H                     0.257331
     26 H                     0.185765
     27 H                     0.170480
     28 H                     0.174803
     29 H                     0.164086
  ----------------------------------------
  Sum of atomic charges =     0.000000

 -----------------------------------------------------------------
                    Cartesian Multipole Moments
 -----------------------------------------------------------------
    Charge (ESU x 10^10)
                 0.0000
    Dipole Moment (Debye)
         X      -0.1570      Y      -0.5626      Z       1.1502
       Tot       1.2900
    Quadrupole Moments (Debye-Ang)
        XX     -74.3516     XY      -0.6187     YY     -91.3910
        XZ      -5.5602     YZ     -10.0149     ZZ     -95.3288
    Octopole Moments (Debye-Ang^2)
       XXX      45.2263    XXY      -4.9999    XYY      -1.2712
       YYY       0.3935    XXZ      -2.9004    XYZ     -17.4740
       YYZ     -10.9399    XZZ       5.2812    YZZ      -1.5558
       ZZZ      -1.2257
    Hexadecapole Moments (Debye-Ang^3)
      XXXX   -1999.0859   XXXY     -39.8279   XXYY    -515.1885
      XYYY     -23.8616   YYYY   -1178.5372   XXXZ      21.5429
      XXYZ     -26.6340   XYYZ      -4.0103   YYYZ     -80.2980
      XXZZ    -433.3667   XYZZ       4.8795   YYZZ    -290.3086
      XZZZ     -13.8912   YZZZ     -24.9687   ZZZZ    -459.8338
 -----------------------------------------------------------------
 Calculating analytic gradient of the SCF energy
 Gradient of SCF Energy
            1           2           3           4           5           6
    1  -0.0001311   0.0002796  -0.0001226  -0.0006537   0.0001244   0.0000016
    2   0.0004464  -0.0004421  -0.0008848   0.0006920   0.0001669   0.0002760
    3  -0.0003143   0.0002997   0.0007005  -0.0004644  -0.0001274  -0.0002457
            7           8           9          10          11          12
    1   0.0001929   0.0001629   0.0000150  -0.0000307   0.0000048   0.0000632
    2  -0.0001471  -0.0002104  -0.0000105   0.0000090   0.0000410  -0.0000096
    3   0.0000339   0.0001521   0.0000109  -0.0000070   0.0000095   0.0000689
           13          14          15          16          17          18
    1  -0.0000393   0.0000202   0.0000181   0.0000591   0.0000125  -0.0000018
    2  -0.0000203   0.0002270   0.0001096  -0.0001782  -0.0000345   0.0000007
    3  -0.0000470  -0.0000179   0.0000264  -0.0000751  -0.0000003   0.0000331
           19          20          21          22          23          24
    1   0.0000153  -0.0000003   0.0000200  -0.0000231  -0.0000138   0.0000220
    2  -0.0000091  -0.0000150   0.0000265  -0.0000053   0.0000083  -0.0000060
    3  -0.0000180   0.0000171  -0.0000480  -0.0000174   0.0000459  -0.0000009
           25          26          27          28          29
    1   0.0000076   0.0000032   0.0000057  -0.0000129   0.0000011
    2   0.0000020  -0.0000062   0.0000157  -0.0000178  -0.0000245
    3   0.0000070   0.0000094   0.0000119  -0.0000289  -0.0000141
 Max gradient component =       8.848E-04
 RMS gradient           =       2.027E-04
 Gradient time:  CPU 249.92 s  wall 17.91 s
 Geometry Optimization Parameters
   NAtoms,    NIC,     NZ,  NCons,   NDum,   NFix, NCnnct, MaxDiis
       29     227       0       0       0       0       0       0

 Cartesian Hessian Update
 Hessian Updated using BFGS Update


** GEOMETRY OPTIMIZATION IN DELOCALIZED INTERNAL COORDINATES **
   Searching for a Minimum

   Optimization Cycle:   2

                       Coordinates (Angstroms)
     ATOM                X               Y               Z
      1  C        -0.5556679561   -0.9296986473    0.4660450802
      2  C        -0.6222150846    0.6078643151    0.7849897028
      3  C         0.7759343730   -1.4582998291   -0.0380733666
      4  C         0.6066254683    1.4439410339    0.4909723835
      5  O         1.7585152675   -1.1658079266    0.8407548753
      6  O         0.9461215586   -2.0977516311   -1.0440666809
      7  O         1.1040018133    1.2100021164   -0.7363692158
      8  O         1.0594350697    2.2648932349    1.2527469771
      9  C         2.2637512552    1.9718082079   -1.1127216367
     10  C         3.0853063450   -1.5760343721    0.4643289487
     11  C        -1.7025276310   -1.0850620444   -0.5601700527
     12  C        -3.0576491304   -1.0138157865    0.1771733879
     13  C        -3.1407025322    0.5095623586    0.5026022756
     14  C        -1.8249864536    1.0167688581   -0.1303257842
     15  O        -1.6658800321    0.1654354287   -1.2665151548
     16  H        -0.7630614403   -1.4902155240    1.3820823585
     17  H        -0.8473878432    0.7833416842    1.8352452644
     18  H         2.0400268007    3.0394766916   -1.1019493508
     19  H         3.3630982337   -1.1203554848   -0.4874393908
     20  H        -1.5661611394   -1.9058785327   -1.2577413850
     21  H        -3.8652042981   -1.3227988260   -0.4875251814
     22  H        -3.0867722492   -1.6472029515    1.0660759583
     23  H        -3.9963163295    0.9759852132    0.0122361179
     24  H        -3.2040756723    0.7239540218    1.5710528423
     25  H        -1.8226534659    2.0589241267   -0.4432602402
     26  H         3.0881238373    1.7727468484   -0.4256125427
     27  H         2.5106570143    1.6407479965   -2.1188231799
     28  H         3.1390803591   -2.6617282374    0.3711561957
     29  H         3.7346623726   -1.2258767227    1.2634351042
   Point Group: c1    Number of degrees of freedom:    81


   Energy is   -765.862627850

 Hessian Updated using BFGS Update

 75 Hessian modes will be used to form the next step
  Hessian Eigenvalues:
     0.002778    0.004919    0.006978    0.007422    0.010500    0.010652
     0.010922    0.022075    0.022217    0.022949    0.024850    0.026802
     0.031364    0.037018    0.039805    0.040920    0.044583    0.050385
     0.052123    0.054927    0.056317    0.056772    0.058931    0.062932
     0.064445    0.064752    0.073663    0.075184    0.093083    0.096231
     0.096951    0.101359    0.101453    0.105987    0.106108    0.117778
     0.126956    0.159931    0.159984    0.160847    0.170176    0.235922
     0.238102    0.247374    0.249722    0.249751    0.249995    0.251580
     0.258234    0.272003    0.280194    0.304779    0.308371    0.339362
     0.343817    0.345984    0.346303    0.346415    0.346756    0.346947
     0.347068    0.347075    0.347403    0.350032    0.350297    0.350949
     0.350969    0.351454    0.353020    0.397397    0.398964    0.549728
     0.561826    1.008952    1.027896

 Minimum Search - Taking Simple RFO Step
 Searching for Lamda that Minimizes Along All modes
 Value Taken    Lamda =  -0.00001584
 Step Taken.  Stepsize is  0.037801

                             Maximum     Tolerance    Cnvgd?
         Gradient           0.000366      0.000001      NO
         Displacement       0.013952      0.000001      NO
         Energy change     -0.000002      0.000000      NO


 New Cartesian Coordinates Obtained by Inverse Iteration

 Displacement from previous Coordinates is:  0.082283
 Adding empirical dispersion correction 
 ----------------------------------------------------------------
 Doing -D3(op) with
 s6 =   1.00000
 s8 =   0.78311
 a1 =   0.30000
 a2 =   4.25000
 n  =  10.00000
 -D3 energy without 3body term =     -0.0315666303 hartrees
 ----------------------------------------------------------------
             Standard Nuclear Orientation (Angstroms)
    I     Atom           X                Y                Z
 ----------------------------------------------------------------
    1      C      -0.5537670491    -0.9297874963     0.4667002371
    2      C      -0.6221342139     0.6081522165     0.7831849518
    3      C       0.7776442846    -1.4554348583    -0.0408436660
    4      C       0.6081207937     1.4432245279     0.4924002660
    5      O       1.7593101088    -1.1720115820     0.8419289486
    6      O       0.9468775641    -2.0937810425    -1.0476820455
    7      O       1.1020685495     1.2164323286    -0.7376290862
    8      O       1.0602796401     2.2630045953     1.2558151043
    9      C       2.2600485777     1.9812700639    -1.1132191778
   10      C       3.0852932555    -1.5854177964     0.4661320196
   11      C      -1.7021767175    -1.0879118932    -0.5574906731
   12      C      -3.0564601885    -1.0136334820     0.1813447695
   13      C      -3.1402661383     0.5114133680     0.4988538064
   14      C      -1.8236024799     1.0153091868    -0.1345499023
   15      O      -1.6651636701     0.1602139421    -1.2679929843
   16      H      -0.7587720048    -1.4889792666     1.3840538032
   17      H      -0.8494382672     0.7844380622     1.8328556251
   18      H       2.0355164468     3.0486827537    -1.0961675308
   19      H       3.3670827953    -1.1251192363    -0.4822185851
   20      H      -1.5670737649    -1.9107835996    -1.2528673228
   21      H      -3.8650253386    -1.3270356480    -0.4800344971
   22      H      -3.0834113255    -1.6420507140     1.0738409726
   23      H      -3.9948561953     0.9752592084     0.0042729189
   24      H      -3.2058154395     0.7313218340     1.5660621883
   25      H      -1.8202697942     2.0565654660    -0.4504581282
   26      H       3.0866084461     1.7791810614    -0.4296289081
   27      H       2.5043156060     1.6557955402    -2.1217942705
   28      H       3.1349327392    -2.6707378748     0.3666354375
   29      H       3.7342122900    -1.2426540447     1.2688000390
 ----------------------------------------------------------------
 Nuclear Repulsion Energy =  1124.5702677275 hartrees
 There are       57 alpha and       57 beta electrons
 Applying Cartesian multipole field
    Component          Value
    ---------          -----
     (2,0,0)        1.00000E-11
     (0,2,0)        2.00000E-11
     (0,0,2)       -3.00000E-11
 Nucleus-field energy     =     0.0000000234 hartrees
 Requested basis set is 6-311++G(d,p)
 There are 160 shells and 428 basis functions
 A cutoff of  1.0D-11 yielded  10692 shell pairs
 There are     78207 function pairs (     83544 Cartesian)
 Smallest overlap matrix eigenvalue = 1.21E-06

 Q-Chem warning in module /fs/scratch/osu6415/qchem-kaunlao-vdw/stvman/mkSTV.C, line 281:

 Overlap eigenvalue is smaller than square root of threshold

 Guess MOs from SCF MO coefficient file
 Reading MOs from coefficient file
 Reading MOs from coefficient file
 A restricted hybrid HF-DFT SCF calculation will be
 performed using Pulay DIIS extrapolation
 Exchange:     0.2000 Hartree-Fock + 0.0800 Slater + 0.7200 B88
 Correlation:  0.1900 VWN1RPA + 0.8100 LYP
 Using SG-1 standard quadrature grid
 Dispersion:   Grimme D3
 SCF converges when DIIS error is below 1.0E-08
 Geometry optimization detected.  Setting ReadMinima to 0
 Setting SaveMinima to 0
 using 20 threads for integral computing
 -------------------------------------------------------
 OpenMP Integral computing Module                
 Release: version 1.0, May 2013, Q-Chem Inc. Pittsburgh 
 -------------------------------------------------------
 -------------------------------------------------------
 OpenMP BLAS3 based DFT computing Module                
 Release: version 1.0, May 2013, Q-Chem Inc. Pittsburgh 
 -------------------------------------------------------
 ---------------------------------------
  Cycle       Energy         DIIS Error
 ---------------------------------------
    1    -765.8639371925      1.13E-04
    2    -765.8626241984      1.44E-05
    3    -765.8626225773      1.86E-05
    4    -765.8626290059      4.39E-06
    5    -765.8626292400      2.16E-06
    6    -765.8626293179      5.38E-07
    7    -765.8626293219      2.47E-07
    8    -765.8626293226      4.85E-08
    9    -765.8626293223      1.97E-08
   10    -765.8626293194      1.00E-08
   11    -765.8626293223      2.91E-09 Convergence criterion met
 ---------------------------------------
 SCF time:  CPU 543.37 s  wall 28.89 s
 SCF   energy in the final basis set = -765.86262932
 Total energy in the final basis set = -765.86262932
 
 --------------------------------------------------------------
 
                    Orbital Energies (a.u.)
 --------------------------------------------------------------
 
 Alpha MOs
 -- Occupied --
-19.177 -19.174 -19.132 -19.120 -19.116 -10.310 -10.307 -10.240
-10.232 -10.231 -10.230 -10.208 -10.207 -10.183 -10.182  -1.121
 -1.114  -1.065  -1.032  -1.028  -0.833  -0.786  -0.777  -0.739
 -0.730  -0.659  -0.608  -0.598  -0.578  -0.567  -0.551  -0.520
 -0.506  -0.496  -0.490  -0.484  -0.476  -0.473  -0.463  -0.432
 -0.427  -0.425  -0.411  -0.399  -0.385  -0.376  -0.372  -0.368
 -0.363  -0.359  -0.339  -0.338  -0.320  -0.314  -0.291  -0.282
 -0.275
 -- Virtual --
 -0.020  -0.012  -0.006   0.000   0.007   0.011   0.014   0.019
  0.026   0.035   0.037   0.040   0.044   0.046   0.054   0.056
  0.067   0.072   0.079   0.086   0.087   0.095   0.096   0.099
  0.105   0.108   0.110   0.113   0.116   0.118   0.125   0.128
  0.131   0.132   0.135   0.137   0.142   0.146   0.148   0.151
  0.154   0.157   0.159   0.162   0.165   0.169   0.173   0.174
  0.181   0.184   0.185   0.191   0.196   0.202   0.206   0.208
  0.212   0.214   0.223   0.227   0.228   0.240   0.243   0.249
  0.257   0.265   0.267   0.269   0.277   0.281   0.290   0.293
  0.297   0.299   0.309   0.313   0.316   0.320   0.322   0.329
  0.335   0.338   0.339   0.352   0.355   0.356   0.362   0.366
  0.366   0.367   0.379   0.382   0.387   0.393   0.397   0.407
  0.411   0.416   0.423   0.433   0.445   0.455   0.478   0.489
  0.496   0.499   0.502   0.521   0.528   0.535   0.543   0.554
  0.563   0.567   0.585   0.592   0.593   0.607   0.616   0.623
  0.640   0.641   0.653   0.657   0.663   0.672   0.677   0.680
  0.688   0.698   0.700   0.714   0.719   0.724   0.736   0.739
  0.740   0.752   0.755   0.766   0.772   0.781   0.796   0.803
  0.816   0.825   0.831   0.847   0.879   0.892   0.939   0.955
  0.974   0.985   1.006   1.028   1.041   1.061   1.068   1.092
  1.110   1.119   1.138   1.153   1.160   1.184   1.196   1.202
  1.207   1.229   1.237   1.249   1.259   1.271   1.286   1.298
  1.308   1.327   1.342   1.349   1.359   1.377   1.393   1.408
  1.423   1.433   1.439   1.445   1.463   1.465   1.502   1.515
  1.521   1.528   1.540   1.549   1.557   1.562   1.572   1.585
  1.586   1.595   1.605   1.625   1.634   1.653   1.672   1.677
  1.684   1.699   1.706   1.712   1.719   1.731   1.750   1.757
  1.767   1.797   1.803   1.804   1.817   1.830   1.838   1.863
  1.867   1.881   1.897   1.905   1.920   1.941   1.954   1.961
  1.981   2.004   2.011   2.019   2.043   2.045   2.073   2.100
  2.110   2.125   2.136   2.140   2.162   2.171   2.174   2.196
  2.210   2.237   2.252   2.277   2.295   2.340   2.372   2.432
  2.454   2.455   2.469   2.471   2.491   2.507   2.512   2.521
  2.527   2.546   2.560   2.572   2.584   2.600   2.615   2.647
  2.663   2.678   2.711   2.725   2.743   2.762   2.770   2.798
  2.809   2.831   2.845   2.847   2.851   2.874   2.882   2.906
  2.917   2.921   2.949   2.970   2.995   3.014   3.028   3.040
  3.053   3.066   3.074   3.093   3.114   3.130   3.144   3.154
  3.187   3.209   3.225   3.239   3.248   3.262   3.299   3.338
  3.349   3.383   3.388   3.399   3.446   3.591   3.596   3.649
  3.686   3.713   3.778   3.780   3.831   3.853   3.914   3.936
  4.013   4.040   4.058   4.070   4.088   4.126   4.140   4.156
  4.168   4.210   4.247   4.397   4.494   5.030   5.093   5.139
  5.179   5.200   5.239   5.264   5.404   5.423   5.500   5.598
  5.635   5.646   5.866   5.884  23.824  23.836  23.849  23.883
 23.899  23.929  23.940  23.946  23.972  24.048  49.901  49.935
 49.961  50.030  50.038
 --------------------------------------------------------------
 
          Ground-State Mulliken Net Atomic Charges

     Atom                 Charge (a.u.)
  ----------------------------------------
      1 C                    -0.022369
      2 C                     0.633128
      3 C                    -0.545228
      4 C                    -0.741866
      5 O                    -0.023198
      6 O                    -0.208271
      7 O                    -0.028681
      8 O                    -0.176544
      9 C                    -0.224035
     10 C                    -0.206555
     11 C                    -0.074994
     12 C                    -0.444606
     13 C                    -0.514433
     14 C                    -0.017035
     15 O                    -0.135276
     16 H                     0.236032
     17 H                     0.285114
     18 H                     0.175948
     19 H                     0.181591
     20 H                     0.277788
     21 H                     0.188226
     22 H                     0.125442
     23 H                     0.184659
     24 H                     0.123083
     25 H                     0.257330
     26 H                     0.185574
     27 H                     0.170508
     28 H                     0.174694
     29 H                     0.163971
  ----------------------------------------
  Sum of atomic charges =     0.000000

 -----------------------------------------------------------------
                    Cartesian Multipole Moments
 -----------------------------------------------------------------
    Charge (ESU x 10^10)
                 0.0000
    Dipole Moment (Debye)
         X      -0.1565      Y      -0.5575      Z       1.1503
       Tot       1.2878
    Quadrupole Moments (Debye-Ang)
        XX     -74.3630     XY      -0.6350     YY     -91.2879
        XZ      -5.5584     YZ     -10.0419     ZZ     -95.3785
    Octopole Moments (Debye-Ang^2)
       XXX      45.1006    XXY      -5.0601    XYY      -1.1212
       YYY       0.4192    XXZ      -2.8715    XYZ     -17.5062
       YYZ     -11.0089    XZZ       5.2205    YZZ      -1.4863
       ZZZ      -1.1439
    Hexadecapole Moments (Debye-Ang^3)
      XXXX   -1997.8057   XXXY     -39.7550   XXYY    -515.0389
      XYYY     -23.4827   YYYY   -1180.2361   XXXZ      21.3301
      XXYZ     -26.6652   XYYZ      -4.1638   YYYZ     -79.5507
      XXZZ    -433.3092   XYZZ       4.8802   YYZZ    -290.9228
      XZZZ     -14.2488   YZZZ     -24.7265   ZZZZ    -460.6450
 -----------------------------------------------------------------
 Calculating analytic gradient of the SCF energy
 Gradient of SCF Energy
            1           2           3           4           5           6
    1   0.0001047   0.0000706   0.0001883   0.0000979  -0.0000105  -0.0000731
    2   0.0001062  -0.0002407   0.0004119  -0.0001784  -0.0003231  -0.0001444
    3  -0.0000020   0.0000125   0.0000012  -0.0000647   0.0000790   0.0000234
            7           8           9          10          11          12
    1  -0.0000420  -0.0000897  -0.0000436  -0.0000616  -0.0000856   0.0000610
    2   0.0002114   0.0000680   0.0000136  -0.0000311  -0.0000239  -0.0000249
    3  -0.0000856  -0.0000228   0.0000517  -0.0000150  -0.0000006   0.0000557
           13          14          15          16          17          18
    1  -0.0000978   0.0000426  -0.0000098  -0.0001091   0.0000546   0.0000203
    2   0.0000252   0.0001159   0.0000774  -0.0000877  -0.0000197   0.0000011
    3  -0.0000942   0.0000305  -0.0000133   0.0000081  -0.0000009   0.0000154
           19          20          21          22          23          24
    1  -0.0000200   0.0000058   0.0000120  -0.0000058  -0.0000200   0.0000129
    2   0.0000063   0.0000151   0.0000302   0.0000170   0.0000133  -0.0000108
    3  -0.0000132  -0.0000055  -0.0000387  -0.0000088   0.0000506   0.0000018
           25          26          27          28          29
    1  -0.0000197   0.0000008   0.0000004   0.0000141   0.0000024
    2   0.0000160  -0.0000192   0.0000187  -0.0000119  -0.0000313
    3   0.0000461   0.0000135   0.0000020  -0.0000224  -0.0000037
 Max gradient component =       4.119E-04
 RMS gradient           =       8.601E-05
 Gradient time:  CPU 248.88 s  wall 18.47 s
 Geometry Optimization Parameters
   NAtoms,    NIC,     NZ,  NCons,   NDum,   NFix, NCnnct, MaxDiis
       29     227       0       0       0       0       0       0

 Cartesian Hessian Update
 Hessian Updated using BFGS Update


** GEOMETRY OPTIMIZATION IN DELOCALIZED INTERNAL COORDINATES **
   Searching for a Minimum

   Optimization Cycle:   3

                       Coordinates (Angstroms)
     ATOM                X               Y               Z
      1  C        -0.5537670491   -0.9297874963    0.4667002371
      2  C        -0.6221342139    0.6081522165    0.7831849518
      3  C         0.7776442846   -1.4554348583   -0.0408436660
      4  C         0.6081207937    1.4432245279    0.4924002660
      5  O         1.7593101088   -1.1720115820    0.8419289486
      6  O         0.9468775641   -2.0937810425   -1.0476820455
      7  O         1.1020685495    1.2164323286   -0.7376290862
      8  O         1.0602796401    2.2630045953    1.2558151043
      9  C         2.2600485777    1.9812700639   -1.1132191778
     10  C         3.0852932555   -1.5854177964    0.4661320196
     11  C        -1.7021767175   -1.0879118932   -0.5574906731
     12  C        -3.0564601885   -1.0136334820    0.1813447695
     13  C        -3.1402661383    0.5114133680    0.4988538064
     14  C        -1.8236024799    1.0153091868   -0.1345499023
     15  O        -1.6651636701    0.1602139421   -1.2679929843
     16  H        -0.7587720048   -1.4889792666    1.3840538032
     17  H        -0.8494382672    0.7844380622    1.8328556251
     18  H         2.0355164468    3.0486827537   -1.0961675308
     19  H         3.3670827953   -1.1251192363   -0.4822185851
     20  H        -1.5670737649   -1.9107835996   -1.2528673228
     21  H        -3.8650253386   -1.3270356480   -0.4800344971
     22  H        -3.0834113255   -1.6420507140    1.0738409726
     23  H        -3.9948561953    0.9752592084    0.0042729189
     24  H        -3.2058154395    0.7313218340    1.5660621883
     25  H        -1.8202697942    2.0565654660   -0.4504581282
     26  H         3.0866084461    1.7791810614   -0.4296289081
     27  H         2.5043156060    1.6557955402   -2.1217942705
     28  H         3.1349327392   -2.6707378748    0.3666354375
     29  H         3.7342122900   -1.2426540447    1.2688000390
   Point Group: c1    Number of degrees of freedom:    81


   Energy is   -765.862629322

 Hessian Updated using BFGS Update

 77 Hessian modes will be used to form the next step
  Hessian Eigenvalues:
     0.001810    0.006427    0.006959    0.007761    0.010501    0.010653
     0.010951    0.022077    0.022218    0.022948    0.026103    0.030017
     0.034689    0.038739    0.040781    0.043070    0.049053    0.051438
     0.054180    0.054813    0.056336    0.058562    0.061187    0.062392
     0.064543    0.064684    0.073684    0.075152    0.092888    0.096368
     0.097013    0.101400    0.101454    0.106002    0.106109    0.111115
     0.122207    0.158549    0.159997    0.160003    0.161000    0.167037
     0.235962    0.236923    0.247071    0.249150    0.249746    0.249855
     0.250000    0.250682    0.257992    0.272817    0.280187    0.304727
     0.308429    0.337742    0.343961    0.345987    0.346294    0.346413
     0.346754    0.346948    0.347068    0.347075    0.347403    0.350022
     0.350295    0.350950    0.350971    0.351454    0.353022    0.397435
     0.399015    0.549895    0.561657    1.008960    1.027763

 Minimum Search - Taking Simple RFO Step
 Searching for Lamda that Minimizes Along All modes
 Value Taken    Lamda =  -0.00002553
 Step Taken.  Stepsize is  0.076293

                             Maximum     Tolerance    Cnvgd?
         Gradient           0.000546      0.000001      NO
         Displacement       0.025147      0.000001      NO
         Energy change     -0.000001      0.000000      NO


 New Cartesian Coordinates Obtained by Inverse Iteration

 Displacement from previous Coordinates is:  0.255441
 Adding empirical dispersion correction 
 ----------------------------------------------------------------
 Doing -D3(op) with
 s6 =   1.00000
 s8 =   0.78311
 a1 =   0.30000
 a2 =   4.25000
 n  =  10.00000
 -D3 energy without 3body term =     -0.0316857174 hartrees
 ----------------------------------------------------------------
             Standard Nuclear Orientation (Angstroms)
    I     Atom           X                Y                Z
 ----------------------------------------------------------------
    1      C      -0.5567877227    -0.9336074066     0.4703601981
    2      C      -0.6287535961     0.6052573691     0.7812448721
    3      C       0.7736666539    -1.4517588443    -0.0469944822
    4      C       0.6069453720     1.4359377103     0.5014902207
    5      O       1.7607266458    -1.1564772731     0.8257871755
    6      O       0.9393011317    -2.0927289996    -1.0527227957
    7      O       1.1119449314     1.2049615992    -0.7231981721
    8      O       1.0541368459     2.2560106867     1.2675076143
    9      C       2.2761765358     1.9649844197    -1.0892002975
   10      C       3.0866470076    -1.5609222923     0.4399754044
   11      C      -1.7095178438    -1.0986630814    -0.5478613688
   12      C      -3.0623114176    -1.0118638696     0.1930582955
   13      C      -3.1442965080     0.5177874184     0.4884553791
   14      C      -1.8238097286     1.0090303824    -0.1461970577
   15      O      -1.6678839757     0.1419343508    -1.2708996813
   16      H      -0.7534940520    -1.4894386560     1.3914232393
   17      H      -0.8646558536     0.7844426148     1.8285627697
   18      H       2.0550673786     3.0331814480    -1.0772680807
   19      H       3.3562171813    -1.1027023405    -0.5129037460
   20      H      -1.5790163752    -1.9284310775    -1.2358700877
   21      H      -3.8731456897    -1.3343790656    -0.4611017886
   22      H      -3.0874085962    -1.6269776815     1.0948417737
   23      H      -3.9951555311     0.9765636523    -0.0171679887
   24      H      -3.2144903925     0.7531301988     1.5520977454
   25      H      -1.8146955297     2.0472121715    -0.4719744038
   26      H       3.0952520016     1.7619925424    -0.3969164525
   27      H       2.5294136677     1.6359591212    -2.0944070695
   28      H       3.1440815209    -2.6462502410     0.3449646719
   29      H       3.7399244483    -1.2092592364     1.2352184230
 ----------------------------------------------------------------
 Nuclear Repulsion Energy =  1125.4727356698 hartrees
 There are       57 alpha and       57 beta electrons
 Applying Cartesian multipole field
    Component          Value
    ---------          -----
     (2,0,0)        1.00000E-11
     (0,2,0)        2.00000E-11
     (0,0,2)       -3.00000E-11
 Nucleus-field energy     =     0.0000000234 hartrees
 Requested basis set is 6-311++G(d,p)
 There are 160 shells and 428 basis functions
 A cutoff of  1.0D-11 yielded  10696 shell pairs
 There are     78252 function pairs (     83595 Cartesian)
 Smallest overlap matrix eigenvalue = 1.21E-06

 Q-Chem warning in module /fs/scratch/osu6415/qchem-kaunlao-vdw/stvman/mkSTV.C, line 281:

 Overlap eigenvalue is smaller than square root of threshold

 Guess MOs from SCF MO coefficient file
 Reading MOs from coefficient file
 Reading MOs from coefficient file
 A restricted hybrid HF-DFT SCF calculation will be
 performed using Pulay DIIS extrapolation
 Exchange:     0.2000 Hartree-Fock + 0.0800 Slater + 0.7200 B88
 Correlation:  0.1900 VWN1RPA + 0.8100 LYP
 Using SG-1 standard quadrature grid
 Dispersion:   Grimme D3
 SCF converges when DIIS error is below 1.0E-08
 Geometry optimization detected.  Setting ReadMinima to 0
 Setting SaveMinima to 0
 using 20 threads for integral computing
 -------------------------------------------------------
 OpenMP Integral computing Module                
 Release: version 1.0, May 2013, Q-Chem Inc. Pittsburgh 
 -------------------------------------------------------
 -------------------------------------------------------
 OpenMP BLAS3 based DFT computing Module                
 Release: version 1.0, May 2013, Q-Chem Inc. Pittsburgh 
 -------------------------------------------------------
 ---------------------------------------
  Cycle       Energy         DIIS Error
 ---------------------------------------
    1    -765.8703461960      2.97E-04
    2    -765.8625709802      4.68E-05
    3    -765.8625411958      6.36E-05
    4    -765.8626183822      1.79E-05
    5    -765.8626229919      5.60E-06
    6    -765.8626235013      1.32E-06
    7    -765.8626235282      6.33E-07
    8    -765.8626235346      1.59E-07
    9    -765.8626235348      4.25E-08
   10    -765.8626235332      2.30E-08
   11    -765.8626235334      7.94E-09 Convergence criterion met
 ---------------------------------------
 SCF time:  CPU 551.83 s  wall 28.61 s
 SCF   energy in the final basis set = -765.86262353
 Total energy in the final basis set = -765.86262353
 
 --------------------------------------------------------------
 
                    Orbital Energies (a.u.)
 --------------------------------------------------------------
 
 Alpha MOs
 -- Occupied --
-19.176 -19.174 -19.132 -19.120 -19.117 -10.310 -10.307 -10.240
-10.232 -10.232 -10.230 -10.208 -10.207 -10.183 -10.182  -1.121
 -1.114  -1.065  -1.032  -1.028  -0.833  -0.786  -0.777  -0.739
 -0.730  -0.659  -0.608  -0.598  -0.578  -0.567  -0.551  -0.521
 -0.506  -0.496  -0.490  -0.484  -0.476  -0.473  -0.463  -0.432
 -0.427  -0.425  -0.411  -0.399  -0.385  -0.376  -0.372  -0.368
 -0.363  -0.359  -0.339  -0.338  -0.321  -0.313  -0.291  -0.283
 -0.276
 -- Virtual --
 -0.020  -0.012  -0.007   0.000   0.007   0.011   0.014   0.019
  0.026   0.035   0.037   0.040   0.044   0.046   0.054   0.056
  0.068   0.072   0.079   0.086   0.087   0.095   0.096   0.099
  0.105   0.107   0.110   0.113   0.116   0.118   0.125   0.128
  0.131   0.132   0.135   0.137   0.142   0.146   0.148   0.151
  0.154   0.158   0.159   0.163   0.165   0.169   0.173   0.174
  0.180   0.184   0.185   0.191   0.196   0.203   0.206   0.208
  0.213   0.213   0.224   0.227   0.228   0.241   0.243   0.249
  0.257   0.265   0.267   0.269   0.277   0.281   0.290   0.293
  0.297   0.299   0.309   0.314   0.316   0.320   0.322   0.329
  0.336   0.338   0.340   0.352   0.355   0.356   0.361   0.366
  0.366   0.367   0.378   0.381   0.386   0.392   0.397   0.406
  0.412   0.416   0.423   0.432   0.445   0.455   0.478   0.490
  0.497   0.499   0.502   0.522   0.527   0.535   0.545   0.555
  0.562   0.567   0.586   0.591   0.593   0.607   0.616   0.623
  0.640   0.641   0.653   0.657   0.662   0.673   0.676   0.680
  0.688   0.698   0.700   0.714   0.720   0.725   0.737   0.739
  0.740   0.752   0.755   0.766   0.771   0.781   0.797   0.803
  0.816   0.826   0.831   0.849   0.878   0.893   0.938   0.956
  0.974   0.984   1.006   1.027   1.040   1.061   1.070   1.089
  1.108   1.121   1.137   1.154   1.162   1.184   1.196   1.201
  1.207   1.229   1.237   1.249   1.258   1.271   1.286   1.300
  1.307   1.327   1.345   1.349   1.360   1.378   1.395   1.410
  1.426   1.433   1.439   1.445   1.462   1.464   1.502   1.515
  1.520   1.529   1.540   1.550   1.557   1.563   1.571   1.586
  1.587   1.595   1.606   1.625   1.634   1.653   1.673   1.677
  1.684   1.700   1.707   1.712   1.719   1.732   1.749   1.757
  1.766   1.798   1.804   1.804   1.817   1.830   1.839   1.864
  1.868   1.881   1.898   1.905   1.920   1.940   1.954   1.962
  1.981   2.003   2.012   2.020   2.043   2.045   2.073   2.099
  2.112   2.126   2.135   2.140   2.161   2.171   2.175   2.197
  2.209   2.238   2.253   2.277   2.296   2.340   2.373   2.432
  2.454   2.456   2.469   2.471   2.492   2.506   2.513   2.521
  2.528   2.548   2.559   2.572   2.585   2.601   2.616   2.647
  2.663   2.678   2.711   2.725   2.744   2.761   2.770   2.799
  2.809   2.832   2.845   2.848   2.852   2.873   2.882   2.906
  2.918   2.922   2.949   2.969   2.996   3.014   3.028   3.040
  3.054   3.066   3.075   3.093   3.115   3.130   3.145   3.154
  3.185   3.211   3.226   3.239   3.249   3.262   3.300   3.336
  3.350   3.383   3.388   3.399   3.446   3.591   3.597   3.649
  3.686   3.715   3.778   3.781   3.831   3.855   3.913   3.936
  4.014   4.038   4.057   4.072   4.089   4.127   4.141   4.155
  4.168   4.210   4.247   4.397   4.494   5.025   5.096   5.137
  5.186   5.199   5.239   5.265   5.406   5.424   5.500   5.599
  5.634   5.646   5.866   5.885  23.824  23.836  23.850  23.884
 23.900  23.929  23.940  23.946  23.972  24.048  49.900  49.936
 49.961  50.030  50.039
 --------------------------------------------------------------
 
          Ground-State Mulliken Net Atomic Charges

     Atom                 Charge (a.u.)
  ----------------------------------------
      1 C                     0.015419
      2 C                     0.594922
      3 C                    -0.557954
      4 C                    -0.718176
      5 O                    -0.023456
      6 O                    -0.209500
      7 O                    -0.031049
      8 O                    -0.178294
      9 C                    -0.226416
     10 C                    -0.208084
     11 C                    -0.094096
     12 C                    -0.431044
     13 C                    -0.530141
     14 C                     0.001228
     15 O                    -0.136348
     16 H                     0.236806
     17 H                     0.284956
     18 H                     0.175801
     19 H                     0.183148
     20 H                     0.277091
     21 H                     0.187660
     22 H                     0.126001
     23 H                     0.184986
     24 H                     0.122394
     25 H                     0.257969
     26 H                     0.186846
     27 H                     0.170525
     28 H                     0.174770
     29 H                     0.164035
  ----------------------------------------
  Sum of atomic charges =     0.000000

 -----------------------------------------------------------------
                    Cartesian Multipole Moments
 -----------------------------------------------------------------
    Charge (ESU x 10^10)
                 0.0000
    Dipole Moment (Debye)
         X      -0.1421      Y      -0.5335      Z       1.1486
       Tot       1.2744
    Quadrupole Moments (Debye-Ang)
        XX     -74.2532     XY      -0.5717     YY     -91.3462
        XZ      -5.6008     YZ     -10.0596     ZZ     -95.4885
    Octopole Moments (Debye-Ang^2)
       XXX      45.5448    XXY      -4.6484    XYY      -1.1482
       YYY       0.8698    XXZ      -3.0947    XYZ     -17.1226
       YYZ     -11.0218    XZZ       5.1707    YZZ      -1.4005
       ZZZ      -1.0566
    Hexadecapole Moments (Debye-Ang^3)
      XXXX   -2004.4346   XXXY     -40.9637   XXYY    -514.8188
      XYYY     -25.2313   YYYY   -1170.7926   XXXZ      21.7852
      XXYZ     -27.1989   XYYZ      -3.5732   YYYZ     -82.7831
      XXZZ    -434.3250   XYZZ       3.5378   YYZZ    -289.0699
      XZZZ     -13.3105   YZZZ     -28.9734   ZZZZ    -457.9016
 -----------------------------------------------------------------
 Calculating analytic gradient of the SCF energy
 Gradient of SCF Energy
            1           2           3           4           5           6
    1   0.0005454  -0.0003914  -0.0000165   0.0004598  -0.0002133   0.0000315
    2   0.0000171  -0.0001330   0.0006436  -0.0005651   0.0002491  -0.0001404
    3   0.0000308  -0.0000075  -0.0001717   0.0000935  -0.0001880  -0.0000373
            7           8           9          10          11          12
    1   0.0000184  -0.0001020   0.0000085   0.0000313  -0.0003283   0.0000506
    2  -0.0003138   0.0001726   0.0000528  -0.0000629  -0.0001126  -0.0000301
    3   0.0003167   0.0000033   0.0000323  -0.0000436  -0.0001043   0.0000811
           13          14          15          16          17          18
    1  -0.0001160   0.0002400  -0.0001684  -0.0001933   0.0001291   0.0000111
    2   0.0000927  -0.0001611  -0.0001460   0.0001765   0.0000237   0.0000055
    3  -0.0001358  -0.0000176  -0.0000769   0.0000890   0.0000496   0.0000104
           19          20          21          22          23          24
    1   0.0000117   0.0000251  -0.0000030  -0.0000104  -0.0000099   0.0000195
    2  -0.0000010   0.0000834   0.0000557   0.0000489   0.0000588  -0.0000230
    3   0.0000047  -0.0000606  -0.0000283  -0.0000065   0.0000596   0.0000283
           25          26          27          28          29
    1  -0.0000418   0.0000273   0.0000009  -0.0000079  -0.0000081
    2   0.0000418  -0.0000103   0.0000118  -0.0000161  -0.0000185
    3   0.0001002  -0.0000000   0.0000207  -0.0000160  -0.0000261
 Max gradient component =       6.436E-04
 RMS gradient           =       1.636E-04
 Gradient time:  CPU 247.33 s  wall 17.21 s
 Geometry Optimization Parameters
   NAtoms,    NIC,     NZ,  NCons,   NDum,   NFix, NCnnct, MaxDiis
       29     227       0       0       0       0       0       0

 Cartesian Hessian Update
 Hessian Updated using BFGS Update


** GEOMETRY OPTIMIZATION IN DELOCALIZED INTERNAL COORDINATES **
   Searching for a Minimum

   Optimization Cycle:   4

                       Coordinates (Angstroms)
     ATOM                X               Y               Z
      1  C        -0.5567877227   -0.9336074066    0.4703601981
      2  C        -0.6287535961    0.6052573691    0.7812448721
      3  C         0.7736666539   -1.4517588443   -0.0469944822
      4  C         0.6069453720    1.4359377103    0.5014902207
      5  O         1.7607266458   -1.1564772731    0.8257871755
      6  O         0.9393011317   -2.0927289996   -1.0527227957
      7  O         1.1119449314    1.2049615992   -0.7231981721
      8  O         1.0541368459    2.2560106867    1.2675076143
      9  C         2.2761765358    1.9649844197   -1.0892002975
     10  C         3.0866470076   -1.5609222923    0.4399754044
     11  C        -1.7095178438   -1.0986630814   -0.5478613688
     12  C        -3.0623114176   -1.0118638696    0.1930582955
     13  C        -3.1442965080    0.5177874184    0.4884553791
     14  C        -1.8238097286    1.0090303824   -0.1461970577
     15  O        -1.6678839757    0.1419343508   -1.2708996813
     16  H        -0.7534940520   -1.4894386560    1.3914232393
     17  H        -0.8646558536    0.7844426148    1.8285627697
     18  H         2.0550673786    3.0331814480   -1.0772680807
     19  H         3.3562171813   -1.1027023405   -0.5129037460
     20  H        -1.5790163752   -1.9284310775   -1.2358700877
     21  H        -3.8731456897   -1.3343790656   -0.4611017886
     22  H        -3.0874085962   -1.6269776815    1.0948417737
     23  H        -3.9951555311    0.9765636523   -0.0171679887
     24  H        -3.2144903925    0.7531301988    1.5520977454
     25  H        -1.8146955297    2.0472121715   -0.4719744038
     26  H         3.0952520016    1.7619925424   -0.3969164525
     27  H         2.5294136677    1.6359591212   -2.0944070695
     28  H         3.1440815209   -2.6462502410    0.3449646719
     29  H         3.7399244483   -1.2092592364    1.2352184230
   Point Group: c1    Number of degrees of freedom:    81


   Energy is   -765.862623533

 Hessian Updated using BFGS Update

 79 Hessian modes will be used to form the next step
  Hessian Eigenvalues:
     0.002041    0.006702    0.006799    0.010494    0.010550    0.010675
     0.011088    0.022195    0.022251    0.022946    0.026822    0.031207
     0.034992    0.039324    0.040760    0.043830    0.049061    0.051686
     0.054515    0.055985    0.056845    0.057299    0.060478    0.064406
     0.064464    0.065876    0.073711    0.075493    0.093074    0.095815
     0.098608    0.101377    0.101462    0.105994    0.106109    0.115819
     0.137120    0.159973    0.159996    0.159999    0.160279    0.165389
     0.179530    0.235728    0.243640    0.247907    0.249297    0.249740
     0.249941    0.250000    0.250335    0.257871    0.260345    0.276366
     0.280290    0.306388    0.309204    0.340612    0.343757    0.345998
     0.346297    0.346416    0.346755    0.346948    0.347069    0.347077
     0.347403    0.350025    0.350296    0.350949    0.350972    0.352654
     0.353043    0.397549    0.399123    0.550172    0.562579    1.009072
     1.027797

 Minimum Search - Taking Simple RFO Step
 Searching for Lamda that Minimizes Along All modes
 Value Taken    Lamda =  -0.00003240
 Step Taken.  Stepsize is  0.038484

                             Maximum     Tolerance    Cnvgd?
         Gradient           0.001313      0.000001      NO
         Displacement       0.012279      0.000001      NO
         Energy change      0.000006      0.000000      NO


 New Cartesian Coordinates Obtained by Inverse Iteration

 Displacement from previous Coordinates is:  0.128966
 Adding empirical dispersion correction 
 ----------------------------------------------------------------
 Doing -D3(op) with
 s6 =   1.00000
 s8 =   0.78311
 a1 =   0.30000
 a2 =   4.25000
 n  =  10.00000
 -D3 energy without 3body term =     -0.0316145565 hartrees
 ----------------------------------------------------------------
             Standard Nuclear Orientation (Angstroms)
    I     Atom           X                Y                Z
 ----------------------------------------------------------------
    1      C      -0.5554269313    -0.9321223091     0.4697161056
    2      C      -0.6254406940     0.6072179813     0.7818825454
    3      C       0.7750645331    -1.4558415095    -0.0424064813
    4      C       0.6075616647     1.4403847700     0.4972386013
    5      O       1.7601619152    -1.1656507718     0.8344061438
    6      O       0.9421661109    -2.0948254656    -1.0491377139
    7      O       1.1049067466     1.2149832908    -0.7317061719
    8      O       1.0602818869     2.2562395090     1.2644927651
    9      C       2.2674362173     1.9759185467    -1.1011832410
   10      C       3.0859136604    -1.5742089575     0.4524396134
   11      C      -1.7055155497    -1.0944108427    -0.5516002756
   12      C      -3.0594307445    -1.0127455959     0.1875542895
   13      C      -3.1418928789     0.5149360687     0.4925186325
   14      C      -1.8231584336     1.0116286705    -0.1417498936
   15      O      -1.6652574294     0.1491567820    -1.2696699863
   16      H      -0.7559609158    -1.4887531870     1.3894471015
   17      H      -0.8583244254     0.7855279129     1.8300150975
   18      H       2.0471396559     3.0441907186    -1.0826639231
   19      H       3.3603748494    -1.1154126752    -0.4987759222
   20      H      -1.5728139951    -1.9216075600    -1.2423027998
   21      H      -3.8690829844    -1.3312803632    -0.4700180992
   22      H      -3.0858468833    -1.6337175886     1.0852894546
   23      H      -3.9941428115     0.9757893224    -0.0088455892
   24      H      -3.2104061974     0.7439469631     1.5576433064
   25      H      -1.8164805098     2.0508660412    -0.4641972750
   26      H       3.0904965352     1.7690608198    -0.4148003438
   27      H       2.5143396114     1.6515684360    -2.1094787542
   28      H       3.1396544040    -2.6595777821     0.3556830300
   29      H       3.7377621030    -1.2263356049     1.2505140936
 ----------------------------------------------------------------
 Nuclear Repulsion Energy =  1124.8812346640 hartrees
 There are       57 alpha and       57 beta electrons
 Applying Cartesian multipole field
    Component          Value
    ---------          -----
     (2,0,0)        1.00000E-11
     (0,2,0)        2.00000E-11
     (0,0,2)       -3.00000E-11
 Nucleus-field energy     =     0.0000000234 hartrees
 Requested basis set is 6-311++G(d,p)
 There are 160 shells and 428 basis functions
 A cutoff of  1.0D-11 yielded  10695 shell pairs
 There are     78240 function pairs (     83581 Cartesian)
 Smallest overlap matrix eigenvalue = 1.21E-06

 Q-Chem warning in module /fs/scratch/osu6415/qchem-kaunlao-vdw/stvman/mkSTV.C, line 281:

 Overlap eigenvalue is smaller than square root of threshold

 Guess MOs from SCF MO coefficient file
 Reading MOs from coefficient file
 Reading MOs from coefficient file
 A restricted hybrid HF-DFT SCF calculation will be
 performed using Pulay DIIS extrapolation
 Exchange:     0.2000 Hartree-Fock + 0.0800 Slater + 0.7200 B88
 Correlation:  0.1900 VWN1RPA + 0.8100 LYP
 Using SG-1 standard quadrature grid
 Dispersion:   Grimme D3
 SCF converges when DIIS error is below 1.0E-08
 Geometry optimization detected.  Setting ReadMinima to 0
 Setting SaveMinima to 0
 using 20 threads for integral computing
 -------------------------------------------------------
 OpenMP Integral computing Module                
 Release: version 1.0, May 2013, Q-Chem Inc. Pittsburgh 
 -------------------------------------------------------
 -------------------------------------------------------
 OpenMP BLAS3 based DFT computing Module                
 Release: version 1.0, May 2013, Q-Chem Inc. Pittsburgh 
 -------------------------------------------------------
 ---------------------------------------
  Cycle       Energy         DIIS Error
 ---------------------------------------
    1    -765.8582539909      1.59E-04
    2    -765.8626246946      2.43E-05
    3    -765.8626134639      3.59E-05
    4    -765.8626373627      9.64E-06
    5    -765.8626387307      2.66E-06
    6    -765.8626388478      6.68E-07
    7    -765.8626388551      3.26E-07
    8    -765.8626388566      9.09E-08
[...]
     0.00018118      0.00209433     -0.00061618
     0.44337967     -0.13285411      0.37444923
     0.08043044     -0.11118594     -0.35402208
    -0.00941883      0.28196372      0.01812054
    -0.11836797     -0.06588126     -0.14654237
vibration 69
    -0.00032160     -0.00115136      0.00207101
     0.00012147     -0.00006022     -0.00047403
    -0.00145356     -0.00094176     -0.00195466
    -0.00023051      0.00055013      0.00126388
     0.00243617     -0.00024433      0.00006199
    -0.00013028      0.00048182      0.00074772
     0.00094882      0.00036439     -0.00067801
    -0.00020846     -0.00034277     -0.00030726
     0.01674939      0.01216097      0.00127073
     0.03035797     -0.01436990     -0.02065895
    -0.00004699      0.00004094      0.00000529
     0.00049169      0.00063912     -0.00027522
     0.00024505     -0.00017241     -0.00002446
    -0.00007647     -0.00001082     -0.00001903
     0.00003880     -0.00000059      0.00001584
     0.00527657      0.01374762     -0.02342822
    -0.00086852      0.00105096      0.00506287
     0.05998118     -0.27708057     -0.00705294
    -0.13487112     -0.24627998      0.50116622
     0.00015043     -0.00094686     -0.00076710
    -0.00524843     -0.00198053     -0.00468316
    -0.00005495     -0.00535945      0.00813704
    -0.00260500      0.00145233     -0.00168286
    -0.00009347      0.00042328      0.00205099
     0.00007205      0.00025273     -0.00005002
    -0.22681750      0.06762645     -0.19149889
    -0.04213682      0.05816046      0.18516460
    -0.01898701      0.55168345      0.03667329
    -0.22852310     -0.12737824     -0.28276390
vibration 70
    -0.00807318     -0.02065476      0.03472534
     0.00135650     -0.00071958     -0.00499769
     0.00010783     -0.00006928      0.00110313
     0.00006858      0.00011113     -0.00010596
    -0.00005813      0.00003422     -0.00005101
    -0.00002358     -0.00018712     -0.00023738
     0.00000490      0.00001169     -0.00000485
    -0.00003649     -0.00002653     -0.00000601
     0.00009503      0.00006629      0.00000881
    -0.00100839      0.00045403      0.00055997
    -0.00075444     -0.00141581     -0.00076808
     0.02759873      0.03641473     -0.01801432
    -0.02343399      0.01684397      0.01615684
     0.00002100     -0.00221130      0.00059528
     0.00005430      0.00001038     -0.00010099
     0.09828869      0.24423861     -0.41892743
    -0.01407940      0.00912622      0.06033075
     0.00030462     -0.00160403     -0.00003805
     0.00419952      0.00701350     -0.01450219
     0.00041526      0.01384796      0.00966093
    -0.31226140     -0.11279059     -0.26590079
    -0.00221142     -0.31270173      0.47764160
     0.25329286     -0.13276311      0.16206035
     0.01587067     -0.06938536     -0.35263399
    -0.00102062      0.02615758     -0.00712044
    -0.00117037      0.00033359     -0.00098751
    -0.00018716      0.00028972      0.00092415
     0.00066372     -0.01617864     -0.00101634
     0.00672451      0.00376740      0.00842925
vibration 71
     0.01259074      0.03323756     -0.05652446
    -0.00126343      0.00056693      0.00606977
    -0.00013538      0.00012134     -0.00160598
    -0.00008041     -0.00014495      0.00010045
     0.00009376     -0.00005883      0.00006475
     0.00007188      0.00028955      0.00037549
    -0.00000220     -0.00000348     -0.00001525
     0.00004387      0.00000985     -0.00000681
    -0.00011009     -0.00013931     -0.00001118
     0.00114620     -0.00060047     -0.00052894
     0.00079194     -0.00066004     -0.00093293
     0.01199336      0.00954401      0.00078244
    -0.02687089      0.01970362      0.01635869
     0.00058976     -0.00229986      0.00045707
    -0.00003107     -0.00029823      0.00016005
    -0.15934033     -0.39572472      0.67983547
     0.01681025     -0.00972854     -0.07140431
    -0.00053319      0.00276515      0.00009430
    -0.00453197     -0.00724649      0.01508378
    -0.00185037      0.01235405      0.00837100
    -0.13736005     -0.05154108     -0.11238145
    -0.00070984     -0.06542458      0.10323999
     0.29296577     -0.15379221      0.18699523
     0.01591198     -0.07545471     -0.37823407
    -0.00175669      0.02459712     -0.00600609
     0.00143526     -0.00039190      0.00120308
     0.00026627     -0.00037975     -0.00124124
    -0.00079605      0.01864086      0.00116451
    -0.00725538     -0.00411743     -0.00921689
vibration 72
     0.00400952      0.01109388     -0.01929243
    -0.00134793      0.00080194      0.00467875
    -0.00010926      0.00003193     -0.00051045
    -0.00012653     -0.00014904      0.00007451
     0.00009608     -0.00002557      0.00004221
     0.00008022      0.00008635      0.00014582
     0.00003623      0.00000095      0.00000123
     0.00006120      0.00007780      0.00002795
    -0.00029532     -0.00030120      0.00000304
     0.00006992     -0.00011321      0.00011858
    -0.00036866     -0.00188068     -0.00194751
     0.02740975      0.03480866     -0.01335186
     0.03369638     -0.02574931     -0.02028142
    -0.00070954      0.00507812     -0.00183916
    -0.00008047     -0.00011761      0.00031646
    -0.05400605     -0.13433544      0.23127333
     0.01314479     -0.00861630     -0.05606637
    -0.00113616      0.00559867      0.00013721
    -0.00002962      0.00019752     -0.00037248
    -0.00204749      0.03079523      0.02259728
    -0.31553617     -0.11555583     -0.26660804
    -0.00117402     -0.28121051      0.42795560
    -0.37030604      0.19408015     -0.23653747
    -0.01908103      0.09586301      0.47350903
     0.00231185     -0.06767759      0.01959193
     0.00371533     -0.00103683      0.00306335
     0.00068747     -0.00096724     -0.00304956
    -0.00006125      0.00160320      0.00007424
    -0.00048728     -0.00033696     -0.00074272
vibration 73
    -0.00106505     -0.00276046      0.00433635
    -0.00096197      0.00057245      0.00427147
    -0.00007672      0.00008436      0.00009077
     0.00009793      0.00014435      0.00017293
     0.00002755      0.00000597      0.00000792
     0.00003130     -0.00004860     -0.00003288
    -0.00002390     -0.00001142     -0.00000315
    -0.00002321     -0.00001396     -0.00003977
    -0.00000381      0.00013319     -0.00003489
    -0.00004834      0.00020513     -0.00003659
     0.00069583     -0.00276901     -0.00140852
     0.03362087     -0.00649059      0.05765659
    -0.02940083      0.00849078     -0.05957074
    -0.00063336     -0.00571610      0.00114374
     0.00000338      0.00017538     -0.00001467
     0.01192017      0.03172194     -0.05468951
     0.01285298     -0.00849614     -0.05008405
     0.00030585     -0.00171052     -0.00006091
    -0.00004086     -0.00019775      0.00041335
    -0.00401568      0.02865096      0.02292943
    -0.41310104     -0.16028070     -0.33042089
     0.01388192      0.24199559     -0.35628219
     0.38523113     -0.20356571      0.22647671
    -0.03460327      0.10382458      0.48345357
     0.00062560      0.06495616     -0.01998145
    -0.00002560     -0.00001988      0.00003268
    -0.00017790      0.00014055      0.00053372
     0.00012755     -0.00238551     -0.00018734
     0.00029211      0.00017765      0.00034090
vibration 74
     0.00021952      0.00033477     -0.00079720
    -0.00643078      0.00425261      0.02692684
     0.00022566     -0.00022523     -0.00010818
     0.00037215      0.00049194      0.00072830
    -0.00005104      0.00001305      0.00000194
    -0.00004573      0.00006610      0.00009482
     0.00000665     -0.00003535     -0.00008275
    -0.00008642     -0.00014555     -0.00022699
     0.00098459     -0.00098446      0.00053733
     0.00002109     -0.00037279      0.00014521
    -0.00094551      0.00315292      0.00119050
    -0.03112969      0.00770808     -0.05550340
    -0.02791038      0.00843021     -0.05395935
    -0.00079403     -0.01036523      0.00236409
     0.00013333     -0.00020109      0.00029989
    -0.00057680     -0.00450903      0.00960782
     0.07723274     -0.05042520     -0.31794196
    -0.00203828      0.00939904      0.00057098
     0.00041892      0.00077847     -0.00172885
     0.00388284     -0.02863565     -0.02264091
     0.38565032      0.15246321      0.30956654
    -0.01240160     -0.24326953      0.35401192
     0.36651507     -0.19598847      0.21598907
    -0.03054040      0.09465797      0.42813952
     0.00095025      0.11648119     -0.03569297
    -0.00922870      0.00242149     -0.00774574
    -0.00012958     -0.00008781      0.00078390
    -0.00018670      0.00378841      0.00034569
    -0.00031016     -0.00018352     -0.00025034
vibration 75
    -0.00007120     -0.00014724      0.00015049
     0.00031111     -0.00026979     -0.00062411
     0.00017123      0.00008654      0.00004132
    -0.00014676      0.00013344     -0.00009356
    -0.00006751      0.00010228     -0.00009149
    -0.00003858      0.00002270     -0.00004692
    -0.00025175      0.00025001     -0.00012213
    -0.00005314      0.00011441     -0.00006884
     0.05031958     -0.06551342      0.03567226
    -0.00289532     -0.02591151      0.01460568
     0.00001864     -0.00001750      0.00008782
     0.00045385     -0.00018929      0.00090665
     0.00021714     -0.00005253      0.00058001
     0.00004483      0.00111242     -0.00035085
    -0.00000428      0.00004236     -0.00001839
     0.00017012      0.00087960     -0.00143561
    -0.00202993      0.00132638      0.00829667
    -0.13720314      0.67220308      0.03477232
     0.04875508      0.08780923     -0.18915465
     0.00012067     -0.00050259     -0.00045596
    -0.00577203     -0.00223629     -0.00455955
     0.00025888      0.00439298     -0.00643259
    -0.00303040      0.00170018     -0.00182108
     0.00036721     -0.00109368     -0.00502460
    -0.00027820     -0.01277800      0.00405940
    -0.47815197      0.13013595     -0.41477284
     0.02134044     -0.02818175     -0.04155374
    -0.00754521      0.22711088      0.02168079
    -0.00697385     -0.00844120     -0.00503536
vibration 76
    -0.00000324     -0.00011724      0.00002540
     0.00042493     -0.00023366     -0.00179351
    -0.00002014      0.00013673     -0.00013517
    -0.00010539     -0.00006649      0.00012342
     0.00008050      0.00031548     -0.00016258
    -0.00000036      0.00012471     -0.00004702
     0.00013962     -0.00006452     -0.00002036
     0.00004968     -0.00003476      0.00000190
    -0.01703642      0.02158093     -0.01163546
    -0.01007434     -0.07802968      0.04399175
    -0.00000599      0.00003012      0.00000983
    -0.00021453      0.00001261     -0.00032287
    -0.00030998      0.00008360     -0.00068128
    -0.00001569     -0.00009255     -0.00001495
     0.00000691      0.00001037      0.00001877
    -0.00049489     -0.00050231      0.00121815
    -0.00482374      0.00325725      0.02075952
     0.04523896     -0.21928036     -0.01115233
     0.15042203      0.26714681     -0.58168283
     0.00004618     -0.00024610     -0.00010898
     0.00263875      0.00106286      0.00213582
    -0.00005845     -0.00122555      0.00173939
     0.00419839     -0.00220588      0.00249238
    -0.00040071      0.00124170      0.00571801
     0.00001223      0.00090840     -0.00030106
     0.16180079     -0.04347365      0.14042174
    -0.00588639      0.00776837      0.00813290
    -0.02151078      0.67452025      0.06293688
    -0.00978946     -0.01948500     -0.00103727
vibration 77
     0.00166155      0.00514466     -0.00744773
     0.01846079     -0.01201281     -0.07523970
    -0.00027022      0.00027537     -0.00002879
    -0.00084726     -0.00143566     -0.00191316
     0.00007976     -0.00001868      0.00004112
     0.00001237      0.00001819      0.00002741
    -0.00017796      0.00005053      0.00035336
     0.00019422      0.00050802      0.00067831
    -0.00015885     -0.00018129      0.00051033
     0.00033212      0.00195367     -0.00097897
     0.00023339      0.00013238     -0.00057422
    -0.00857697      0.00258897     -0.01602576
    -0.01079673      0.00270947     -0.02404529
     0.00035945      0.00517276     -0.00265739
     0.00004139      0.00015818      0.00075087
    -0.02252586     -0.05861559      0.09522348
    -0.21227296      0.14131044      0.89125011
    -0.00039975      0.00347726     -0.00003205
    -0.00376660     -0.00642619      0.01418488
    -0.00121799      0.00510049      0.00463479
     0.10599471      0.04237111      0.08556069
    -0.00359262     -0.07395917      0.10736147
     0.14384816     -0.07668280      0.08593241
    -0.01356500      0.04450823      0.20350862
    -0.00153738     -0.06616985      0.02012727
     0.00040361      0.00017992     -0.00022565
     0.00145220     -0.00162603     -0.00548185
     0.00053296     -0.01660504     -0.00154603
    -0.00046074      0.00000507     -0.00103856
vibration 78
    -0.00019286      0.00162931     -0.00174180
     0.00175890     -0.00099041     -0.00868824
    -0.00015055      0.00006750     -0.00007460
    -0.00029129     -0.00074622      0.00026651
     0.00008918      0.00000479      0.00002180
     0.00007428     -0.00000142      0.00002326
     0.00003527      0.00010616     -0.00016115
     0.00017363      0.00036181      0.00012628
     0.00064620     -0.00073246      0.00052639
    -0.00000580     -0.00002102      0.00025129
     0.00048126     -0.00259699     -0.00325052
     0.00202658      0.00152534      0.00103847
     0.00914487     -0.00370156      0.00637151
    -0.00074608     -0.08095571      0.02564814
     0.00002845     -0.00039085     -0.00026160
    -0.00437168     -0.01155412      0.01926490
    -0.02231773      0.01482406      0.10089922
    -0.00128145      0.00741189      0.00040076
     0.00057224      0.00091276     -0.00199717
    -0.00699234      0.04555387      0.03779459
    -0.01945504     -0.00752131     -0.01602650
    -0.00005172     -0.00133546      0.00307132
    -0.10478038      0.05284374     -0.05961046
     0.00039211     -0.00592230     -0.01732552
     0.00759833      0.93319758     -0.29688735
    -0.00643585      0.00179218     -0.00554451
     0.00052535     -0.00059857     -0.00138402
     0.00006729     -0.00021988     -0.00000661
    -0.00070347     -0.00046175     -0.00092742
vibration 79
     0.00001264      0.00006080      0.00000666
    -0.00000985     -0.00002942     -0.00009500
     0.00076503     -0.00056397     -0.00066169
     0.00014778      0.00010228     -0.00005382
     0.00011891      0.00019080      0.00025964
    -0.00021469      0.00025860      0.00034865
    -0.00000019     -0.00002442     -0.00003975
    -0.00002051     -0.00004268      0.00000012
    -0.00108013      0.00953520      0.01939197
    -0.03708251     -0.03792289     -0.07519292
    -0.00022634      0.00162023      0.00135247
     0.00014439      0.00005059      0.00007949
     0.00006245     -0.00004640     -0.00002208
     0.00000480     -0.00025792      0.00006193
    -0.00000710      0.00001575     -0.00000471
    -0.00038510     -0.00034127      0.00083137
    -0.00021396      0.00021091      0.00086315
     0.01592133     -0.06939298      0.00129026
    -0.07236529     -0.13325309      0.24199857
     0.00294416     -0.01868682     -0.01556473
    -0.00155656     -0.00056533     -0.00115540
    -0.00001888     -0.00003732      0.00012623
    -0.00056668      0.00028562     -0.00032854
    -0.00003413      0.00009528      0.00052859
     0.00000888      0.00258947     -0.00083623
    -0.04867783      0.01692005     -0.03855707
     0.04416448     -0.06107417     -0.19239194
    -0.01397404      0.29366366      0.00607891
     0.52038193      0.29012697      0.64462223
vibration 80
     0.00000939      0.00003491     -0.00001683
     0.00013126     -0.00003071     -0.00032028
     0.00021050     -0.00019205     -0.00026222
    -0.00088972     -0.00085188     -0.00022057
     0.00001557      0.00006504      0.00008502
    -0.00007977      0.00008429      0.00014208
     0.00004125      0.00021012      0.00025759
     0.00030080      0.00036593      0.00021722
     0.00520814     -0.04143700     -0.08198034
    -0.00871637     -0.00910487     -0.01755272
    -0.00013804      0.00091995      0.00075150
     0.00004373      0.00002022      0.00000361
     0.00000073     -0.00001411     -0.00007211
    -0.00000114     -0.00019066      0.00001056
     0.00000327      0.00001788      0.00002117
    -0.00015197     -0.00018638      0.00046834
    -0.00116725      0.00071931      0.00467083
    -0.06922287      0.30339625     -0.00475859
    -0.01662883     -0.03027232      0.05461949
     0.00166862     -0.01041753     -0.00868032
    -0.00041572     -0.00012779     -0.00027403
    -0.00003543     -0.00012256      0.00022401
     0.00025202     -0.00008820      0.00011728
    -0.00009066      0.00016373      0.00085926
    -0.00004273      0.00198269     -0.00070979
     0.19891493     -0.06902276      0.15577809
    -0.18719713      0.25908783      0.81942028
    -0.00333156      0.07048059      0.00167024
     0.12229929      0.06802485      0.15174082
vibration 81
     0.00014033     -0.00041694      0.00128995
     0.00008306      0.00076105      0.00191521
     0.00020883     -0.00069888     -0.00121337
     0.00006801      0.00016026     -0.00000887
    -0.00013280      0.00008578      0.00010456
     0.00031093      0.00029081      0.00053789
    -0.00003347     -0.00000531      0.00003642
    -0.00002543     -0.00006129     -0.00000806
     0.00011008     -0.00033482     -0.00063811
    -0.00098393     -0.00115239     -0.00210923
     0.00952914     -0.06599349     -0.05468085
    -0.00480644     -0.00117396     -0.00267599
    -0.00146485      0.00113721      0.00057431
    -0.00002415      0.00565767     -0.00097414
     0.00000334     -0.00032188      0.00028627
     0.00122100      0.00588346     -0.01227965
     0.00421339     -0.00320794     -0.01927686
    -0.00059577      0.00236758      0.00000008
    -0.00219825     -0.00386553      0.00696685
    -0.11474194      0.75640994      0.63117683
     0.05172114      0.01868637      0.03749026
     0.00143621     -0.00075305     -0.00164511
     0.00993845     -0.00463987      0.00588146
     0.00076496     -0.00109378     -0.00847363
    -0.00049096     -0.04973146      0.01647661
     0.00098705     -0.00042923      0.00077641
    -0.00156056      0.00209562      0.00678444
    -0.00053834      0.00944924      0.00022962
     0.01384414      0.00788349      0.01750055
[INT]
    2.291907
    0.621970
    0.014312
    0.854604
    4.032498
    2.656272
    0.492891
    0.205193
    0.749049
    0.790154
    8.312887
    4.895704
    4.856047
    2.918389
    2.726824
   13.607896
    9.763878
   23.074634
    9.957741
    1.413835
    2.628068
    6.280349
   19.717524
    6.121116
    8.423651
    6.376684
    1.115955
    0.221064
    3.660648
    9.226066
   34.245837
    4.540873
   19.040684
   17.721436
   39.482533
   20.031835
   33.911620
   28.045050
   23.400877
   44.725070
    1.576340
    1.261531
  112.874558
    3.426581
    7.784670
  106.709169
    5.614875
   53.505759
   26.559635
  229.579583
   84.292033
   33.339644
   17.932307
    8.490938
   14.697011
    5.522306
   29.660020
    4.818870
   23.594980
    1.412021
   14.124627
   16.668584
    1.554860
    4.167393
    7.953971
  290.001679
  260.122518
   13.335818
   50.482909
   12.200582
   20.622273
   34.892540
    0.396340
   25.285816
   32.127857
    9.794257
   17.126750
   21.435910
    7.130594
   12.922413
    6.620126

======= END OF MOLDEN-FORMATTED INPUT FILE =======


        *************************************************************
        *                                                           *
        *  Thank you very much for using Q-Chem.  Have a nice day.  *
        *                                                           *
        *************************************************************


