r0104.ten.osc.edu 10.25.153
Q-Chem Developer Version! Running on 10.25.153.*
                  Welcome to Q-Chem
     A Quantum Leap Into The Future Of Chemistry


 Q-Chem 5.0, Q-Chem, Inc., Pleasanton, CA (2017)

 Yihan Shao,  Zhengting Gan,  E. Epifanovsky,  A. T. B. Gilbert,  M. Wormit,  
 J. Kussmann,  A. W. Lange,  A. Behn,  Jia Deng,  Xintian Feng,  D. Ghosh,  
 M. Goldey,  P. R. Horn,  L. D. Jacobson,  I. Kaliman,  T. Kus,  A. Landau,  
 Jie Liu,  E. I. Proynov,  R. M. Richard,  R. P. Steele,  E. J. Sundstrom,  
 H. L. Woodcock III,  P. M. Zimmerman,  D. Zuev,  B. Albrecht,  E. Alguire,  
 S. A. Baeppler,  Z. Benda,  Y. A. Bernard,  E. J. Berquist,  K. B. Bravaya,  
 D. Casanova,  Chun-Min Chang,  Yunqing Chen,  A. Chien,  K. D. Closser,  
 M. P. Coons,  S. Dasgupta,  M. Diedenhofen,  Hainam Do,  R. G. Edgar,  
 Po-Tung Fang,  S. Fatehi,  Qingguo Feng,  Qinghui Ge,  A. Ghysels,  
 J. Gomes,  J. Gonthier,  A. Gunina,  M. W. D. Hanson-Heine,  
 P. H. P. Harbach,  A. W. Hauser,  J. E. Herr,  E. G. Hohenstein,  
 Z. C. Holden,  Kerwin Hui,  T.-C. Jagau,  Hyunjun Ji,  B. Kaduk,  
 K. Khistyaev,  Jaehoon Kim,  P. Klunzinger,  K. Koh,  D. Kosenkov,  
 T. Kowalczyk,  C. M. Krauter,  A. Kunitsa,  Ka Un Lao,  A. Laurent,  
 K. V. Lawler,  Joonho Lee,  D. Lefrancois,  S. Lehtola,  D. S. Levine,  
 Yi-Pei Li,  You-Sheng Lin,  Fenglai Liu,  E. Livshits,  A. Luenser,  
 P. Manohar,  E. Mansoor,  S. F. Manzer,  Shan-Ping Mao,  Yuezhi Mao,  
 N. Mardirossian,  A. V. Marenich,  L. A. Martinez-Martinez,  S. A. Maurer,  
 N. J. Mayhall,  S. C. McKenzie,  J.-M. Mewes,  A. F. Morrison,  K. Nanda,  
 T. S. Nguyen-Beck,  R. Olivares-Amaya,  J. A. Parkhill,  T. M. Perrine,  
 F. Plasser,  S. Prager,  A. Prociuk,  D. R. Rehn,  F. Rob,  M. Schneider,  
 N. Sergueev,  S. M. Sharada,  S. Sharma,  D. W. Small,  T. Stauch,  
 T. Stein,  Yu-Chuan Su,  A. J. W. Thom,  T. Tsuchimochi,  L. Vogt,  
 O. Vydrov,  M. A. Watson,  J. Wenzel,  M. de Wergifosse,  T. A. Wesolowski,  
 A. White,  J. Witte,  A. Yamada,  Jun Yang,  K. Yao,  S. Yeganeh,  
 S. R. Yost,  Zhi-Qiang You,  A. Zech,  Igor Ying Zhang,  Xing Zhang,  
 Yan Zhao,  Ying Zhu,  B. R. Brooks,  G. K. L. Chan,  C. J. Cramer,  
 M. S. Gordon,  W. J. Hehre,  A. Klamt,  M. W. Schmidt,  C. D. Sherrill,  
 D. G. Truhlar,  A. Aspuru-Guzik,  R. Baer,  A. T. Bell,  N. A. Besley,  
 Jeng-Da Chai,  A. Dreuw,  B. D. Dunietz,  T. R. Furlani,  Chao-Ping Hsu,  
 Yousung Jung,  Jing Kong,  D. S. Lambrecht,  WanZhen Liang,  C. Ochsenfeld,  
 V. A. Rassolov,  L. V. Slipchenko,  J. E. Subotnik,  T. Van Voorhis,  
 J. M. Herbert,  A. I. Krylov,  P. M. W. Gill,  M. Head-Gordon

 Contributors to earlier versions of Q-Chem not listed above: 
 R. D. Adamson,  B. Austin,  J. Baker,  G. J. O. Beran,  K. Brandhorst,  
 S. T. Brown,  E. F. C. Byrd,  A. K. Chakraborty,  C.-L. Cheng,  
 Siu Hung Chien,  D. M. Chipman,  D. L. Crittenden,  H. Dachsel,  
 R. A. DiStasio Jr.,  R. J. Doerksen,  A. D. Dutoi,  L. Fusti-Molnar,  
 W. A. Goddard III,  A. Golubeva-Zadorozhnaya,  S. R. Gwaltney,  G. Hawkins,  
 A. Heyden,  S. Hirata,  G. Kedziora,  F. J. Keil,  C. Kelley,  Jihan Kim,  
 R. A. King,  R. Z. Khaliullin,  P. P. Korambath,  W. Kurlancheek,  
 A. M. Lee,  M. S. Lee,  S. V. Levchenko,  Ching Yeh Lin,  D. Liotard,  
 R. C. Lochan,  I. Lotan,  P. E. Maslen,  N. Nair,  D. P. O'Neill,  
 D. Neuhauser,  E. Neuscamman,  C. M. Oana,  R. Olson,  B. Peters,  
 R. Peverati,  P. A. Pieniazek,  Y. M. Rhee,  J. Ritchie,  M. A. Rohrdanz,  
 E. Rosta,  N. J. Russ,  H. F. Schaefer III,  N. E. Schultz,  N. Shenvi,  
 A. C. Simmonett,  A. Sodt,  D. Stuck,  K. S. Thanthiriwatte,  V. Vanovschi,  
 Tao Wang,  A. Warshel,  C. F. Williams,  Q. Wu,  X. Xu,  W. Zhang

 Please cite Q-Chem as follows:
 Y. Shao et al., Mol. Phys. 113, 184-215 (2015)
 DOI: 10.1080/00268976.2014.952696

 Q-Chem 5.0.1 for Intel X86 EM64T Linux

 Parts of Q-Chem use Armadillo 5.200.1 (Boston Tea Smuggler).
 http://arma.sourceforge.net/

 Q-Chem begins on Sun Oct 15 23:06:13 2017  

Host: r0104.ten.osc.edu
0

     Scratch files written to /tmp/pbstmp.1310566/09//
Processing $rem in /users/PAS0291/osu6415/.qchemrc.
molden_format             true

Checking the input file for inconsistencies... 	...done.

--------------------------------------------------------------
User input:
--------------------------------------------------------------
$molecule
0 1
C -0.57355934 0.48413990 -0.85415024
C -0.47697969 -1.00505062 -0.31354623
C 0.67887658 1.31043737 -0.59688873
C 0.87341683 -1.35058020 0.28117452
O 0.61770432 2.00947747 0.54461084
O 1.62542049 1.33433198 -1.34927818
O 1.71255772 -1.75499190 -0.69195277
O 1.17405826 -1.28428792 1.44727378
C 3.07724968 -1.99457215 -0.30260831
C 1.79129255 2.76575304 0.89429089
C -1.84185221 0.95681135 -0.09870673
C -3.08860419 0.26619065 -0.70196586
C -2.97339105 -1.16144705 -0.08260554
C -1.64987271 -1.02906817 0.69999466
O -1.70798884 0.31962161 1.17714622
H -0.70349163 0.47724791 -1.93616200
H -0.64637555 -1.69283738 -1.14264666
H 3.53297904 -1.06692789 0.04687071
H 2.01943127 3.49948319 0.11966101
H -1.91505898 2.03255722 0.03529201
H -3.99692795 0.77140800 -0.37173848
H -3.08053795 0.26367612 -1.79391573
H -3.79581919 -1.36260062 0.60515025
H -2.95164660 -1.95748972 -0.82988201
H -1.50768345 -1.70730611 1.53719390
H 3.12549329 -2.74610521 0.48656660
H 3.57676883 -2.34546913 -1.20252316
H 2.64372342 2.09741039 1.02323989
H 1.54643643 3.25604479 1.83334934
$end

$rem
sym_ignore      true
jobtype         ts
method          b3lyp
basis           6-311++G(d,p)
dft_d           d3_op
mem_total       62000
MEM_STATIC      4000
ao2mo_disk      350000
max_scf_cycles  200
geom_opt_max_cycles 1000
geom_opt_tol_displacement 1
GEOM_OPT_TOL_GRADIENT       1
GEOM_OPT_TOL_ENERGY         1
$end

--------------------------------------------------------------
 Adding empirical dispersion correction 
 ----------------------------------------------------------------
 Doing -D3(op) with
 s6 =   1.00000
 s8 =   0.78311
 a1 =   0.30000
 a2 =   4.25000
 n  =  10.00000
 -D3 energy without 3body term =     -0.0308431700 hartrees
 ----------------------------------------------------------------
             Standard Nuclear Orientation (Angstroms)
    I     Atom           X                Y                Z
 ----------------------------------------------------------------
    1      C      -0.5735593400     0.4841399000    -0.8541502400
    2      C      -0.4769796900    -1.0050506200    -0.3135462300
    3      C       0.6788765800     1.3104373700    -0.5968887300
    4      C       0.8734168300    -1.3505802000     0.2811745200
    5      O       0.6177043200     2.0094774700     0.5446108400
    6      O       1.6254204900     1.3343319800    -1.3492781800
    7      O       1.7125577200    -1.7549919000    -0.6919527700
    8      O       1.1740582600    -1.2842879200     1.4472737800
    9      C       3.0772496800    -1.9945721500    -0.3026083100
   10      C       1.7912925500     2.7657530400     0.8942908900
   11      C      -1.8418522100     0.9568113500    -0.0987067300
   12      C      -3.0886041900     0.2661906500    -0.7019658600
   13      C      -2.9733910500    -1.1614470500    -0.0826055400
   14      C      -1.6498727100    -1.0290681700     0.6999946600
   15      O      -1.7079888400     0.3196216100     1.1771462200
   16      H      -0.7034916300     0.4772479100    -1.9361620000
   17      H      -0.6463755500    -1.6928373800    -1.1426466600
   18      H       3.5329790400    -1.0669278900     0.0468707100
   19      H       2.0194312700     3.4994831900     0.1196610100
   20      H      -1.9150589800     2.0325572200     0.0352920100
   21      H      -3.9969279500     0.7714080000    -0.3717384800
   22      H      -3.0805379500     0.2636761200    -1.7939157300
   23      H      -3.7958191900    -1.3626006200     0.6051502500
   24      H      -2.9516466000    -1.9574897200    -0.8298820100
   25      H      -1.5076834500    -1.7073061100     1.5371939000
   26      H       3.1254932900    -2.7461052100     0.4865666000
   27      H       3.5767688300    -2.3454691300    -1.2025231600
   28      H       2.6437234200     2.0974103900     1.0232398900
   29      H       1.5464364300     3.2560447900     1.8333493400
 ----------------------------------------------------------------
 Nuclear Repulsion Energy =  1117.9666141925 hartrees
 There are       57 alpha and       57 beta electrons
 Requested basis set is 6-311++G(d,p)
 There are 160 shells and 428 basis functions

 Total QAlloc Memory Limit  62000 MB
 Mega-Array Size      3911 MB
 MEM_STATIC part      4000 MB
 A cutoff of  1.0D-11 yielded  10597 shell pairs
 There are     77476 function pairs (     82744 Cartesian)
 
 -------------------------------------------------------
 OpenMP Integral Computing Module                       
 Release: version 1.0, May 2013, Q-Chem Inc. Pittsburgh 
 -------------------------------------------------------
 Integral Job Info:
 Integral job number is                      11
 Integral operator is                         1
 short-range coefficients                     0
 long-range coefficients              100000000
 Omega coefficients                           0
 if combine SR and LR in K                    0
 Integral screening is                        0
 Integral computing path is                   2
 max size of driver memory is            800000
 size of driver memory is                593474
 size of scratch memory is              2361544
 max col of scratch BK array               1296
 max len of scratch array in speh3          155
 max len of scratch index in speh4           18
 max int batch size is                      520
 min int batch size is                       52
 fixed nKL is                                52
 max L of basis functions is                  2
 order of int derivative is                   0
 number of shells is                        160
 number of basis is                         443
 number of cartesian basis is               443
 number of contracted shell pairs         10597
 number of primitive shell pairs          24018
 maxK2 (contraction) of shell pair           36
 max number of K2 of shell pair               1
 max number of CS2 of shell pair           1962
 max number of PS2 of shell pair           3450
 mem total for path MDJ                  142056
 -------------------------------------------------------
 Smallest overlap matrix eigenvalue = 8.28E-07

 Q-Chem warning in module /fs/scratch/osu6415/qchem-kaunlao-vdw/stvman/mkSTV.C, line 281:

 Overlap eigenvalue is smaller than square root of threshold

 Linear dependence detected in AO basis
 Number of orthogonalized atomic orbitals = 427
 Maximum deviation from orthogonality = 6.942E-11

 Scale SEOQF with 1.000000e-01/1.000000e-01/1.000000e-01

 Standard Electronic Orientation quadrupole field applied
 Nucleus-field energy     =     0.0000000245 hartrees
 Guess from superposition of atomic densities
 Warning:  Energy on first SCF cycle will be non-variational
 A restricted hybrid HF-DFT SCF calculation will be
 performed using Pulay DIIS extrapolation
 Exchange:     0.2000 Hartree-Fock + 0.0800 Slater + 0.7200 B88
 Correlation:  0.1900 VWN1RPA + 0.8100 LYP
 Using SG-1 standard quadrature grid
 Dispersion:   Grimme D3
 SCF converges when DIIS error is below 1.0E-08
 using 20 threads for integral computing
 -------------------------------------------------------
 OpenMP Integral computing Module                
 Release: version 1.0, May 2013, Q-Chem Inc. Pittsburgh 
 -------------------------------------------------------
 -------------------------------------------------------
 OpenMP BLAS3 based DFT computing Module                
 Release: version 1.0, May 2013, Q-Chem Inc. Pittsburgh 
 -------------------------------------------------------
 ---------------------------------------
  Cycle       Energy         DIIS Error
 ---------------------------------------
    1    -768.9223125964      3.08E-02
    2    -765.5699244674      3.96E-03
    3    -765.0705996767      6.80E-03
    4    -765.8224892179      1.40E-03
    5    -765.8556783980      4.41E-04
    6    -765.8585772599      1.36E-04
    7    -765.8588682831      4.51E-05
    8    -765.8589029217      1.03E-05
    9    -765.8589049179      2.47E-06
   10    -765.8589050144      1.08E-06
   11    -765.8589050319      3.30E-07
   12    -765.8589050338      1.39E-07
   13    -765.8589050340      5.18E-08
   14    -765.8589050325      1.48E-08
   15    -765.8589050360      3.92E-09 Convergence criterion met
 ---------------------------------------
 SCF time:  CPU 753.19 s  wall 40.92 s
 SCF   energy in the final basis set = -765.85890504
 Total energy in the final basis set = -765.85890504
 
 --------------------------------------------------------------
 
                    Orbital Energies (a.u.)
 --------------------------------------------------------------
 
 Alpha MOs
 -- Occupied --
-19.174 -19.173 -19.129 -19.118 -19.116 -10.307 -10.307 -10.234
-10.232 -10.228 -10.227 -10.209 -10.207 -10.182 -10.181  -1.118
 -1.114  -1.063  -1.029  -1.027  -0.831  -0.784  -0.777  -0.737
 -0.727  -0.655  -0.608  -0.596  -0.576  -0.562  -0.548  -0.519
 -0.500  -0.493  -0.492  -0.483  -0.481  -0.470  -0.460  -0.429
 -0.424  -0.423  -0.408  -0.399  -0.383  -0.370  -0.368  -0.366
 -0.360  -0.358  -0.340  -0.338  -0.319  -0.310  -0.290  -0.280
 -0.272
 -- Virtual --
 -0.018  -0.011  -0.007  -0.002   0.003   0.009   0.014   0.020
  0.032   0.033   0.036   0.039   0.044   0.047   0.050   0.060
  0.070   0.076   0.080   0.087   0.093   0.095   0.097   0.102
  0.106   0.109   0.110   0.111   0.119   0.122   0.127   0.129
  0.132   0.135   0.138   0.140   0.142   0.144   0.147   0.151
  0.152   0.158   0.160   0.161   0.166   0.169   0.172   0.177
  0.180   0.181   0.186   0.189   0.193   0.207   0.208   0.210
  0.214   0.221   0.222   0.224   0.232   0.239   0.246   0.256
  0.262   0.268   0.272   0.280   0.284   0.285   0.292   0.293
  0.299   0.306   0.312   0.312   0.319   0.324   0.327   0.328
  0.333   0.340   0.345   0.347   0.354   0.360   0.364   0.372
  0.376   0.379   0.381   0.385   0.392   0.395   0.399   0.410
  0.413   0.419   0.433   0.439   0.452   0.458   0.467   0.478
  0.487   0.502   0.514   0.526   0.529   0.539   0.546   0.548
  0.570   0.580   0.593   0.603   0.609   0.613   0.623   0.625
  0.634   0.657   0.659   0.663   0.670   0.673   0.679   0.680
  0.693   0.707   0.710   0.718   0.725   0.733   0.747   0.750
  0.756   0.761   0.766   0.768   0.779   0.796   0.798   0.809
  0.825   0.857   0.861   0.881   0.895   0.938   0.964   0.968
  0.972   0.995   1.010   1.024   1.049   1.069   1.085   1.099
  1.118   1.131   1.149   1.158   1.184   1.202   1.207   1.218
  1.226   1.239   1.245   1.253   1.283   1.290   1.302   1.309
  1.332   1.341   1.348   1.368   1.372   1.391   1.397   1.413
  1.428   1.436   1.447   1.462   1.489   1.496   1.508   1.513
  1.523   1.539   1.554   1.555   1.568   1.572   1.578   1.583
  1.586   1.608   1.612   1.629   1.648   1.664   1.676   1.683
  1.708   1.711   1.722   1.732   1.732   1.747   1.762   1.776
  1.782   1.794   1.805   1.824   1.830   1.836   1.852   1.859
  1.876   1.885   1.903   1.925   1.946   1.949   1.959   1.974
  1.993   1.997   2.038   2.047   2.051   2.069   2.105   2.109
  2.123   2.133   2.138   2.157   2.170   2.184   2.198   2.208
  2.221   2.239   2.269   2.310   2.328   2.409   2.434   2.446
  2.461   2.465   2.475   2.496   2.508   2.514   2.516   2.529
  2.538   2.555   2.567   2.573   2.583   2.624   2.639   2.664
  2.675   2.707   2.720   2.733   2.763   2.772   2.785   2.810
  2.828   2.842   2.851   2.869   2.871   2.888   2.896   2.909
  2.926   2.955   2.973   3.001   3.013   3.026   3.038   3.068
  3.078   3.091   3.096   3.105   3.129   3.137   3.175   3.184
  3.196   3.229   3.235   3.248   3.252   3.289   3.318   3.339
  3.376   3.395   3.410   3.451   3.598   3.608   3.636   3.675
  3.761   3.781   3.783   3.841   3.851   3.905   3.934   4.006
  4.046   4.055   4.068   4.100   4.123   4.128   4.153   4.161
  4.226   4.253   4.374   4.502   5.048   5.064   5.112   5.137
  5.195   5.240   5.265   5.404   5.411   5.508   5.603   5.631
  5.675   5.879   5.888  23.831  23.835  23.844  23.877  23.897
 23.928  23.936  23.944  23.970  24.048  49.909  49.929  49.976
 50.026  50.058
 --------------------------------------------------------------
 
          Ground-State Mulliken Net Atomic Charges

     Atom                 Charge (a.u.)
  ----------------------------------------
      1 C                     0.127398
      2 C                    -0.107962
      3 C                    -0.536172
      4 C                    -0.286866
      5 O                     0.009674
      6 O                    -0.178248
      7 O                    -0.001502
      8 O                    -0.189876
      9 C                    -0.187216
     10 C                    -0.184469
     11 C                     0.016652
     12 C                    -0.521326
     13 C                    -0.457518
     14 C                    -0.096298
     15 O                    -0.120509
     16 H                     0.261605
     17 H                     0.278042
     18 H                     0.177336
     19 H                     0.174689
     20 H                     0.270419
     21 H                     0.181270
     22 H                     0.121443
     23 H                     0.189492
     24 H                     0.121433
     25 H                     0.272344
     26 H                     0.168760
     27 H                     0.159157
     28 H                     0.174005
     29 H                     0.164242
  ----------------------------------------
  Sum of atomic charges =    -0.000000

 -----------------------------------------------------------------
                    Cartesian Multipole Moments
 -----------------------------------------------------------------
    Charge (ESU x 10^10)
                -0.0000
    Dipole Moment (Debye)
         X      -0.9086      Y      -0.3102      Z      -1.4463
       Tot       1.7360
    Quadrupole Moments (Debye-Ang)
        XX     -79.8794     XY       0.1920     YY     -79.7245
        XZ       6.0953     YZ       3.7794     ZZ     -97.0523
    Octopole Moments (Debye-Ang^2)
       XXX      32.2044    XXY     -11.4247    XYY      16.8889
       YYY      16.5430    XXZ       4.2057    XYZ      16.8738
       YYZ       8.9732    XZZ      -3.8105    YZZ       2.0997
       ZZZ      -3.6440
    Hexadecapole Moments (Debye-Ang^3)
      XXXX   -1951.7495   XXXY     -57.6296   XXYY    -501.4440
      XYYY      10.4341   YYYY   -1206.0077   XXXZ      -7.3505
      XXYZ      18.7559   XYYZ      10.0467   YYYZ       5.1814
      XXZZ    -444.2071   XYZZ       9.4573   YYZZ    -289.1042
      XZZZ       5.3741   YZZZ       3.7053   ZZZZ    -483.8016
 -----------------------------------------------------------------
 Calculating analytic gradient of the SCF energy
 Gradient of SCF Energy
            1           2           3           4           5           6
    1   0.0004053  -0.0008504   0.0005405   0.0007122  -0.0000613  -0.0004574
    2  -0.0002919   0.0000495  -0.0011325   0.0016357   0.0000041   0.0008658
    3  -0.0020257   0.0018316   0.0011597  -0.0006533  -0.0000416  -0.0005893
            7           8           9          10          11          12
    1  -0.0000448  -0.0003594   0.0000633   0.0000372  -0.0000381   0.0000426
    2   0.0000506  -0.0012002  -0.0000096   0.0000448  -0.0000229  -0.0000602
    3  -0.0000090   0.0002115  -0.0000286   0.0000098   0.0000919  -0.0000105
           13          14          15          16          17          18
    1  -0.0000197  -0.0000345   0.0000140   0.0000348  -0.0000135   0.0000021
    2  -0.0000016   0.0000339  -0.0000187   0.0000169  -0.0000054   0.0000227
    3   0.0000363   0.0001034  -0.0000762  -0.0000049   0.0000079  -0.0000218
           19          20          21          22          23          24
    1  -0.0000221   0.0000123   0.0000050  -0.0000618  -0.0000112   0.0000558
    2   0.0000088  -0.0000005  -0.0000247   0.0000032  -0.0000417  -0.0000014
    3  -0.0000267  -0.0000296   0.0000864   0.0000250   0.0000015   0.0000153
           25          26          27          28          29
    1   0.0000474   0.0000143  -0.0000038  -0.0000029  -0.0000060
    2   0.0000104   0.0000291   0.0000176   0.0000155   0.0000028
    3   0.0000261  -0.0000105  -0.0000219  -0.0000377  -0.0000194
 Max gradient component =       2.026E-03
 RMS gradient           =       4.545E-04
 Gradient time:  CPU 246.24 s  wall 17.98 s
 Geometry Optimization Parameters
   NAtoms,    NIC,     NZ,  NCons,   NDum,   NFix, NCnnct, MaxDiis
       29     227       0       0       0       0       0       0


** GEOMETRY OPTIMIZATION IN DELOCALIZED INTERNAL COORDINATES **
   Searching for a Transition State

   Optimization Cycle:   1

                       Coordinates (Angstroms)
     ATOM                X               Y               Z
      1  C        -0.5735593400    0.4841399000   -0.8541502400
      2  C        -0.4769796900   -1.0050506200   -0.3135462300
      3  C         0.6788765800    1.3104373700   -0.5968887300
      4  C         0.8734168300   -1.3505802000    0.2811745200
      5  O         0.6177043200    2.0094774700    0.5446108400
      6  O         1.6254204900    1.3343319800   -1.3492781800
      7  O         1.7125577200   -1.7549919000   -0.6919527700
      8  O         1.1740582600   -1.2842879200    1.4472737800
      9  C         3.0772496800   -1.9945721500   -0.3026083100
     10  C         1.7912925500    2.7657530400    0.8942908900
     11  C        -1.8418522100    0.9568113500   -0.0987067300
     12  C        -3.0886041900    0.2661906500   -0.7019658600
     13  C        -2.9733910500   -1.1614470500   -0.0826055400
     14  C        -1.6498727100   -1.0290681700    0.6999946600
     15  O        -1.7079888400    0.3196216100    1.1771462200
     16  H        -0.7034916300    0.4772479100   -1.9361620000
     17  H        -0.6463755500   -1.6928373800   -1.1426466600
     18  H         3.5329790400   -1.0669278900    0.0468707100
     19  H         2.0194312700    3.4994831900    0.1196610100
     20  H        -1.9150589800    2.0325572200    0.0352920100
     21  H        -3.9969279500    0.7714080000   -0.3717384800
     22  H        -3.0805379500    0.2636761200   -1.7939157300
     23  H        -3.7958191900   -1.3626006200    0.6051502500
     24  H        -2.9516466000   -1.9574897200   -0.8298820100
     25  H        -1.5076834500   -1.7073061100    1.5371939000
     26  H         3.1254932900   -2.7461052100    0.4865666000
     27  H         3.5767688300   -2.3454691300   -1.2025231600
     28  H         2.6437234200    2.0974103900    1.0232398900
     29  H         1.5464364300    3.2560447900    1.8333493400
   Point Group: c1    Number of degrees of freedom:    81


   Energy is   -765.858905036


 Attempting to Generate Delocalized Internal Coordinates

 81 Hessian modes will be used to form the next step
  Hessian Eigenvalues:
     0.003243    0.006222    0.007132    0.007407    0.010449    0.010457
     0.010596    0.010866    0.022092    0.022643    0.023591    0.026553
     0.030896    0.036730    0.040344    0.041089    0.047887    0.048606
     0.050970    0.053928    0.055348    0.056226    0.058982    0.062514
     0.064239    0.064741    0.073644    0.074979    0.093087    0.093287
     0.097044    0.101361    0.101368    0.106214    0.106239    0.112814
     0.124117    0.158625    0.160000    0.160000    0.160000    0.160000
     0.160000    0.160000    0.167787    0.227809    0.239920    0.246942
     0.249998    0.249999    0.250000    0.250000    0.250000    0.250000
     0.257876    0.275203    0.279850    0.301414    0.308069    0.340131
     0.345765    0.345845    0.346880    0.346938    0.347149    0.347160
     0.347196    0.347466    0.347569    0.348349    0.349482    0.351118
     0.351292    0.351855    0.352169    0.396838    0.396918    0.556426
     0.572200    1.002465    1.018388
**WARNING** Hessian does not have the Desired Local Structure

 Transition State Search - Taking P-RFO Step
 Searching for Lamda that Maximizes Along the Lowest mode
 Value Taken    Lamda =   0.00324324
 Searching for Lamda that Minimizes Along All other modes
 Value Taken    Lamda =  -0.00037520
 Calculated Step too Large.  Step scaled by  0.001464
 Step Taken.  Stepsize is  0.300000

                             Maximum     Tolerance    Cnvgd?
         Gradient           0.000760      0.000001      NO
         Displacement       0.132417      0.000001      NO
         Energy change     *********      0.000000      NO


 New Cartesian Coordinates Obtained by Inverse Iteration

 Displacement from previous Coordinates is:  0.683144
 Adding empirical dispersion correction 
 ----------------------------------------------------------------
 Doing -D3(op) with
 s6 =   1.00000
 s8 =   0.78311
 a1 =   0.30000
 a2 =   4.25000
 n  =  10.00000
 -D3 energy without 3body term =     -0.0308023269 hartrees
 ----------------------------------------------------------------
             Standard Nuclear Orientation (Angstroms)
    I     Atom           X                Y                Z
 ----------------------------------------------------------------
    1      C      -0.5561705882     0.4961464380    -0.8615079487
    2      C      -0.4740849515    -0.9899432999    -0.3103304598
    3      C       0.6873377020     1.3252353505    -0.5719476768
    4      C       0.8808592687    -1.3540871439     0.2625391120
    5      O       0.5933493432     2.0274821076     0.5653456391
    6      O       1.6544349424     1.3484408475    -1.2977510851
    7      O       1.6956084433    -1.7786794083    -0.7226452711
    8      O       1.2034444360    -1.2852358949     1.4226105068
    9      C       3.0629250254    -2.0384042032    -0.3560936126
   10      C       1.7555949061     2.7866515845     0.9453257878
   11      C      -1.8435808905     0.9662596745    -0.1397517057
   12      C      -3.0685560644     0.2303273956    -0.7370317727
   13      C      -2.9639508363    -1.1587661160    -0.0338474209
   14      C      -1.6310905264    -0.9899527518     0.7231878898
   15      O      -1.7040999257     0.3728752467     1.1564231973
   16      H      -0.6565221704     0.4852896489    -1.9466305349
   17      H      -0.6692786011    -1.6804386000    -1.1314691681
   18      H       3.5401097619    -1.1162297197    -0.0210747314
   19      H       2.0040895349     3.5184978616     0.1751893672
   20      H      -1.9402016732     2.0439661221    -0.0409726942
   21      H      -3.9899843291     0.7464677938    -0.4651572461
   22      H      -3.0269552094     0.1643199867    -1.8262233574
   23      H      -3.7797111555    -1.3072785687     0.6749106252
   24      H      -2.9598776107    -1.9993984531    -0.7309123938
   25      H      -1.4703969203    -1.6381255897     1.5806122770
   26      H       3.1129057524    -2.7855217271     0.4371552482
   27      H       3.5403512960    -2.4033672925    -1.2623832667
   28      H       2.6051236491     2.1200550966     1.0999161082
   29      H       1.4839467711     3.2792705344     1.8757585773
 ----------------------------------------------------------------
 Nuclear Repulsion Energy =  1117.7396239121 hartrees
 There are       57 alpha and       57 beta electrons
 Applying Cartesian multipole field
    Component          Value
    ---------          -----
     (2,0,0)        1.00000E-11
     (0,2,0)        2.00000E-11
     (0,0,2)       -3.00000E-11
 Nucleus-field energy     =     0.0000000247 hartrees
 Requested basis set is 6-311++G(d,p)
 There are 160 shells and 428 basis functions
 A cutoff of  1.0D-11 yielded  10591 shell pairs
 There are     77454 function pairs (     82728 Cartesian)
 Smallest overlap matrix eigenvalue = 8.44E-07

 Q-Chem warning in module /fs/scratch/osu6415/qchem-kaunlao-vdw/stvman/mkSTV.C, line 281:

 Overlap eigenvalue is smaller than square root of threshold

 Linear dependence detected in AO basis
 Number of orthogonalized atomic orbitals = 427
 Maximum deviation from orthogonality = 6.359E-11
 Guess MOs from SCF MO coefficient file
 Reading MOs from coefficient file
 Reading MOs from coefficient file
 A restricted hybrid HF-DFT SCF calculation will be
 performed using Pulay DIIS extrapolation
 Exchange:     0.2000 Hartree-Fock + 0.0800 Slater + 0.7200 B88
 Correlation:  0.1900 VWN1RPA + 0.8100 LYP
 Using SG-1 standard quadrature grid
 Dispersion:   Grimme D3
 SCF converges when DIIS error is below 1.0E-08
 Geometry optimization detected.  Setting ReadMinima to 0
 Setting SaveMinima to 0
 using 20 threads for integral computing
 -------------------------------------------------------
 OpenMP Integral computing Module                
 Release: version 1.0, May 2013, Q-Chem Inc. Pittsburgh 
 -------------------------------------------------------
 -------------------------------------------------------
 OpenMP BLAS3 based DFT computing Module                
 Release: version 1.0, May 2013, Q-Chem Inc. Pittsburgh 
 -------------------------------------------------------
 ---------------------------------------
  Cycle       Energy         DIIS Error
 ---------------------------------------
    1    -765.8402876433      8.87E-04
    2    -765.8584088319      1.22E-04
    3    -765.8582445539      1.66E-04
    4    -765.8587153680      4.46E-05
    5    -765.8587415036      1.82E-05
    6    -765.8587467058      5.14E-06
    7    -765.8587471047      1.73E-06
    8    -765.8587471524      4.53E-07
    9    -765.8587471556      1.88E-07
   10    -765.8587471556      6.48E-08
   11    -765.8587471560      1.42E-08
   12    -765.8587471584      5.67E-09 Convergence criterion met
 ---------------------------------------
 SCF time:  CPU 619.93 s  wall 34.57 s
 SCF   energy in the final basis set = -765.85874716
 Total energy in the final basis set = -765.85874716
 
 --------------------------------------------------------------
 
                    Orbital Energies (a.u.)
 --------------------------------------------------------------
 
 Alpha MOs
 -- Occupied --
-19.173 -19.173 -19.128 -19.119 -19.116 -10.307 -10.307 -10.234
-10.232 -10.227 -10.227 -10.209 -10.208 -10.182 -10.181  -1.118
 -1.114  -1.063  -1.029  -1.027  -0.831  -0.784  -0.777  -0.737
 -0.726  -0.655  -0.608  -0.596  -0.576  -0.562  -0.548  -0.519
 -0.500  -0.493  -0.491  -0.482  -0.481  -0.470  -0.460  -0.430
 -0.424  -0.422  -0.408  -0.399  -0.383  -0.370  -0.368  -0.366
 -0.360  -0.358  -0.339  -0.338  -0.318  -0.311  -0.290  -0.280
 -0.272
 -- Virtual --
 -0.017  -0.011  -0.007  -0.002   0.003   0.008   0.014   0.021
  0.032   0.033   0.035   0.039   0.044   0.048   0.050   0.059
  0.070   0.077   0.079   0.087   0.093   0.094   0.097   0.102
  0.106   0.109   0.111   0.111   0.119   0.122   0.127   0.128
  0.131   0.136   0.137   0.139   0.142   0.144   0.147   0.151
  0.153   0.158   0.159   0.161   0.166   0.168   0.173   0.177
  0.181   0.181   0.185   0.188   0.194   0.205   0.206   0.210
  0.214   0.220   0.222   0.224   0.232   0.237   0.249   0.258
  0.263   0.267   0.272   0.281   0.282   0.286   0.291   0.292
  0.298   0.305   0.310   0.312   0.319   0.324   0.326   0.328
  0.334   0.340   0.344   0.346   0.352   0.359   0.363   0.371
  0.376   0.380   0.383   0.387   0.392   0.395   0.401   0.408
  0.414   0.418   0.434   0.442   0.452   0.460   0.467   0.477
  0.488   0.502   0.513   0.526   0.531   0.540   0.545   0.548
  0.570   0.581   0.594   0.602   0.608   0.613   0.625   0.625
  0.635   0.657   0.659   0.663   0.668   0.674   0.678   0.681
  0.692   0.708   0.709   0.717   0.725   0.733   0.747   0.750
  0.755   0.761   0.764   0.768   0.778   0.795   0.797   0.809
  0.825   0.857   0.858   0.881   0.886   0.939   0.964   0.972
  0.977   0.996   1.011   1.027   1.049   1.066   1.084   1.097
  1.119   1.131   1.151   1.156   1.185   1.205   1.207   1.212
  1.222   1.241   1.245   1.254   1.282   1.289   1.302   1.309
  1.324   1.342   1.347   1.363   1.370   1.389   1.399   1.415
  1.425   1.437   1.449   1.462   1.485   1.495   1.502   1.514
  1.526   1.540   1.553   1.557   1.568   1.576   1.580   1.583
  1.587   1.606   1.613   1.627   1.651   1.666   1.677   1.685
  1.709   1.710   1.721   1.730   1.733   1.747   1.761   1.775
  1.782   1.792   1.803   1.823   1.830   1.836   1.850   1.860
  1.879   1.887   1.904   1.921   1.944   1.949   1.956   1.975
  1.994   1.998   2.037   2.043   2.047   2.068   2.105   2.110
  2.121   2.132   2.138   2.160   2.173   2.184   2.199   2.212
  2.222   2.241   2.265   2.312   2.326   2.404   2.433   2.447
  2.459   2.462   2.477   2.497   2.507   2.514   2.516   2.528
  2.538   2.554   2.567   2.577   2.588   2.623   2.639   2.663
  2.673   2.706   2.720   2.735   2.758   2.769   2.783   2.818
  2.827   2.842   2.850   2.868   2.870   2.888   2.895   2.912
  2.920   2.953   2.974   3.000   3.009   3.028   3.038   3.069
  3.074   3.094   3.096   3.108   3.132   3.133   3.173   3.186
  3.196   3.228   3.236   3.247   3.253   3.300   3.322   3.340
  3.377   3.395   3.408   3.451   3.597   3.607   3.640   3.675
  3.758   3.781   3.783   3.840   3.851   3.907   3.933   4.008
  4.046   4.055   4.067   4.095   4.121   4.130   4.151   4.165
  4.227   4.252   4.374   4.500   5.048   5.062   5.103   5.140
  5.198   5.239   5.263   5.403   5.414   5.508   5.602   5.631
  5.675   5.881   5.887  23.831  23.834  23.844  23.876  23.897
 23.928  23.936  23.947  23.965  24.049  49.910  49.927  49.976
 50.028  50.055
 --------------------------------------------------------------
 
          Ground-State Mulliken Net Atomic Charges

     Atom                 Charge (a.u.)
  ----------------------------------------
      1 C                     0.090518
      2 C                    -0.120871
      3 C                    -0.524087
      4 C                    -0.272952
      5 O                     0.008897
      6 O                    -0.178772
      7 O                    -0.005381
      8 O                    -0.189165
      9 C                    -0.184718
     10 C                    -0.183762
     11 C                     0.033657
     12 C                    -0.492186
     13 C                    -0.501918
     14 C                    -0.081436
     15 O                    -0.116316
     16 H                     0.259038
     17 H                     0.278140
     18 H                     0.177579
     19 H                     0.173774
     20 H                     0.271939
     21 H                     0.178547
     22 H                     0.126683
     23 H                     0.191354
     24 H                     0.120830
     25 H                     0.273925
     26 H                     0.168906
     27 H                     0.158942
     28 H                     0.174790
     29 H                     0.164046
  ----------------------------------------
  Sum of atomic charges =    -0.000000

 -----------------------------------------------------------------
                    Cartesian Multipole Moments
 -----------------------------------------------------------------
    Charge (ESU x 10^10)
                -0.0000
    Dipole Moment (Debye)
         X      -0.9792      Y      -0.3717      Z      -1.4518
       Tot       1.7902
    Quadrupole Moments (Debye-Ang)
        XX     -80.3676     XY       0.0377     YY     -79.7815
        XZ       5.8766     YZ       3.7143     ZZ     -96.4426
    Octopole Moments (Debye-Ang^2)
       XXX      30.1212    XXY     -12.5344    XYY      17.0315
       YYY      15.4175    XXZ       3.5668    XYZ      17.6375
       YYZ       8.8279    XZZ      -3.6172    YZZ       1.9311
       ZZZ      -3.1149
    Hexadecapole Moments (Debye-Ang^3)
      XXXX   -1938.8196   XXXY     -55.0001   XXYY    -501.9905
      XYYY      13.5964   YYYY   -1221.6537   XXXZ      -6.2212
      XXYZ      16.8690   XYYZ      11.2573   YYYZ      -2.1748
      XXZZ    -440.9866   XYZZ      12.0335   YYZZ    -291.7824
      XZZZ       5.2547   YZZZ      -6.3621   ZZZZ    -482.8164
 -----------------------------------------------------------------
 Calculating analytic gradient of the SCF energy
 Gradient of SCF Energy
            1           2           3           4           5           6
    1   0.0011009  -0.0016568   0.0005649   0.0005204  -0.0002865  -0.0005682
    2   0.0002833  -0.0004044  -0.0015024   0.0015616  -0.0001479   0.0011480
    3  -0.0011339   0.0010328   0.0002888   0.0000487   0.0004478  -0.0004203
            7           8           9          10          11          12
    1   0.0001208  -0.0002423  -0.0001142   0.0000505  -0.0015566   0.0012833
    2  -0.0000462  -0.0014314  -0.0000602   0.0000684   0.0001721  -0.0004642
    3  -0.0001120   0.0000518  -0.0000655   0.0000773   0.0000352  -0.0008962
           13          14          15          16          17          18
    1  -0.0009913   0.0014431   0.0002215   0.0000636  -0.0000007   0.0000610
    2   0.0003730   0.0004257   0.0001789   0.0001456   0.0000280   0.0000269
    3   0.0011083  -0.0003598  -0.0002539   0.0000474  -0.0000557  -0.0000086
           19          20          21          22          23          24
    1  -0.0000570   0.0000808   0.0001024  -0.0000218  -0.0001236   0.0000630
    2  -0.0000482  -0.0000807   0.0000060  -0.0001403  -0.0001656  -0.0000516
    3  -0.0000333  -0.0000510   0.0002862   0.0000455  -0.0001317   0.0001236
           25          26          27          28          29
    1  -0.0001194   0.0000238  -0.0000023   0.0000257   0.0000147
    2  -0.0000300   0.0000672   0.0000379   0.0000542  -0.0000035
    3   0.0000130   0.0000069  -0.0000269  -0.0000484  -0.0000159
 Max gradient component =       1.657E-03
 RMS gradient           =       5.520E-04
 Gradient time:  CPU 241.46 s  wall 17.55 s
 Geometry Optimization Parameters
   NAtoms,    NIC,     NZ,  NCons,   NDum,   NFix, NCnnct, MaxDiis
       29     227       0       0       0       0       0       0

 Cartesian Hessian Update
 Hessian Updated using Powell/Murtagh-Sargent Update
  Mixing factors:     0.000032 Powell
                      0.999968 Murtagh-Sargent


** GEOMETRY OPTIMIZATION IN DELOCALIZED INTERNAL COORDINATES **
   Searching for a Transition State

   Optimization Cycle:   2

                       Coordinates (Angstroms)
     ATOM                X               Y               Z
      1  C        -0.5561705882    0.4961464380   -0.8615079487
      2  C        -0.4740849515   -0.9899432999   -0.3103304598
      3  C         0.6873377020    1.3252353505   -0.5719476768
      4  C         0.8808592687   -1.3540871439    0.2625391120
      5  O         0.5933493432    2.0274821076    0.5653456391
      6  O         1.6544349424    1.3484408475   -1.2977510851
      7  O         1.6956084433   -1.7786794083   -0.7226452711
      8  O         1.2034444360   -1.2852358949    1.4226105068
      9  C         3.0629250254   -2.0384042032   -0.3560936126
     10  C         1.7555949061    2.7866515845    0.9453257878
     11  C        -1.8435808905    0.9662596745   -0.1397517057
     12  C        -3.0685560644    0.2303273956   -0.7370317727
     13  C        -2.9639508363   -1.1587661160   -0.0338474209
     14  C        -1.6310905264   -0.9899527518    0.7231878898
     15  O        -1.7040999257    0.3728752467    1.1564231973
     16  H        -0.6565221704    0.4852896489   -1.9466305349
     17  H        -0.6692786011   -1.6804386000   -1.1314691681
     18  H         3.5401097619   -1.1162297197   -0.0210747314
     19  H         2.0040895349    3.5184978616    0.1751893672
     20  H        -1.9402016732    2.0439661221   -0.0409726942
     21  H        -3.9899843291    0.7464677938   -0.4651572461
     22  H        -3.0269552094    0.1643199867   -1.8262233574
     23  H        -3.7797111555   -1.3072785687    0.6749106252
     24  H        -2.9598776107   -1.9993984531   -0.7309123938
     25  H        -1.4703969203   -1.6381255897    1.5806122770
     26  H         3.1129057524   -2.7855217271    0.4371552482
     27  H         3.5403512960   -2.4033672925   -1.2623832667
     28  H         2.6051236491    2.1200550966    1.0999161082
     29  H         1.4839467711    3.2792705344    1.8757585773
   Point Group: c1    Number of degrees of freedom:    81


   Energy is   -765.858747158

 Hessian Updated using Powell/Murtagh-Sargent Update
  Mixing factors:     0.999657 Powell
                      0.000343 Murtagh-Sargent

 79 Hessian modes will be used to form the next step
  Hessian Eigenvalues:
     0.001965    0.006602    0.007150    0.007497    0.010449    0.010458
     0.010598    0.010882    0.022092    0.022643    0.023600    0.026556
     0.030897    0.036892    0.040350    0.041089    0.047912    0.048637
     0.050991    0.053947    0.055352    0.056232    0.058990    0.062598
     0.064244    0.064744    0.073644    0.074988    0.093087    0.093302
     0.097045    0.101361    0.101368    0.106214    0.106239    0.112818
     0.124139    0.158635    0.160000    0.160000    0.160000    0.160001
     0.167791    0.227813    0.239920    0.246942    0.249999    0.249999
     0.250000    0.250000    0.250000    0.250020    0.257883    0.275204
     0.279850    0.301416    0.308070    0.340131    0.345765    0.345845
     0.346880    0.346938    0.347149    0.347160    0.347196    0.347466
     0.347569    0.348350    0.349482    0.351118    0.351292    0.351855
     0.352169    0.396838    0.396918    0.556426    0.572199    1.002464
     1.018387
**WARNING** Hessian does not have the Desired Local Structure

 Transition State Search - Taking P-RFO Step
 Searching for Lamda that Maximizes Along the Lowest mode
 Value Taken    Lamda =   0.00199616
 Searching for Lamda that Minimizes Along All other modes
 Value Taken    Lamda =  -0.00062496
 Calculated Step too Large.  Step scaled by  0.037454
 Step Taken.  Stepsize is  0.300000

                             Maximum     Tolerance    Cnvgd?
         Gradient           0.001148      0.000001      NO
         Displacement       0.117011      0.000001      NO
         Energy change      0.000158      0.000000      NO


 New Cartesian Coordinates Obtained by Inverse Iteration

 Displacement from previous Coordinates is:  0.639327
 Adding empirical dispersion correction 
 ----------------------------------------------------------------
 Doing -D3(op) with
 s6 =   1.00000
 s8 =   0.78311
 a1 =   0.30000
 a2 =   4.25000
 n  =  10.00000
 -D3 energy without 3body term =     -0.0307918098 hartrees
 ----------------------------------------------------------------
             Standard Nuclear Orientation (Angstroms)
    I     Atom           X                Y                Z
 ----------------------------------------------------------------
    1      C      -0.5390272971     0.5044004711    -0.8603253853
    2      C      -0.4716630522    -0.9802279118    -0.3062896565
    3      C       0.6990803557     1.3306636102    -0.5378281187
    4      C       0.8870194884    -1.3638222818     0.2434482297
    5      O       0.5635817895     2.0686844286     0.5718931973
    6      O       1.6973616346     1.3218622540    -1.2206297733
    7      O       1.6783816509    -1.8038119605    -0.7537715253
    8      O       1.2327900002    -1.2866132906     1.3963674828
    9      C       3.0488568166    -2.0786459142    -0.4102446016
   10      C       1.7184548670     2.8229727535     0.9826852688
   11      C      -1.8407740623     0.9697027328    -0.1637395505
   12      C      -3.0479023302     0.2018234618    -0.7618101799
   13      C      -2.9569199329    -1.1557603437     0.0027598374
   14      C      -1.6179363050    -0.9657358008     0.7413690595
   15      O      -1.7020929987     0.4051869790     1.1457901998
   16      H      -0.6107453206     0.4944516389    -1.9478059182
   17      H      -0.6911406784    -1.6674907719    -1.1239543392
   18      H       3.5424563239    -1.1609832858    -0.0870143629
   19      H       2.0147545056     3.5268403874     0.2033631010
   20      H      -1.9565226544     2.0475454753    -0.0883250503
   21      H      -3.9813575293     0.7238584159    -0.5483667621
   22      H      -2.9674014818     0.0865796350    -1.8447342391
   23      H      -3.7655904728    -1.2537322873     0.7281954684
   24      H      -2.9755386429    -2.0297134417    -0.6518741766
   25      H      -1.4420349940    -1.5933953990     1.6109909981
   26      H       3.1036707465    -2.8236686552     0.3846919973
   27      H       3.5059582973    -2.4526102958    -1.3233179443
   28      H       2.5488681517     2.1491791128     1.1980883741
   29      H       1.4110325044     3.3483172038     1.8836323599
 ----------------------------------------------------------------
 Nuclear Repulsion Energy =  1117.5879343081 hartrees
 There are       57 alpha and       57 beta electrons
 Applying Cartesian multipole field
    Component          Value
    ---------          -----
     (2,0,0)        1.00000E-11
     (0,2,0)        2.00000E-11
     (0,0,2)       -3.00000E-11
 Nucleus-field energy     =     0.0000000250 hartrees
 Requested basis set is 6-311++G(d,p)
 There are 160 shells and 428 basis functions
 A cutoff of  1.0D-11 yielded  10595 shell pairs
 There are     77486 function pairs (     82759 Cartesian)
 Smallest overlap matrix eigenvalue = 8.62E-07

 Q-Chem warning in module /fs/scratch/osu6415/qchem-kaunlao-vdw/stvman/mkSTV.C, line 281:

 Overlap eigenvalue is smaller than square root of threshold

 Linear dependence detected in AO basis
 Number of orthogonalized atomic orbitals = 427
 Maximum deviation from orthogonality = 7.969E-11
 Guess MOs from SCF MO coefficient file
 Reading MOs from coefficient file
 Reading MOs from coefficient file
 A restricted hybrid HF-DFT SCF calculation will be
 performed using Pulay DIIS extrapolation
 Exchange:     0.2000 Hartree-Fock + 0.0800 Slater + 0.7200 B88
 Correlation:  0.1900 VWN1RPA + 0.8100 LYP
 Using SG-1 standard quadrature grid
 Dispersion:   Grimme D3
 SCF converges when DIIS error is below 1.0E-08
 Geometry optimization detected.  Setting ReadMinima to 0
 Setting SaveMinima to 0
 using 20 threads for integral computing
 -------------------------------------------------------
 OpenMP Integral computing Module                
 Release: version 1.0, May 2013, Q-Chem Inc. Pittsburgh 
 -------------------------------------------------------
 -------------------------------------------------------
 OpenMP BLAS3 based DFT computing Module                
 Release: version 1.0, May 2013, Q-Chem Inc. Pittsburgh 
 -------------------------------------------------------
 ---------------------------------------
  Cycle       Energy         DIIS Error
 ---------------------------------------
    1    -765.8401614969      9.13E-04
    2    -765.8582586937      1.18E-04
    3    -765.8580653975      1.72E-04
    4    -765.8585540180      4.63E-05
    5    -765.8585837680      1.73E-05
    6    -765.8585886028      5.30E-06
    7    -765.8585890215      1.82E-06
    8    -765.8585890757      4.18E-07
    9    -765.8585890784      1.66E-07
   10    -765.8585890789      7.52E-08
   11    -765.8585890797      2.14E-08
   12    -765.8585890816      6.99E-09 Convergence criterion met
 ---------------------------------------
 SCF time:  CPU 620.99 s  wall 33.93 s
 SCF   energy in the final basis set = -765.85858908
 Total energy in the final basis set = -765.85858908
 
 --------------------------------------------------------------
 
                    Orbital Energies (a.u.)
 --------------------------------------------------------------
 
 Alpha MOs
 -- Occupied --
-19.173 -19.173 -19.128 -19.118 -19.116 -10.307 -10.307 -10.234
-10.232 -10.227 -10.226 -10.209 -10.207 -10.182 -10.181  -1.118
 -1.114  -1.063  -1.029  -1.027  -0.831  -0.784  -0.776  -0.737
 -0.726  -0.655  -0.608  -0.596  -0.575  -0.562  -0.548  -0.519
 -0.500  -0.493  -0.491  -0.482  -0.481  -0.469  -0.460  -0.430
 -0.424  -0.421  -0.407  -0.399  -0.382  -0.370  -0.368  -0.366
 -0.360  -0.358  -0.339  -0.338  -0.318  -0.311  -0.289  -0.280
 -0.272
 -- Virtual --
 -0.017  -0.012  -0.006  -0.001   0.003   0.009   0.014   0.021
  0.032   0.033   0.035   0.039   0.045   0.048   0.050   0.059
  0.070   0.076   0.079   0.088   0.092   0.094   0.098   0.101
  0.106   0.109   0.111   0.112   0.120   0.122   0.127   0.129
  0.130   0.136   0.137   0.140   0.142   0.144   0.147   0.150
  0.154   0.158   0.158   0.162   0.165   0.168   0.174   0.176
  0.180   0.182   0.184   0.187   0.194   0.203   0.206   0.211
  0.214   0.219   0.222   0.225   0.232   0.236   0.250   0.259
  0.264   0.266   0.272   0.280   0.284   0.287   0.289   0.290
  0.298   0.305   0.308   0.313   0.319   0.323   0.327   0.329
  0.334   0.340   0.343   0.346   0.350   0.359   0.363   0.370
  0.376   0.381   0.384   0.387   0.393   0.396   0.402   0.407
  0.414   0.419   0.435   0.445   0.451   0.461   0.467   0.476
  0.489   0.501   0.512   0.526   0.531   0.542   0.543   0.546
  0.569   0.581   0.594   0.600   0.607   0.613   0.626   0.627
  0.635   0.656   0.660   0.665   0.665   0.674   0.677   0.681
  0.692   0.706   0.710   0.718   0.724   0.733   0.747   0.750
  0.754   0.761   0.762   0.768   0.777   0.793   0.797   0.807
  0.824   0.853   0.858   0.876   0.885   0.938   0.963   0.972
  0.983   1.000   1.011   1.029   1.049   1.065   1.081   1.096
  1.118   1.133   1.151   1.153   1.187   1.203   1.207   1.211
  1.220   1.240   1.248   1.259   1.277   1.287   1.299   1.304
  1.319   1.342   1.347   1.360   1.367   1.389   1.400   1.416
  1.424   1.438   1.452   1.462   1.480   1.493   1.499   1.517
  1.525   1.540   1.554   1.558   1.570   1.577   1.582   1.585
  1.589   1.607   1.613   1.625   1.653   1.666   1.678   1.687
  1.709   1.711   1.721   1.727   1.734   1.748   1.759   1.770
  1.780   1.792   1.802   1.821   1.833   1.837   1.848   1.862
  1.877   1.889   1.906   1.913   1.939   1.950   1.954   1.978
  1.995   2.002   2.034   2.038   2.046   2.067   2.103   2.111
  2.122   2.124   2.140   2.163   2.175   2.185   2.199   2.215
  2.225   2.245   2.262   2.315   2.324   2.399   2.431   2.449
  2.457   2.459   2.480   2.498   2.505   2.511   2.516   2.529
  2.538   2.553   2.568   2.581   2.594   2.622   2.639   2.660
  2.671   2.709   2.720   2.736   2.752   2.765   2.783   2.823
  2.826   2.841   2.849   2.865   2.872   2.889   2.894   2.914
  2.915   2.950   2.974   2.997   3.007   3.029   3.039   3.069
  3.072   3.093   3.099   3.112   3.126   3.135   3.171   3.184
  3.197   3.227   3.237   3.246   3.257   3.309   3.321   3.346
  3.376   3.396   3.407   3.453   3.597   3.608   3.645   3.675
  3.750   3.782   3.784   3.841   3.852   3.907   3.930   4.008
  4.045   4.055   4.065   4.091   4.120   4.132   4.150   4.169
  4.229   4.251   4.374   4.499   5.044   5.059   5.094   5.150
  5.201   5.239   5.261   5.403   5.415   5.509   5.600   5.633
  5.676   5.883   5.886  23.831  23.834  23.844  23.875  23.897
 23.929  23.935  23.950  23.960  24.049  49.912  49.922  49.977
 50.032  50.050
 --------------------------------------------------------------
 
          Ground-State Mulliken Net Atomic Charges

     Atom                 Charge (a.u.)
  ----------------------------------------
      1 C                     0.053503
      2 C                    -0.137037
      3 C                    -0.514277
      4 C                    -0.268285
      5 O                     0.008655
      6 O                    -0.178281
      7 O                    -0.006969
      8 O                    -0.185454
      9 C                    -0.180131
     10 C                    -0.181258
     11 C                     0.053320
     12 C                    -0.470561
     13 C                    -0.541347
     14 C                    -0.062611
     15 O                    -0.113667
     16 H                     0.256286
     17 H                     0.278144
     18 H                     0.178043
     19 H                     0.173269
     20 H                     0.275136
     21 H                     0.177368
     22 H                     0.130692
     23 H                     0.191668
     24 H                     0.121930
     25 H                     0.275732
     26 H                     0.168353
     27 H                     0.158986
     28 H                     0.175515
     29 H                     0.163278
  ----------------------------------------
  Sum of atomic charges =    -0.000000

 -----------------------------------------------------------------
                    Cartesian Multipole Moments
 -----------------------------------------------------------------
    Charge (ESU x 10^10)
                -0.0000
    Dipole Moment (Debye)
         X      -1.0515      Y      -0.3577      Z      -1.5052
       Tot       1.8707
    Quadrupole Moments (Debye-Ang)
        XX     -80.9720     XY       0.0603     YY     -79.6601
        XZ       5.5763     YZ       3.5335     ZZ     -95.7541
    Octopole Moments (Debye-Ang^2)
       XXX      27.7265    XXY     -13.0725    XYY      17.5502
       YYY      15.4611    XXZ       2.6476    XYZ      17.9542
       YYZ       8.3765    XZZ      -3.0659    YZZ       2.4939
       ZZZ      -3.6140
    Hexadecapole Moments (Debye-Ang^3)
      XXXX   -1929.3540   XXXY     -52.5837   XXYY    -502.5676
      XYYY      18.1058   YYYY   -1239.8066   XXXZ      -3.9071
      XXYZ      14.0630   XYYZ      11.8197   YYYZ     -11.3396
      XXZZ    -437.2790   XYZZ      14.6241   YYZZ    -293.4101
      XZZZ       5.8782   YZZZ     -18.7627   ZZZZ    -478.3109
 -----------------------------------------------------------------
 Calculating analytic gradient of the SCF energy
 Gradient of SCF Energy
            1           2           3           4           5           6
    1   0.0013103  -0.0018910   0.0004186  -0.0000512  -0.0002139  -0.0006067
    2   0.0002716   0.0003394  -0.0016304   0.0003958  -0.0001959   0.0012245
    3  -0.0017658   0.0012044   0.0001135   0.0006318   0.0006933  -0.0004419
            7           8           9          10          11          12
    1   0.0005471  -0.0001190  -0.0001805  -0.0000200  -0.0014348   0.0012427
    2   0.0004721  -0.0010835  -0.0001784   0.0000141  -0.0002489  -0.0002507
    3  -0.0004505  -0.0002494  -0.0001217   0.0001164   0.0001456  -0.0008141
           13          14          15          16          17          18
    1  -0.0009256   0.0015777  -0.0001448   0.0004532  -0.0002451   0.0001219
    2   0.0001545   0.0004775  -0.0001174   0.0001824   0.0002070  -0.0000190
    3   0.0010844  -0.0003422  -0.0000778   0.0000570   0.0000202   0.0000033
           19          20          21          22          23          24
    1  -0.0000148  -0.0000520   0.0000066   0.0002964   0.0000263  -0.0002333
    2  -0.0000139   0.0000204   0.0000695  -0.0001918   0.0001270  -0.0002650
    3  -0.0000290  -0.0000984   0.0000152   0.0002189  -0.0001048   0.0002644
           25          26          27          28          29
    1  -0.0000040   0.0000250   0.0000208   0.0000802   0.0000099
    2   0.0000297   0.0000859   0.0000460   0.0001073  -0.0000300
    3   0.0000046   0.0000206  -0.0000175  -0.0000605  -0.0000200
 Max gradient component =       1.891E-03
 RMS gradient           =       5.704E-04
 Gradient time:  CPU 245.41 s  wall 17.56 s
 Geometry Optimization Parameters
   NAtoms,    NIC,     NZ,  NCons,   NDum,   NFix, NCnnct, MaxDiis
       29     227       0       0       0       0       0       0

 Cartesian Hessian Update
 Hessian Updated using Powell/Murtagh-Sargent Update
  Mixing factors:     0.885100 Powell
                      0.114900 Murtagh-Sargent


** GEOMETRY OPTIMIZATION IN DELOCALIZED INTERNAL COORDINATES **
   Searching for a Transition State

   Optimization Cycle:   3

                       Coordinates (Angstroms)
     ATOM                X               Y               Z
      1  C        -0.5390272971    0.5044004711   -0.8603253853
      2  C        -0.4716630522   -0.9802279118   -0.3062896565
      3  C         0.6990803557    1.3306636102   -0.5378281187
      4  C         0.8870194884   -1.3638222818    0.2434482297
      5  O         0.5635817895    2.0686844286    0.5718931973
      6  O         1.6973616346    1.3218622540   -1.2206297733
      7  O         1.6783816509   -1.8038119605   -0.7537715253
      8  O         1.2327900002   -1.2866132906    1.3963674828
      9  C         3.0488568166   -2.0786459142   -0.4102446016
     10  C         1.7184548670    2.8229727535    0.9826852688
     11  C        -1.8407740623    0.9697027328   -0.1637395505
     12  C        -3.0479023302    0.2018234618   -0.7618101799
     13  C        -2.9569199329   -1.1557603437    0.0027598374
     14  C        -1.6179363050   -0.9657358008    0.7413690595
     15  O        -1.7020929987    0.4051869790    1.1457901998
     16  H        -0.6107453206    0.4944516389   -1.9478059182
     17  H        -0.6911406784   -1.6674907719   -1.1239543392
     18  H         3.5424563239   -1.1609832858   -0.0870143629
     19  H         2.0147545056    3.5268403874    0.2033631010
     20  H        -1.9565226544    2.0475454753   -0.0883250503
     21  H        -3.9813575293    0.7238584159   -0.5483667621
     22  H        -2.9674014818    0.0865796350   -1.8447342391
     23  H        -3.7655904728   -1.2537322873    0.7281954684
     24  H        -2.9755386429   -2.0297134417   -0.6518741766
     25  H        -1.4420349940   -1.5933953990    1.6109909981
     26  H         3.1036707465   -2.8236686552    0.3846919973
     27  H         3.5059582973   -2.4526102958   -1.3233179443
     28  H         2.5488681517    2.1491791128    1.1980883741
     29  H         1.4110325044    3.3483172038    1.8836323599
   Point Group: c1    Number of degrees of freedom:    81


   Energy is   -765.858589082

 Hessian Updated using Powell/Murtagh-Sargent Update
  Mixing factors:     0.999999 Powell
                      0.000001 Murtagh-Sargent

 77 Hessian modes will be used to form the next step
  Hessian Eigenvalues:
     0.000791    0.006831    0.007422    0.007540    0.010451    0.010459
     0.010601    0.011389    0.022092    0.022662    0.023611    0.026567
     0.030897    0.036891    0.040364    0.041090    0.047917    0.048637
     0.050992    0.053947    0.055353    0.056243    0.058993    0.062599
     0.064244    0.064744    0.073646    0.074988    0.093087    0.093303
     0.097050    0.101361    0.101368    0.106214    0.106239    0.112820
     0.124139    0.158636    0.160000    0.160001    0.160003    0.167801
     0.227814    0.239923    0.246942    0.249999    0.250000    0.250000
     0.250003    0.250023    0.257884    0.275205    0.279851    0.301417
     0.308070    0.340133    0.345765    0.345846    0.346880    0.346938
     0.347149    0.347160    0.347197    0.347467    0.347569    0.348350
     0.349482    0.351118    0.351292    0.351855    0.352170    0.396838
     0.396918    0.556430    0.572200    1.002464    1.018388
**WARNING** Hessian does not have the Desired Local Structure

 Transition State Search - Taking P-RFO Step
 Searching for Lamda that Maximizes Along the Lowest mode
 Value Taken    Lamda =   0.00079890
 Searching for Lamda that Minimizes Along All other modes
 Value Taken    Lamda =  -0.00086911
 Calculated Step too Large.  Step scaled by  0.029975
 Step Taken.  Stepsize is  0.300000

                             Maximum     Tolerance    Cnvgd?
         Gradient           0.001206      0.000001      NO
         Displacement       0.118950      0.000001      NO
         Energy change      0.000158      0.000000      NO


 New Cartesian Coordinates Obtained by Inverse Iteration

 Displacement from previous Coordinates is:  0.762285
 Adding empirical dispersion correction 
 ----------------------------------------------------------------
 Doing -D3(op) with
 s6 =   1.00000
 s8 =   0.78311
 a1 =   0.30000
 a2 =   4.25000
 n  =  10.00000
 -D3 energy without 3body term =     -0.0306841180 hartrees
 ----------------------------------------------------------------
             Standard Nuclear Orientation (Angstroms)
    I     Atom           X                Y                Z
 ----------------------------------------------------------------
    1      C      -0.5219066636     0.5237372687    -0.8529275821
    2      C      -0.4589588263    -0.9648272295    -0.3103069037
    3      C       0.7078430331     1.3497321979    -0.4958613383
    4      C       0.9041458879    -1.3630829072     0.2161228438
    5      O       0.5218428466     2.1413535128     0.5681123459
    6      O       1.7418069497     1.2979707826    -1.1214971394
    7      O       1.6602731844    -1.8508314540    -0.7855316911
    8      O       1.2684703568    -1.2876650280     1.3636252610
    9      C       3.0285160774    -2.1593532044    -0.4620947295
   10      C       1.6660591487     2.8926459798     1.0126454618
   11      C      -1.8368902413     0.9737004256    -0.1736211709
   12      C      -3.0260910802     0.1771339104    -0.7749486409
   13      C      -2.9382217416    -1.1579710358     0.0282087014
   14      C      -1.5944350282    -0.9500537709     0.7508806090
   15      O      -1.6923110550     0.4242071688     1.1417796745
   16      H      -0.5704594965     0.5239696174    -1.9418534249
   17      H      -0.6970501310    -1.6439495938    -1.1297578735
   18      H       3.5545344752    -1.2497956761    -0.1686347519
   19      H       2.0262614628     3.5501396656     0.2198656389
   20      H      -1.9734982396     2.0497525265    -0.1088448844
   21      H      -3.9708966438     0.6944794790    -0.6045358611
   22      H      -2.9150642594     0.0303663649    -1.8515741874
   23      H      -3.7391350639    -1.2244633955     0.7659595576
   24      H      -2.9713628202    -2.0519748042    -0.5979909902
   25      H      -1.4018321820    -1.5665130639     1.6250053878
   26      H       3.0766930156    -2.8886569774     0.3477613578
   27      H       3.4562025817    -2.5664956378    -1.3752272992
   28      H       2.4651990089     2.2134523212     1.3128188180
   29      H       1.3158848238     3.4688494774     1.8656668009
 ----------------------------------------------------------------
 Nuclear Repulsion Energy =  1116.5279816673 hartrees
 There are       57 alpha and       57 beta electrons
 Applying Cartesian multipole field
    Component          Value
    ---------          -----
     (2,0,0)        1.00000E-11
     (0,2,0)        2.00000E-11
     (0,0,2)       -3.00000E-11
 Nucleus-field energy     =     0.0000000257 hartrees
 Requested basis set is 6-311++G(d,p)
 There are 160 shells and 428 basis functions
 A cutoff of  1.0D-11 yielded  10570 shell pairs
 There are     77313 function pairs (     82575 Cartesian)
 Smallest overlap matrix eigenvalue = 8.75E-07

 Q-Chem warning in module /fs/scratch/osu6415/qchem-kaunlao-vdw/stvman/mkSTV.C, line 281:

 Overlap eigenvalue is smaller than square root of threshold

 Linear dependence detected in AO basis
 Number of orthogonalized atomic orbitals = 427
 Maximum deviation from orthogonality = 6.371E-11
 Guess MOs from SCF MO coefficient file
 Reading MOs from coefficient file
 Reading MOs from coefficient file
 A restricted hybrid HF-DFT SCF calculation will be
 performed using Pulay DIIS extrapolation
 Exchange:     0.2000 Hartree-Fock + 0.0800 Slater + 0.7200 B88
 Correlation:  0.1900 VWN1RPA + 0.8100 LYP
 Using SG-1 standard quadrature grid
 Dispersion:   Grimme D3
 SCF converges when DIIS error is below 1.0E-08
 Geometry optimization detected.  Setting ReadMinima to 0
 Setting SaveMinima to 0
 using 20 threads for integral computing
 -------------------------------------------------------
 OpenMP Integral computing Module                
 Release: version 1.0, May 2013, Q-Chem Inc. Pittsburgh 
 -------------------------------------------------------
 -------------------------------------------------------
 OpenMP BLAS3 based DFT computing Module                
 Release: version 1.0, May 2013, Q-Chem Inc. Pittsburgh 
 -------------------------------------------------------
 ---------------------------------------
  Cycle       Energy         DIIS Error
 ---------------------------------------
    1    -765.8381274376      1.07E-03
    2    -765.8580600818      1.29E-04
    3    -765.8576997514      2.10E-04
    4    -765.8584232458      4.99E-05
    5    -765.8584595276      1.72E-05
    6    -765.8584644194      5.74E-06
    7    -765.8584649181      2.01E-06
    8    -765.8584649837      4.71E-07
    9    -765.8584649870      1.95E-07
   10    -765.8584649878      9.05E-08
   11    -765.8584649881      2.86E-08
   12    -765.8584649888      7.21E-09 Convergence criterion met
 ---------------------------------------
 SCF time:  CPU 623.82 s  wall 34.37 s
 SCF   energy in the final basis set = -765.85846499
 Total energy in the final basis set = -765.85846499
 
 --------------------------------------------------------------
 
                    Orbital Energies (a.u.)
 --------------------------------------------------------------
 
 Alpha MOs
 -- Occupied --
-19.173 -19.173 -19.128 -19.118 -19.116 -10.307 -10.307 -10.234
-10.232 -10.226 -10.225 -10.209 -10.207 -10.182 -10.180  -1.118
 -1.114  -1.063  -1.028  -1.027  -0.831  -0.784  -0.776  -0.736
 -0.726  -0.655  -0.608  -0.596  -0.575  -0.562  -0.547  -0.519
 -0.500  -0.493  -0.490  -0.482  -0.481  -0.469  -0.460  -0.430
 -0.424  -0.421  -0.407  -0.398  -0.382  -0.370  -0.368  -0.365
 -0.359  -0.357  -0.339  -0.338  -0.316  -0.312  -0.289  -0.280
 -0.271
 -- Virtual --
 -0.017  -0.012  -0.005  -0.000   0.003   0.009   0.014   0.021
  0.032   0.033   0.035   0.039   0.045   0.049   0.051   0.059
  0.069   0.073   0.079   0.088   0.092   0.093   0.098   0.101
  0.105   0.109   0.112   0.112   0.120   0.122   0.126   0.130
  0.130   0.135   0.136   0.140   0.143   0.144   0.148   0.150
  0.154   0.157   0.159   0.163   0.164   0.168   0.174   0.176
  0.180   0.181   0.185   0.188   0.196   0.201   0.204   0.211
  0.214   0.218   0.222   0.225   0.232   0.235   0.251   0.259
  0.264   0.266   0.272   0.280   0.284   0.286   0.289   0.290
  0.298   0.305   0.309   0.312   0.319   0.321   0.327   0.330
  0.333   0.339   0.343   0.348   0.350   0.356   0.362   0.369
  0.375   0.383   0.384   0.389   0.394   0.397   0.402   0.404
  0.413   0.421   0.437   0.446   0.450   0.463   0.468   0.476
  0.491   0.499   0.510   0.528   0.529   0.538   0.541   0.547
  0.570   0.581   0.591   0.599   0.607   0.613   0.627   0.631
  0.635   0.657   0.658   0.664   0.666   0.675   0.677   0.681
  0.691   0.703   0.712   0.718   0.723   0.733   0.747   0.748
  0.753   0.760   0.761   0.769   0.777   0.790   0.796   0.805
  0.823   0.849   0.860   0.868   0.888   0.934   0.958   0.973
  0.983   1.008   1.013   1.030   1.047   1.064   1.074   1.095
  1.114   1.137   1.149   1.153   1.181   1.195   1.205   1.215
  1.221   1.235   1.255   1.264   1.272   1.283   1.294   1.301
  1.318   1.341   1.349   1.362   1.365   1.389   1.400   1.414
  1.424   1.440   1.453   1.460   1.476   1.490   1.501   1.518
  1.522   1.539   1.554   1.558   1.571   1.579   1.583   1.584
  1.595   1.609   1.614   1.624   1.655   1.665   1.678   1.690
  1.708   1.711   1.720   1.725   1.734   1.751   1.756   1.764
  1.778   1.794   1.802   1.819   1.831   1.840   1.846   1.869
  1.875   1.890   1.908   1.911   1.933   1.948   1.953   1.982
  1.999   2.005   2.031   2.033   2.045   2.066   2.100   2.110
  2.119   2.123   2.142   2.165   2.176   2.186   2.198   2.221
  2.228   2.249   2.261   2.316   2.323   2.394   2.429   2.450
  2.453   2.457   2.482   2.499   2.503   2.509   2.516   2.529
  2.538   2.551   2.568   2.583   2.600   2.621   2.639   2.656
  2.670   2.712   2.721   2.732   2.749   2.759   2.783   2.825
  2.826   2.840   2.847   2.861   2.874   2.890   2.893   2.910
  2.917   2.949   2.972   2.995   3.006   3.031   3.040   3.067
  3.071   3.090   3.102   3.115   3.121   3.137   3.171   3.182
  3.199   3.227   3.237   3.247   3.260   3.310   3.323   3.353
  3.376   3.396   3.405   3.455   3.597   3.608   3.649   3.673
  3.735   3.782   3.785   3.841   3.852   3.907   3.928   4.007
  4.042   4.053   4.065   4.089   4.121   4.136   4.149   4.171
  4.231   4.252   4.373   4.499   5.039   5.055   5.084   5.158
  5.206   5.240   5.261   5.404   5.416   5.508   5.599   5.635
  5.674   5.884   5.885  23.832  23.835  23.845  23.874  23.896
 23.928  23.935  23.952  23.957  24.049  49.914  49.917  49.978
 50.035  50.046
 --------------------------------------------------------------
 
          Ground-State Mulliken Net Atomic Charges

     Atom                 Charge (a.u.)
  ----------------------------------------
      1 C                     0.033031
      2 C                    -0.133707
      3 C                    -0.517139
      4 C                    -0.293657
      5 O                     0.006399
      6 O                    -0.178320
      7 O                    -0.008796
      8 O                    -0.180324
      9 C                    -0.172234
     10 C                    -0.181537
     11 C                     0.078994
     12 C                    -0.457586
     13 C                    -0.570867
     14 C                    -0.043413
     15 O                    -0.112119
     16 H                     0.252259
     17 H                     0.280676
     18 H                     0.178221
     19 H                     0.173222
     20 H                     0.278708
     21 H                     0.177298
     22 H                     0.134074
     23 H                     0.191270
     24 H                     0.123001
     25 H                     0.277768
     26 H                     0.167693
     27 H                     0.158213
     28 H                     0.177351
     29 H                     0.161522
  ----------------------------------------
  Sum of atomic charges =    -0.000000

 -----------------------------------------------------------------
                    Cartesian Multipole Moments
 -----------------------------------------------------------------
    Charge (ESU x 10^10)
                -0.0000
    Dipole Moment (Debye)
         X      -1.1345      Y      -0.3104      Z      -1.5859
       Tot       1.9745
    Quadrupole Moments (Debye-Ang)
        XX     -81.6883     XY       0.0345     YY     -79.3177
        XZ       5.1810     YZ       3.3673     ZZ     -95.0030
    Octopole Moments (Debye-Ang^2)
       XXX      24.5128    XXY     -13.9300    XYY      18.6229
       YYY      15.4417    XXZ       1.5079    XYZ      18.0659
       YYZ       8.1184    XZZ      -2.3760    YZZ       3.0605
       ZZZ      -4.4783
    Hexadecapole Moments (Debye-Ang^3)
      XXXX   -1912.8163   XXXY     -47.4528   XXYY    -504.1104
      XYYY      25.4416   YYYY   -1279.3137   XXXZ      -1.8594
      XXYZ      10.4582   XYYZ      11.6432   YYYZ     -21.4135
      XXZZ    -431.3355   XYZZ      18.1364   YYZZ    -297.7385
      XZZZ       6.9692   YZZZ     -33.8020   ZZZZ    -470.5260
 -----------------------------------------------------------------
 Calculating analytic gradient of the SCF energy
 Gradient of SCF Energy
            1           2           3           4           5           6
    1   0.0018403  -0.0025068   0.0004540   0.0015308  -0.0001465  -0.0006117
    2   0.0002637  -0.0010519  -0.0016533   0.0044129  -0.0001207   0.0014859
    3  -0.0019787   0.0018186   0.0002908  -0.0001498   0.0007410  -0.0005699
            7           8           9          10          11          12
    1   0.0000024  -0.0007243  -0.0002797  -0.0001743  -0.0014317   0.0010366
    2  -0.0006687  -0.0026639  -0.0002335  -0.0000666  -0.0004674  -0.0002095
    3  -0.0002360   0.0000250  -0.0001307   0.0000496   0.0004298  -0.0006681
           13          14          15          16          17          18
    1  -0.0007592   0.0015608  -0.0001940   0.0006945  -0.0005087   0.0001018
    2  -0.0001607   0.0006507   0.0000313   0.0002348   0.0000893  -0.0000115
    3   0.0008751  -0.0006090  -0.0002972   0.0002216  -0.0000279  -0.0000367
           19          20          21          22          23          24
    1   0.0000489  -0.0001563  -0.0000718   0.0003747   0.0001262  -0.0004633
    2  -0.0000604   0.0000856   0.0000487  -0.0001744   0.0003482  -0.0002794
    3  -0.0000594  -0.0000716  -0.0002873   0.0002518   0.0000328   0.0003767
           25          26          27          28          29
    1   0.0001175   0.0000402  -0.0000095   0.0001044   0.0000047
    2  -0.0000005   0.0000742   0.0000546   0.0000847  -0.0000419
    3  -0.0000099   0.0000182  -0.0000026   0.0000106  -0.0000066
 Max gradient component =       4.413E-03
 RMS gradient           =       8.666E-04
 Gradient time:  CPU 244.62 s  wall 18.06 s
 Geometry Optimization Parameters
   NAtoms,    NIC,     NZ,  NCons,   NDum,   NFix, NCnnct, MaxDiis
       29     227       0       0       0       0       0       0

 Cartesian Hessian Update
 Hessian Updated using Powell/Murtagh-Sargent Update
  Mixing factors:     0.835413 Powell
                      0.164587 Murtagh-Sargent


** GEOMETRY OPTIMIZATION IN DELOCALIZED INTERNAL COORDINATES **
   Searching for a Transition State

   Optimization Cycle:   4

                       Coordinates (Angstroms)
     ATOM                X               Y               Z
      1  C        -0.5219066636    0.5237372687   -0.8529275821
      2  C        -0.4589588263   -0.9648272295   -0.3103069037
      3  C         0.7078430331    1.3497321979   -0.4958613383
      4  C         0.9041458879   -1.3630829072    0.2161228438
      5  O         0.5218428466    2.1413535128    0.5681123459
      6  O         1.7418069497    1.2979707826   -1.1214971394
      7  O         1.6602731844   -1.8508314540   -0.7855316911
      8  O         1.2684703568   -1.2876650280    1.3636252610
      9  C         3.0285160774   -2.1593532044   -0.4620947295
     10  C         1.6660591487    2.8926459798    1.0126454618
     11  C        -1.8368902413    0.9737004256   -0.1736211709
     12  C        -3.0260910802    0.1771339104   -0.7749486409
     13  C        -2.9382217416   -1.1579710358    0.0282087014
     14  C        -1.5944350282   -0.9500537709    0.7508806090
     15  O        -1.6923110550    0.4242071688    1.1417796745
     16  H        -0.5704594965    0.5239696174   -1.9418534249
     17  H        -0.6970501310   -1.6439495938   -1.1297578735
     18  H         3.5545344752   -1.2497956761   -0.1686347519
     19  H         2.0262614628    3.5501396656    0.2198656389
     20  H        -1.9734982396    2.0497525265   -0.1088448844
     21  H        -3.9708966438    0.6944794790   -0.6045358611
     22  H        -2.9150642594    0.0303663649   -1.8515741874
     23  H        -3.7391350639   -1.2244633955    0.7659595576
     24  H        -2.9713628202   -2.0519748042   -0.5979909902
     25  H        -1.4018321820   -1.5665130639    1.6250053878
     26  H         3.0766930156   -2.8886569774    0.3477613578
     27  H         3.4562025817   -2.5664956378   -1.3752272992
     28  H         2.4651990089    2.2134523212    1.3128188180
     29  H         1.3158848238    3.4688494774    1.8656668009
   Point Group: c1    Number of degrees of freedom:    81


   Energy is   -765.858464989

 Hessian Updated using Powell/Murtagh-Sargent Update
  Mixing factors:     0.976048 Powell
                      0.023952 Murtagh-Sargent

 79 Hessian modes will be used to form the next step
  Hessian Eigenvalues:
    -0.001906    0.006919    0.007458    0.007760    0.010451    0.010460
     0.010602    0.015911    0.022094    0.022665    0.023649    0.026568
     0.030899    0.036896    0.040368    0.041090    0.047919    0.048638
     0.050992    0.053948    0.055353    0.056243    0.058993    0.062603
     0.064245    0.064745    0.073646    0.074990    0.093088    0.093370
     0.097076    0.101361    0.101368    0.106215    0.106240    0.112831
     0.124149    0.158637    0.160000    0.160001    0.160002    0.160003
     0.167810    0.227825    0.239964    0.246948    0.249999    0.250000
     0.250000    0.250003    0.250012    0.250150    0.257886    0.275205
     0.279854    0.301419    0.308076    0.340155    0.345766    0.345846
     0.346880    0.346938    0.347149    0.347160    0.347197    0.347467
     0.347576    0.348356    0.349491    0.351118    0.351292    0.351855
     0.352171    0.396843    0.396921    0.556431    0.572200    1.002465
     1.018388

 Transition State Search - Taking P-RFO Step
 Searching for Lamda that Maximizes Along the Lowest mode
 Value Taken    Lamda =   0.00043775
 Searching for Lamda that Minimizes Along All other modes
 Value Taken    Lamda =  -0.00130112
 Calculated Step too Large.  Step scaled by  0.546065
 Step Taken.  Stepsize is  0.300000

                             Maximum     Tolerance    Cnvgd?
         Gradient           0.001918      0.000001      NO
         Displacement       0.117220      0.000001      NO
         Energy change      0.000124      0.000000      NO


 New Cartesian Coordinates Obtained by Inverse Iteration

 Displacement from previous Coordinates is:  0.664156
 Adding empirical dispersion correction 
 ----------------------------------------------------------------
 Doing -D3(op) with
 s6 =   1.00000
 s8 =   0.78311
 a1 =   0.30000
 a2 =   4.25000
 n  =  10.00000
 -D3 energy without 3body term =     -0.0307331222 hartrees
 ----------------------------------------------------------------
             Standard Nuclear Orientation (Angstroms)
    I     Atom           X                Y                Z
 ----------------------------------------------------------------
    1      C      -0.5439353088     0.5174736872    -0.8550560051
    2      C      -0.4609663002    -0.9713183257    -0.3143235120
    3      C       0.6919145507     1.3493545143    -0.5365019148
    4      C       0.9010790701    -1.3414183527     0.2353990723
    5      O       0.5497582583     2.1041777037     0.5607513656
    6      O       1.7019740312     1.3144752245    -1.2009853766
    7      O       1.6779214557    -1.8267623088    -0.7517916867
    8      O       1.2467572994    -1.2560093735     1.3878431845
    9      C       3.0448608774    -2.1169708820    -0.4070849501
   10      C       1.7084370675     2.8485895557     0.9783526143
   11      C      -1.8442259056     0.9702495359    -0.1475432915
   12      C      -3.0518832010     0.2063101364    -0.7505010721
   13      C      -2.9462539010    -1.1643309653    -0.0116193620
   14      C      -1.6092347832    -0.9763176815     0.7313339279
   15      O      -1.6996350100     0.3889269140     1.1538385286
   16      H      -0.6217213523     0.5131610623    -1.9421290290
   17      H      -0.6729864290    -1.6562513307    -1.1361155128
   18      H       3.5569461243    -1.1992110472    -0.1144196903
   19      H       2.0288079615     3.5342281782     0.1923320951
   20      H      -1.9635334027     2.0465523638    -0.0570883319
   21      H      -3.9876237718     0.7182793892    -0.5232316317
   22      H      -2.9771284565     0.1106360852    -1.8358511456
   23      H      -3.7526598058    -1.2817861161     0.7135769293
   24      H      -2.9588618754    -2.0263060728    -0.6819795522
   25      H      -1.4301585217    -1.6145181314     1.5926340273
   26      H       3.0903399955    -2.8387742550     0.4095876176
   27      H       3.4895678355    -2.5267700499    -1.3108423782
   28      H       2.5245045773     2.1661642549     1.2199612149
   29      H       1.3935583005     3.3940232070     1.8646978550
 ----------------------------------------------------------------
[...]
    -0.00006551     -0.00004052     -0.00005077
    -0.00405712      0.23235507     -0.19963432
    -0.10392470      0.04975114      0.17405329
     0.44023081     -0.33346916     -0.00213137
    -0.05863125      0.13629354      0.33743573
vibration 69
    -0.00004814     -0.00005484     -0.00044140
     0.00003241      0.00078342      0.00098890
    -0.00029873      0.00042968      0.00132088
     0.00121598     -0.00046544     -0.00220672
    -0.00085854     -0.00077603     -0.00068758
     0.00038663      0.00007161     -0.00035211
    -0.00237395      0.00052430      0.00012528
     0.00020020      0.00001363      0.00088318
    -0.03172603      0.00269562     -0.02231733
    -0.01934562     -0.00989952      0.00229030
     0.00007848     -0.00010195     -0.00002791
    -0.00027091      0.00016277     -0.00012076
    -0.00054194     -0.00077575     -0.00015799
     0.00004081     -0.00003317      0.00000074
    -0.00003595     -0.00000028      0.00001513
     0.00044615     -0.00014591      0.00454459
    -0.00145106     -0.00868826     -0.01034289
     0.20497206      0.47168330      0.22830637
     0.03028721      0.23287162     -0.21395289
    -0.00002613      0.00133104      0.00023155
     0.00310622     -0.00176368     -0.00137765
    -0.00003089     -0.00006672      0.00280516
     0.00641190      0.00158615     -0.00564584
    -0.00048878      0.00734318      0.00772518
    -0.00018073      0.00062543     -0.00072664
     0.00737124     -0.41761735      0.35885541
     0.18639305     -0.08917387     -0.31209884
     0.24421077     -0.18530343     -0.00114014
    -0.03283979      0.07639863      0.18920053
vibration 70
     0.00091151      0.00001985      0.00420316
    -0.00124995     -0.00463795     -0.00539538
    -0.00003106      0.00002777      0.00015046
     0.00006178     -0.00010182     -0.00025884
     0.00000158     -0.00000624     -0.00000860
     0.00000482     -0.00000816     -0.00002027
     0.00000029      0.00000556      0.00002411
     0.00000607     -0.00000356      0.00005872
    -0.00037805     -0.00000188     -0.00023559
    -0.00006822     -0.00007179      0.00002248
     0.00040621     -0.00187027     -0.00011408
    -0.02755720      0.01524122     -0.02954367
     0.02831439      0.04260343      0.01199324
    -0.00027180     -0.00164764      0.00172012
     0.00001557     -0.00011126      0.00003243
    -0.00855560     -0.00108396     -0.05040707
     0.01251717      0.05375387      0.06557797
     0.00242932      0.00540503      0.00265708
     0.00017154      0.00117053     -0.00104793
    -0.00267111      0.02125276      0.00156481
     0.32138002     -0.17500376     -0.14384121
    -0.00633979     -0.00738355      0.49233877
    -0.35064247     -0.08409789      0.29847190
     0.02809818     -0.41641012     -0.43998948
    -0.00126974      0.01981289     -0.02005033
     0.00011702     -0.00433487      0.00371454
     0.00202751     -0.00097782     -0.00336121
     0.00077804     -0.00061209      0.00000663
    -0.00012812      0.00036108      0.00086423
vibration 71
     0.00107803     -0.00004947      0.00463870
     0.00122690      0.00464773      0.00536117
     0.00003410      0.00002083      0.00007941
    -0.00000981      0.00007329      0.00017496
    -0.00003720     -0.00001192     -0.00000061
    -0.00006349     -0.00003655      0.00002480
    -0.00005609      0.00001394      0.00000604
    -0.00004824      0.00001342     -0.00003374
     0.00041072      0.00000087      0.00030472
     0.00043195      0.00021224     -0.00004252
     0.00121419     -0.00343800     -0.00070076
    -0.03332465      0.02026318     -0.03642536
    -0.02290145     -0.03588168     -0.00881841
     0.00067028      0.00183318     -0.00232045
     0.00002931      0.00005930      0.00023318
    -0.00962107     -0.00120429     -0.05459981
    -0.01220840     -0.05331081     -0.06512990
    -0.00261818     -0.00577332     -0.00284648
    -0.00066108     -0.00461332      0.00421342
    -0.00533855      0.04750890      0.00498070
     0.39077756     -0.21392390     -0.17577260
    -0.00837167     -0.01171842      0.60005791
     0.28867376      0.06914146     -0.24599852
    -0.02435909      0.33949476      0.35581238
     0.00231791     -0.02747400      0.02943292
    -0.00016977      0.00469163     -0.00403928
    -0.00193673      0.00092457      0.00318358
    -0.00506090      0.00371288      0.00002589
     0.00063108     -0.00139663     -0.00350203
vibration 72
     0.00436222      0.00095248      0.02711875
    -0.00988271     -0.04577588     -0.05647844
    -0.00013549      0.00019776      0.00060897
     0.00066694     -0.00082482     -0.00185178
     0.00002119     -0.00007121     -0.00007671
     0.00001813      0.00000352     -0.00015307
    -0.00008907      0.00009006      0.00021416
    -0.00003376     -0.00006150      0.00063593
    -0.00064838      0.00038606     -0.00027002
     0.00001552     -0.00011307     -0.00002846
     0.00007467      0.00055655     -0.00021554
     0.01017853     -0.00522860     -0.01207928
    -0.01842022     -0.00010413      0.01976395
    -0.00097071      0.00170295     -0.00195899
    -0.00000051      0.00031078      0.00011191
    -0.05268661     -0.00948831     -0.32199744
     0.12070281      0.54723356      0.67215826
     0.00345151      0.00620663      0.00318615
     0.00014743      0.00073389     -0.00060754
     0.00009300     -0.00425487      0.00016233
    -0.12151638      0.06564031      0.04841319
     0.00168362     -0.00345839      0.09509404
     0.21727678      0.05903798     -0.17644883
     0.00044428     -0.05883763     -0.05694716
     0.00436747     -0.02379162      0.02530256
     0.00032354     -0.00791969      0.00669775
     0.00289074     -0.00148900     -0.00523016
    -0.00004787      0.00016197      0.00002116
    -0.00005752      0.00042367      0.00089786
vibration 73
     0.00012826     -0.00002855      0.00049362
    -0.00389967     -0.01784185     -0.02169427
     0.00018340      0.00016859     -0.00012117
     0.00019749     -0.00023734     -0.00068872
    -0.00003622     -0.00001856     -0.00000941
    -0.00006441     -0.00001539      0.00004088
    -0.00001943      0.00002678      0.00009423
     0.00001731     -0.00003270      0.00028417
    -0.00021601      0.00030663     -0.00010576
     0.00008056      0.00009049     -0.00005446
    -0.00021951     -0.00466850     -0.00017816
    -0.03647999      0.01917755      0.04943294
     0.03188921     -0.01644386     -0.05080866
     0.00059879     -0.00217980      0.00147639
    -0.00003308      0.00028099      0.00005639
     0.00019145     -0.00081152     -0.00686889
     0.04544115      0.21212294      0.26094880
     0.00080890      0.00112321      0.00061863
    -0.00023533     -0.00129812      0.00114072
    -0.00302202      0.05578596      0.00763108
     0.43893586     -0.23807064     -0.17597711
    -0.00710965      0.01230691     -0.41385574
    -0.37000687     -0.10159050      0.29970054
    -0.00813122      0.29966453      0.30526580
    -0.00324121      0.01887670     -0.02195079
     0.00015933     -0.00377045      0.00326471
     0.00104841     -0.00051714     -0.00186239
    -0.00060392      0.00041533     -0.00002373
     0.00004911     -0.00020321     -0.00052665
vibration 74
    -0.01174229     -0.00198288     -0.07136180
    -0.00279947     -0.01304387     -0.01578035
     0.00116548      0.00030373     -0.00179032
     0.00055192     -0.00048368     -0.00036125
    -0.00005361      0.00018068      0.00024891
    -0.00040271     -0.00008045      0.00059862
    -0.00011424      0.00004294      0.00010957
    -0.00004116      0.00002168      0.00015481
    -0.00011602      0.00004112      0.00010184
     0.00026732      0.00025931      0.00015137
    -0.00054628     -0.00437429     -0.00050938
    -0.01523093      0.00805570      0.01411857
    -0.01954522      0.00662096      0.02777545
    -0.00110573      0.00263486     -0.00279679
     0.00005412     -0.00007090      0.00033497
     0.14023300      0.02241830      0.84532344
     0.03505908      0.15487808      0.18834585
     0.00045517      0.00066576      0.00035683
    -0.00064386     -0.00278622      0.00215168
    -0.00236632      0.05519056      0.00670290
     0.18466433     -0.10116296     -0.07394314
    -0.00190782      0.00548460     -0.09335358
     0.22998873      0.06367715     -0.18699818
     0.00387091     -0.14290825     -0.14351175
     0.00598509     -0.03283190      0.03760795
     0.00005415     -0.00045703      0.00037306
     0.00062126     -0.00032656     -0.00128565
    -0.00294407      0.00180198     -0.00012979
     0.00041678     -0.00168970     -0.00387419
vibration 75
    -0.00538699     -0.00080753     -0.03205825
    -0.00232954     -0.01052155     -0.01265199
     0.00041601      0.00009245     -0.00077686
     0.00016642     -0.00021832     -0.00041119
     0.00002909      0.00012708      0.00017701
    -0.00016863     -0.00003254      0.00028457
    -0.00003637      0.00002465      0.00008317
     0.00003734     -0.00001022      0.00023516
    -0.00012318      0.00030349     -0.00001525
    -0.00002278      0.00015083      0.00019409
    -0.00005331      0.00357249     -0.00067441
     0.03401826     -0.01780877     -0.05077946
     0.02958416     -0.01436794     -0.04620175
     0.00053236     -0.00228377      0.00089239
    -0.00015863      0.00020329      0.00071553
     0.06140351      0.00980118      0.38099355
     0.02600622      0.12506290      0.15277573
     0.00006715     -0.00031258     -0.00014526
    -0.00018021     -0.00047809      0.00030785
     0.00259075     -0.03528917     -0.00472037
    -0.41372136      0.22766302      0.16621087
     0.00704179     -0.01510936      0.44181843
    -0.34620196     -0.09702474      0.28267924
    -0.00792770      0.26901642      0.27059020
    -0.00203458      0.01449305     -0.01590476
     0.00012199     -0.00250933      0.00219851
     0.00083499     -0.00036875     -0.00151178
    -0.00000087     -0.00014181     -0.00004670
     0.00039562     -0.00100034     -0.00247053
vibration 76
    -0.00010173      0.00014026     -0.00000787
     0.00008808      0.00026890      0.00012257
     0.00020414     -0.00012365      0.00002191
    -0.00009880     -0.00018343     -0.00012947
     0.00009292     -0.00024290      0.00009767
    -0.00003484     -0.00008822      0.00003415
    -0.00005521     -0.00025540      0.00004160
     0.00006762     -0.00007916      0.00005992
     0.01261712      0.06345316     -0.00752100
    -0.02998855      0.05610839     -0.02727964
     0.00001933     -0.00050358     -0.00011067
     0.00002666     -0.00000611     -0.00000746
    -0.00010857      0.00010872      0.00021240
     0.00002592     -0.00014376      0.00022143
     0.00000828     -0.00003324      0.00001435
    -0.00018273     -0.00007659     -0.00069815
    -0.00006785     -0.00125916     -0.00142037
    -0.17408868     -0.40046883     -0.20745177
    -0.05714762     -0.36299749      0.34695707
    -0.00020992      0.00598801      0.00089261
    -0.00035400      0.00011566      0.00011452
     0.00001284      0.00000580      0.00011745
     0.00129334      0.00032756     -0.00098671
     0.00003553     -0.00159676     -0.00162055
    -0.00044326      0.00198071     -0.00232214
     0.00674578     -0.35508509      0.32312152
     0.01764532      0.00583284     -0.02615278
     0.41707143     -0.30957888     -0.01454089
    -0.00537786      0.00958309     -0.00942169
vibration 77
    -0.00002810      0.00015640     -0.00002414
    -0.00003537     -0.00029597     -0.00012826
    -0.00006512     -0.00012765      0.00017037
    -0.00002069      0.00015679     -0.00008674
     0.00010732     -0.00024464      0.00005705
     0.00011835     -0.00009001     -0.00002403
     0.00005805      0.00028448     -0.00001829
     0.00000788      0.00012517      0.00004641
    -0.01374101     -0.06733288      0.00843013
    -0.02815728      0.05258025     -0.02615368
    -0.00000817     -0.00034438     -0.00004831
     0.00004601     -0.00001974     -0.00005653
     0.00005219     -0.00006200     -0.00011313
    -0.00002346      0.00003266     -0.00003415
     0.00001164     -0.00000449      0.00000907
    -0.00006283     -0.00017297     -0.00036643
     0.00022485      0.00163544      0.00173394
     0.18517803      0.42656333      0.22066936
    -0.05366663     -0.34125867      0.32614511
    -0.00010715      0.00406305      0.00056435
    -0.00050511      0.00027887      0.00019642
    -0.00000419     -0.00001779      0.00059201
    -0.00056393     -0.00016898      0.00046367
    -0.00002698      0.00089093      0.00093626
     0.00010998     -0.00038889      0.00033580
    -0.00712180      0.37707333     -0.34307513
    -0.01505186     -0.00784537      0.02176249
     0.39267929     -0.29160476     -0.01360364
    -0.00603627      0.01148908     -0.00261761
vibration 78
    -0.00006232      0.00049659      0.00133581
    -0.00024353      0.00087297      0.00021452
     0.00003996     -0.00049808     -0.00065572
     0.00001313      0.00006609      0.00056602
    -0.00020760      0.00017100      0.00015563
     0.00006512      0.00012320      0.00007968
    -0.00000166     -0.00000038     -0.00007037
     0.00010083      0.00001933     -0.00026054
     0.00005739     -0.00027424     -0.00037876
     0.00054346     -0.00043379      0.00016612
     0.00409622     -0.07326001     -0.01127867
     0.00547361     -0.00200709     -0.00293940
    -0.00176939      0.00067840      0.00148281
     0.00479757     -0.02627482      0.03203649
     0.00003240     -0.00059315      0.00031077
    -0.00080339     -0.00167956     -0.01592816
    -0.00126733     -0.00397072     -0.00356119
     0.00110257      0.00247571      0.00121747
     0.00024894      0.00138350     -0.00151735
    -0.04399573      0.85177413      0.12784639
    -0.06446486      0.03247045      0.02384688
    -0.00081522     -0.00174440      0.00911613
     0.02181765      0.00578049     -0.01562191
     0.00081189     -0.00472968     -0.00432413
    -0.05807029      0.31561374     -0.37265399
    -0.00000775     -0.00002890     -0.00005811
    -0.00206620      0.00092178      0.00332999
    -0.00657705      0.00450442      0.00007163
     0.00011388     -0.00010137      0.00014664
vibration 79
    -0.00024503     -0.00025402      0.00336229
    -0.00033210      0.00175713      0.00216743
    -0.00005871     -0.00042035     -0.00029197
    -0.00022586      0.00010926     -0.00101000
    -0.00007611      0.00011412      0.00009402
     0.00010558      0.00010249      0.00000734
     0.00015340     -0.00004027      0.00010156
    -0.00008417     -0.00003920      0.00046634
    -0.00021139      0.00023728      0.00046488
     0.00007972     -0.00008071      0.00016357
     0.00242611     -0.04281032     -0.00560507
     0.00450583     -0.00213671     -0.00041666
     0.00557889      0.00183414     -0.00283718
    -0.00867174      0.04881665     -0.05672185
    -0.00005601      0.00026715      0.00027275
    -0.00428596     -0.00145213     -0.03458691
    -0.00240995     -0.01749336     -0.02351833
    -0.00063306     -0.00159819     -0.00070284
     0.00018629      0.00078194     -0.00074058
    -0.02481242      0.48131923      0.07263768
    -0.04581048      0.02314458      0.01752576
    -0.00073485     -0.00133389     -0.00737092
    -0.05876209     -0.01518741      0.04409561
    -0.00130193     -0.00429532     -0.00709077
     0.10166547     -0.55332303      0.65381730
     0.00014252      0.00003770      0.00012033
     0.00330518     -0.00146904     -0.00509604
    -0.00135216      0.00090524      0.00000362
     0.00024277     -0.00042356     -0.00101084
vibration 80
    -0.00001265     -0.00000525     -0.00006150
    -0.00001012     -0.00000159      0.00005628
     0.00005354      0.00001182     -0.00009855
    -0.00085186      0.00015497     -0.00084694
    -0.00000346     -0.00000307      0.00003686
    -0.00004469      0.00000064      0.00004581
    -0.00005247      0.00004286      0.00035267
     0.00024142     -0.00002866      0.00044608
     0.02925782     -0.01639325     -0.08820666
    -0.00003628      0.00019426     -0.00057216
    -0.00001020      0.00005912      0.00000794
    -0.00000239      0.00000267     -0.00002563
     0.00002669     -0.00001866     -0.00003014
    -0.00008629      0.00042848     -0.00050458
     0.00000857     -0.00000078      0.00000895
     0.00019137     -0.00002721      0.00085246
     0.00036295      0.00013236      0.00032725
     0.10326852      0.22921591      0.09483663
    -0.00033529     -0.00297368      0.00269690
     0.00005946     -0.00079472     -0.00012493
     0.00010258     -0.00006476     -0.00004130
     0.00000399     -0.00001548      0.00042126
    -0.00026587     -0.00008010      0.00018713
    -0.00002801      0.00020283      0.00019278
     0.00079179     -0.00490401      0.00580163
     0.00595378     -0.24984700      0.19763488
    -0.45060130      0.21365826      0.75404335
     0.00162541     -0.00112822     -0.00024113
    -0.00079790      0.00180922      0.00424871
vibration 81
    -0.00009702     -0.00000397     -0.00015178
    -0.00001339     -0.00000938     -0.00000904
     0.00106634      0.00051281     -0.00024585
     0.00002487      0.00000427     -0.00008908
    -0.00017569      0.00004043      0.00028214
    -0.00041488     -0.00012845      0.00023683
    -0.00001563     -0.00000860      0.00002363
     0.00000293      0.00000376      0.00004475
    -0.00004426      0.00047746      0.00040250
     0.03249001     -0.02440485     -0.08516221
     0.00000197      0.00007031     -0.00002177
     0.00005233     -0.00002761     -0.00006871
     0.00004791     -0.00000730     -0.00005719
    -0.00000350      0.00007160     -0.00011722
    -0.00000778      0.00000369      0.00002318
     0.00046747      0.00009190      0.00266826
     0.00004328      0.00012262      0.00019389
    -0.00170152     -0.00398138     -0.00199929
    -0.02050797     -0.22329900      0.18955539
     0.00004316     -0.00107395     -0.00022954
    -0.00077045      0.00035933      0.00028579
     0.00004946     -0.00000375      0.00066894
    -0.00060484     -0.00015948      0.00046631
     0.00000902      0.00026490      0.00026038
     0.00015088     -0.00103353      0.00123657
    -0.00002699     -0.00074582      0.00076570
     0.00219683     -0.00092588     -0.00364492
    -0.22432071      0.17376412     -0.01266825
    -0.14450741      0.33566117      0.83102257
[INT]
    0.920841
    5.625462
    1.248268
    0.508563
    0.456684
    1.248052
    2.885273
    0.127231
    0.751370
    1.092574
    3.843723
    2.006561
   14.762211
    7.239337
    1.587232
   10.910189
    5.512246
   26.337380
    2.123968
    7.358483
    4.425172
    0.557887
    9.844280
   17.427282
   14.140375
    1.560939
    2.150982
    3.170573
    3.704514
    3.714532
   16.622575
    5.245434
   13.505562
   27.282752
   35.920614
   15.031183
   25.589386
   27.911105
   19.350476
   27.015626
   17.383967
    1.829474
  124.385780
   82.452654
    6.936287
  100.585217
    7.437872
    9.877813
   27.079279
  148.436156
    9.339543
  133.485856
   17.156026
   11.688273
   18.893479
    0.758745
   69.024812
    7.007094
   21.608310
   12.957320
    6.714975
    2.059448
    3.543341
    9.754471
    7.529620
  192.502510
  304.671579
   15.997568
   49.402139
   25.383791
   32.853383
    6.796946
    1.378905
    6.719662
   40.711767
   35.698650
    3.953702
   25.644881
    2.773950
   12.090722
   10.851291

======= END OF MOLDEN-FORMATTED INPUT FILE =======


        *************************************************************
        *                                                           *
        *  Thank you very much for using Q-Chem.  Have a nice day.  *
        *                                                           *
        *************************************************************


