r0169.ten.osc.edu 10.25.155
Q-Chem Developer Version! Running on 10.25.155.*
                  Welcome to Q-Chem
     A Quantum Leap Into The Future Of Chemistry


 Q-Chem 5.0, Q-Chem, Inc., Pleasanton, CA (2017)

 Yihan Shao,  Zhengting Gan,  E. Epifanovsky,  A. T. B. Gilbert,  M. Wormit,  
 J. Kussmann,  A. W. Lange,  A. Behn,  Jia Deng,  Xintian Feng,  D. Ghosh,  
 M. Goldey,  P. R. Horn,  L. D. Jacobson,  I. Kaliman,  T. Kus,  A. Landau,  
 Jie Liu,  E. I. Proynov,  R. M. Richard,  R. P. Steele,  E. J. Sundstrom,  
 H. L. Woodcock III,  P. M. Zimmerman,  D. Zuev,  B. Albrecht,  E. Alguire,  
 S. A. Baeppler,  Z. Benda,  Y. A. Bernard,  E. J. Berquist,  K. B. Bravaya,  
 D. Casanova,  Chun-Min Chang,  Yunqing Chen,  A. Chien,  K. D. Closser,  
 M. P. Coons,  S. Dasgupta,  M. Diedenhofen,  Hainam Do,  R. G. Edgar,  
 Po-Tung Fang,  S. Fatehi,  Qingguo Feng,  Qinghui Ge,  A. Ghysels,  
 J. Gomes,  J. Gonthier,  A. Gunina,  M. W. D. Hanson-Heine,  
 P. H. P. Harbach,  A. W. Hauser,  J. E. Herr,  E. G. Hohenstein,  
 Z. C. Holden,  Kerwin Hui,  T.-C. Jagau,  Hyunjun Ji,  B. Kaduk,  
 K. Khistyaev,  Jaehoon Kim,  P. Klunzinger,  K. Koh,  D. Kosenkov,  
 T. Kowalczyk,  C. M. Krauter,  A. Kunitsa,  Ka Un Lao,  A. Laurent,  
 K. V. Lawler,  Joonho Lee,  D. Lefrancois,  S. Lehtola,  D. S. Levine,  
 Yi-Pei Li,  You-Sheng Lin,  Fenglai Liu,  E. Livshits,  A. Luenser,  
 P. Manohar,  E. Mansoor,  S. F. Manzer,  Shan-Ping Mao,  Yuezhi Mao,  
 N. Mardirossian,  A. V. Marenich,  L. A. Martinez-Martinez,  S. A. Maurer,  
 N. J. Mayhall,  S. C. McKenzie,  J.-M. Mewes,  A. F. Morrison,  K. Nanda,  
 T. S. Nguyen-Beck,  R. Olivares-Amaya,  J. A. Parkhill,  T. M. Perrine,  
 F. Plasser,  S. Prager,  A. Prociuk,  D. R. Rehn,  F. Rob,  M. Schneider,  
 N. Sergueev,  S. M. Sharada,  S. Sharma,  D. W. Small,  T. Stauch,  
 T. Stein,  Yu-Chuan Su,  A. J. W. Thom,  T. Tsuchimochi,  L. Vogt,  
 O. Vydrov,  M. A. Watson,  J. Wenzel,  M. de Wergifosse,  T. A. Wesolowski,  
 A. White,  J. Witte,  A. Yamada,  Jun Yang,  K. Yao,  S. Yeganeh,  
 S. R. Yost,  Zhi-Qiang You,  A. Zech,  Igor Ying Zhang,  Xing Zhang,  
 Yan Zhao,  Ying Zhu,  B. R. Brooks,  G. K. L. Chan,  C. J. Cramer,  
 M. S. Gordon,  W. J. Hehre,  A. Klamt,  M. W. Schmidt,  C. D. Sherrill,  
 D. G. Truhlar,  A. Aspuru-Guzik,  R. Baer,  A. T. Bell,  N. A. Besley,  
 Jeng-Da Chai,  A. Dreuw,  B. D. Dunietz,  T. R. Furlani,  Chao-Ping Hsu,  
 Yousung Jung,  Jing Kong,  D. S. Lambrecht,  WanZhen Liang,  C. Ochsenfeld,  
 V. A. Rassolov,  L. V. Slipchenko,  J. E. Subotnik,  T. Van Voorhis,  
 J. M. Herbert,  A. I. Krylov,  P. M. W. Gill,  M. Head-Gordon

 Contributors to earlier versions of Q-Chem not listed above: 
 R. D. Adamson,  B. Austin,  J. Baker,  G. J. O. Beran,  K. Brandhorst,  
 S. T. Brown,  E. F. C. Byrd,  A. K. Chakraborty,  C.-L. Cheng,  
 Siu Hung Chien,  D. M. Chipman,  D. L. Crittenden,  H. Dachsel,  
 R. A. DiStasio Jr.,  R. J. Doerksen,  A. D. Dutoi,  L. Fusti-Molnar,  
 W. A. Goddard III,  A. Golubeva-Zadorozhnaya,  S. R. Gwaltney,  G. Hawkins,  
 A. Heyden,  S. Hirata,  G. Kedziora,  F. J. Keil,  C. Kelley,  Jihan Kim,  
 R. A. King,  R. Z. Khaliullin,  P. P. Korambath,  W. Kurlancheek,  
 A. M. Lee,  M. S. Lee,  S. V. Levchenko,  Ching Yeh Lin,  D. Liotard,  
 R. C. Lochan,  I. Lotan,  P. E. Maslen,  N. Nair,  D. P. O'Neill,  
 D. Neuhauser,  E. Neuscamman,  C. M. Oana,  R. Olson,  B. Peters,  
 R. Peverati,  P. A. Pieniazek,  Y. M. Rhee,  J. Ritchie,  M. A. Rohrdanz,  
 E. Rosta,  N. J. Russ,  H. F. Schaefer III,  N. E. Schultz,  N. Shenvi,  
 A. C. Simmonett,  A. Sodt,  D. Stuck,  K. S. Thanthiriwatte,  V. Vanovschi,  
 Tao Wang,  A. Warshel,  C. F. Williams,  Q. Wu,  X. Xu,  W. Zhang

 Please cite Q-Chem as follows:
 Y. Shao et al., Mol. Phys. 113, 184-215 (2015)
 DOI: 10.1080/00268976.2014.952696

 Q-Chem 5.0.1 for Intel X86 EM64T Linux

 Parts of Q-Chem use Armadillo 5.200.1 (Boston Tea Smuggler).
 http://arma.sourceforge.net/

 Q-Chem begins on Sat Oct 14 21:21:09 2017  

Host: r0169.ten.osc.edu
0

     Scratch files written to /tmp/pbstmp.1310493/00//
Processing $rem in /users/PAS0291/osu6415/.qchemrc.
molden_format             true

Checking the input file for inconsistencies... 	...done.

--------------------------------------------------------------
User input:
--------------------------------------------------------------
$molecule
0 1
C 0.51341797 -0.84987416 0.00493475
C -0.76265390 -0.26806941 -0.07954209
C 1.72499983 0.00944630 -0.12354351
C -0.95088480 1.21349864 -0.26717246
O 2.86440050 -0.67344277 0.11685719
O 1.71223356 1.18172171 -0.42266879
O -0.77752763 1.87309602 0.89059310
O -1.30242169 1.72449021 -1.30064817
C -0.84548555 3.30905688 0.80719577
C 4.08580913 0.07316521 -0.02336541
C 0.63543453 -2.23494539 0.17080797
C -0.50081493 -3.02862883 0.25033272
C -1.76184626 -2.44564372 0.16085179
C -1.91623932 -1.06716078 -0.00803514
H -0.05990835 3.67499540 0.14458943
H 4.18378386 0.45547203 -1.04054627
H -2.64768754 -3.06893940 0.22389109
H -1.81935320 3.62675030 0.43173673
H -0.68942493 3.66528108 1.82298798
H 4.88212362 -0.63325266 0.20020716
H 4.10420687 0.90876410 0.67771696
H -0.40671899 -4.10079014 0.37928662
H 1.62096016 -2.67508515 0.22983321
C -3.29737512 -0.46450266 -0.11014569
H -3.46926583 -0.04453274 -1.10424864
H -3.43481727 0.34465207 0.61252713
H -4.06248430 -1.21884068 0.08063366
$end

$rem
sym_ignore      true
jobtype         opt
method          b3lyp
basis           6-311++G(d,p)
dft_d           d3_op
mem_total       62000
MEM_STATIC      4000
ao2mo_disk      350000
max_scf_cycles  200
geom_opt_max_cycles 1000
geom_opt_tol_displacement 1
GEOM_OPT_TOL_GRADIENT       1
GEOM_OPT_TOL_ENERGY         1
$end

--------------------------------------------------------------
 Adding empirical dispersion correction 
 ----------------------------------------------------------------
 Doing -D3(op) with
 s6 =   1.00000
 s8 =   0.78311
 a1 =   0.30000
 a2 =   4.25000
 n  =  10.00000
 -D3 energy without 3body term =     -0.0279716029 hartrees
 ----------------------------------------------------------------
             Standard Nuclear Orientation (Angstroms)
    I     Atom           X                Y                Z
 ----------------------------------------------------------------
    1      C       0.5134179700    -0.8498741600     0.0049347500
    2      C      -0.7626539000    -0.2680694100    -0.0795420900
    3      C       1.7249998300     0.0094463000    -0.1235435100
    4      C      -0.9508848000     1.2134986400    -0.2671724600
    5      O       2.8644005000    -0.6734427700     0.1168571900
    6      O       1.7122335600     1.1817217100    -0.4226687900
    7      O      -0.7775276300     1.8730960200     0.8905931000
    8      O      -1.3024216900     1.7244902100    -1.3006481700
    9      C      -0.8454855500     3.3090568800     0.8071957700
   10      C       4.0858091300     0.0731652100    -0.0233654100
   11      C       0.6354345300    -2.2349453900     0.1708079700
   12      C      -0.5008149300    -3.0286288300     0.2503327200
   13      C      -1.7618462600    -2.4456437200     0.1608517900
   14      C      -1.9162393200    -1.0671607800    -0.0080351400
   15      H      -0.0599083500     3.6749954000     0.1445894300
   16      H       4.1837838600     0.4554720300    -1.0405462700
   17      H      -2.6476875400    -3.0689394000     0.2238910900
   18      H      -1.8193532000     3.6267503000     0.4317367300
   19      H      -0.6894249300     3.6652810800     1.8229879800
   20      H       4.8821236200    -0.6332526600     0.2002071600
   21      H       4.1042068700     0.9087641000     0.6777169600
   22      H      -0.4067189900    -4.1007901400     0.3792866200
   23      H       1.6209601600    -2.6750851500     0.2298332100
   24      C      -3.2973751200    -0.4645026600    -0.1101456900
   25      H      -3.4692658300    -0.0445327400    -1.1042486400
   26      H      -3.4348172700     0.3446520700     0.6125271300
   27      H      -4.0624843000    -1.2188406800     0.0806336600
 ----------------------------------------------------------------
 Nuclear Repulsion Energy =  1007.3635477488 hartrees
 There are       55 alpha and       55 beta electrons
 Requested basis set is 6-311++G(d,p)
 There are 150 shells and 414 basis functions

 Total QAlloc Memory Limit  62000 MB
 Mega-Array Size      3911 MB
 MEM_STATIC part      4000 MB
 A cutoff of  1.0D-11 yielded   8959 shell pairs
 There are     70593 function pairs (     75533 Cartesian)
 
 -------------------------------------------------------
 OpenMP Integral Computing Module                       
 Release: version 1.0, May 2013, Q-Chem Inc. Pittsburgh 
 -------------------------------------------------------
 Integral Job Info:
 Integral job number is                      11
 Integral operator is                         1
 short-range coefficients                     0
 long-range coefficients              100000000
 Omega coefficients                           0
 if combine SR and LR in K                    0
 Integral screening is                        0
 Integral computing path is                   2
 max size of driver memory is            800000
 size of driver memory is                593474
 size of scratch memory is              2361544
 max col of scratch BK array               1296
 max len of scratch array in speh3          155
 max len of scratch index in speh4           18
 max int batch size is                      520
 min int batch size is                       52
 fixed nKL is                                52
 max L of basis functions is                  2
 order of int derivative is                   0
 number of shells is                        150
 number of basis is                         429
 number of cartesian basis is               429
 number of contracted shell pairs          8959
 number of primitive shell pairs          20673
 maxK2 (contraction) of shell pair           36
 max number of K2 of shell pair               1
 max number of CS2 of shell pair           1661
 max number of PS2 of shell pair           3372
 mem total for path MDJ                  141224
 -------------------------------------------------------
 Smallest overlap matrix eigenvalue = 1.23E-07

 Q-Chem warning in module /fs/scratch/osu6415/qchem-kaunlao-vdw/stvman/mkSTV.C, line 281:

 Overlap eigenvalue is smaller than square root of threshold

 Linear dependence detected in AO basis
 Number of orthogonalized atomic orbitals = 411
 Maximum deviation from orthogonality = 1.333E-10

 Scale SEOQF with 1.000000e-01/1.000000e-01/1.000000e-01

 Standard Electronic Orientation quadrupole field applied
 Nucleus-field energy     =     0.0000000380 hartrees
 Guess from superposition of atomic densities
 Warning:  Energy on first SCF cycle will be non-variational
 A restricted hybrid HF-DFT SCF calculation will be
 performed using Pulay DIIS extrapolation
 Exchange:     0.2000 Hartree-Fock + 0.0800 Slater + 0.7200 B88
 Correlation:  0.1900 VWN1RPA + 0.8100 LYP
 Using SG-1 standard quadrature grid
 Dispersion:   Grimme D3
 SCF converges when DIIS error is below 1.0E-08
 using 20 threads for integral computing
 -------------------------------------------------------
 OpenMP Integral computing Module                
 Release: version 1.0, May 2013, Q-Chem Inc. Pittsburgh 
 -------------------------------------------------------
 -------------------------------------------------------
 OpenMP BLAS3 based DFT computing Module                
 Release: version 1.0, May 2013, Q-Chem Inc. Pittsburgh 
 -------------------------------------------------------
 ---------------------------------------
  Cycle       Energy         DIIS Error
 ---------------------------------------
    1    -730.6810625687      3.19E-02
    2    -727.2521543040      4.08E-03
    3    -726.7770965464      6.93E-03
    4    -727.5008159943      1.61E-03
    5    -727.5446207277      4.10E-04
    6    -727.5467404100      1.74E-04
    7    -727.5472080804      3.96E-05
    8    -727.5472315257      1.67E-05
    9    -727.5472370248      3.95E-06
   10    -727.5472373050      1.25E-06
   11    -727.5472373330      4.13E-07
   12    -727.5472373351      2.20E-07
   13    -727.5472373358      6.03E-08
   14    -727.5472373356      1.27E-08
   15    -727.5472373358      5.84E-09 Convergence criterion met
 ---------------------------------------
 SCF time:  CPU 640.36 s  wall 35.87 s
 SCF   energy in the final basis set = -727.54723734
 Total energy in the final basis set = -727.54723734
 
 --------------------------------------------------------------
 
                    Orbital Energies (a.u.)
 --------------------------------------------------------------
 
 Alpha MOs
 -- Occupied --
-19.178 -19.168 -19.119 -19.112 -10.312 -10.306 -10.233 -10.222
-10.207 -10.207 -10.204 -10.192 -10.192 -10.191 -10.175  -1.120
 -1.110  -1.031  -1.024  -0.885  -0.801  -0.790  -0.747  -0.726
 -0.700  -0.653  -0.624  -0.580  -0.571  -0.543  -0.519  -0.501
 -0.495  -0.489  -0.479  -0.477  -0.462  -0.444  -0.434  -0.429
 -0.423  -0.416  -0.403  -0.393  -0.381  -0.371  -0.369  -0.367
 -0.356  -0.321  -0.307  -0.293  -0.290  -0.271  -0.261
 -- Virtual --
 -0.064  -0.032  -0.010  -0.003   0.001   0.007   0.013   0.021
  0.028   0.031   0.032   0.036   0.043   0.047   0.049   0.056
  0.062   0.065   0.070   0.082   0.083   0.088   0.094   0.103
  0.106   0.110   0.111   0.114   0.118   0.119   0.123   0.126
  0.127   0.134   0.136   0.141   0.142   0.145   0.149   0.154
  0.157   0.160   0.162   0.166   0.170   0.177   0.180   0.183
  0.184   0.192   0.197   0.198   0.205   0.209   0.211   0.217
  0.222   0.228   0.230   0.236   0.244   0.254   0.262   0.266
  0.272   0.277   0.281   0.284   0.289   0.295   0.297   0.303
  0.306   0.308   0.313   0.318   0.327   0.329   0.331   0.342
  0.344   0.352   0.354   0.362   0.366   0.373   0.381   0.387
  0.394   0.396   0.404   0.415   0.416   0.429   0.439   0.453
  0.459   0.465   0.471   0.489   0.500   0.509   0.528   0.534
  0.536   0.544   0.553   0.570   0.578   0.583   0.597   0.597
  0.605   0.607   0.618   0.624   0.636   0.642   0.652   0.656
  0.660   0.663   0.672   0.676   0.683   0.686   0.696   0.701
  0.716   0.726   0.730   0.743   0.746   0.756   0.759   0.776
  0.789   0.792   0.813   0.845   0.854   0.872   0.880   0.909
  0.913   0.924   0.933   0.947   0.960   0.968   0.979   0.995
  1.005   1.030   1.038   1.044   1.061   1.064   1.074   1.078
  1.089   1.109   1.126   1.137   1.156   1.185   1.199   1.208
  1.239   1.252   1.262   1.278   1.293   1.310   1.337   1.349
  1.367   1.374   1.387   1.399   1.419   1.427   1.432   1.450
  1.456   1.463   1.480   1.490   1.513   1.522   1.525   1.533
  1.547   1.557   1.563   1.566   1.577   1.589   1.601   1.625
  1.643   1.645   1.659   1.684   1.690   1.698   1.706   1.716
  1.729   1.730   1.738   1.751   1.759   1.779   1.786   1.813
  1.822   1.850   1.872   1.886   1.891   1.905   1.923   1.930
  1.953   1.963   1.967   1.993   2.009   2.022   2.038   2.071
  2.096   2.101   2.113   2.131   2.142   2.159   2.183   2.192
  2.199   2.242   2.264   2.308   2.322   2.387   2.405   2.440
  2.445   2.455   2.481   2.489   2.507   2.511   2.524   2.528
  2.550   2.552   2.566   2.583   2.585   2.595   2.642   2.658
  2.664   2.677   2.683   2.713   2.728   2.743   2.770   2.781
  2.802   2.813   2.825   2.825   2.844   2.859   2.871   2.878
  2.901   2.913   2.928   2.939   2.970   3.002   3.028   3.040
  3.047   3.075   3.086   3.113   3.122   3.172   3.191   3.211
  3.229   3.238   3.271   3.304   3.323   3.373   3.387   3.394
  3.430   3.527   3.544   3.594   3.616   3.635   3.697   3.753
  3.768   3.790   3.799   3.822   3.854   3.855   3.928   4.036
  4.051   4.076   4.108   4.126   4.159   4.262   4.341   4.377
  4.849   5.010   5.031   5.089   5.151   5.237   5.302   5.377
  5.405   5.629   5.668   5.869   5.899  23.561  23.839  23.867
 23.915  23.932  23.935  23.945  23.983  24.063  24.080  24.173
 49.897  49.916  50.015  50.046
 --------------------------------------------------------------
 
          Ground-State Mulliken Net Atomic Charges

     Atom                 Charge (a.u.)
  ----------------------------------------
      1 C                     0.084348
      2 C                     0.776661
      3 C                    -0.055435
      4 C                    -0.945120
      5 O                    -0.104539
      6 O                    -0.223661
      7 O                     0.082585
      8 O                    -0.132548
      9 C                    -0.214009
     10 C                    -0.214960
     11 C                    -0.356028
     12 C                    -0.073129
     13 C                    -0.644488
     14 C                     0.477095
     15 H                     0.191486
     16 H                     0.186877
     17 H                     0.117438
     18 H                     0.162522
     19 H                     0.149802
     20 H                     0.153722
     21 H                     0.178874
     22 H                     0.183618
     23 H                     0.185343
     24 C                    -0.492824
     25 H                     0.192190
     26 H                     0.170416
     27 H                     0.163765
  ----------------------------------------
  Sum of atomic charges =     0.000000

 -----------------------------------------------------------------
                    Cartesian Multipole Moments
 -----------------------------------------------------------------
    Charge (ESU x 10^10)
                 0.0000
    Dipole Moment (Debye)
         X       0.7031      Y      -1.7088      Z       2.0207
       Tot       2.7382
    Quadrupole Moments (Debye-Ang)
        XX     -72.2762     XY       1.2871     YY     -79.2568
        XZ      -2.2758     YZ       5.4743     ZZ     -93.9066
    Octopole Moments (Debye-Ang^2)
       XXX      52.4971    XXY      -1.3118    XYY      -7.6546
       YYY      23.2228    XXZ       1.1325    XYZ      -3.8325
       YYZ      18.1113    XZZ      12.5810    YZZ       8.3876
       ZZZ      -1.7976
    Hexadecapole Moments (Debye-Ang^3)
      XXXX   -1935.6569   XXXY      16.1281   XXYY    -653.6369
      XYYY     -19.4714   YYYY   -1558.0990   XXXZ      -2.4486
      XXYZ       7.3876   XYYZ     -14.5257   YYYZ      22.5407
      XXZZ    -423.0856   XYZZ       1.3524   YYZZ    -353.7886
      XZZZ      -4.9969   YZZZ      13.1102   ZZZZ    -247.7109
 -----------------------------------------------------------------
 Calculating analytic gradient of the SCF energy
 Gradient of SCF Energy
            1           2           3           4           5           6
    1   0.0000450  -0.0000625  -0.0000822   0.0001863   0.0000712   0.0000207
    2  -0.0000579   0.0000292   0.0001418   0.0000438  -0.0000099  -0.0000801
    3  -0.0002943   0.0000108   0.0003688  -0.0000854  -0.0000395  -0.0001768
            7           8           9          10          11          12
    1  -0.0000162  -0.0001132   0.0000336  -0.0000636  -0.0000050  -0.0000392
    2   0.0000495  -0.0000324  -0.0000793  -0.0000484   0.0000151  -0.0000026
    3   0.0000567   0.0000758  -0.0000086  -0.0000037   0.0000698   0.0000259
           13          14          15          16          17          18
    1   0.0000001   0.0000047   0.0000179   0.0000014  -0.0000170   0.0000186
    2   0.0000030  -0.0000250   0.0000043  -0.0000209   0.0000121   0.0000120
    3   0.0000064   0.0000028   0.0000032  -0.0000181   0.0000046   0.0000116
           19          20          21          22          23          24
    1   0.0000221   0.0000107   0.0000123  -0.0000163  -0.0000128   0.0000040
    2   0.0000173  -0.0000166  -0.0000184   0.0000005  -0.0000086   0.0000802
    3   0.0000047  -0.0000200  -0.0000149  -0.0000016  -0.0000369  -0.0000009
           25          26          27
    1  -0.0000097   0.0000069  -0.0000176
    2  -0.0000143  -0.0000040   0.0000097
    3   0.0000136   0.0000163   0.0000294
 Max gradient component =       3.688E-04
 RMS gradient           =       7.122E-05
 Gradient time:  CPU 214.74 s  wall 17.08 s
 Geometry Optimization Parameters
   NAtoms,    NIC,     NZ,  NCons,   NDum,   NFix, NCnnct, MaxDiis
       27     173       0       0       0       0       0       0


** GEOMETRY OPTIMIZATION IN DELOCALIZED INTERNAL COORDINATES **
   Searching for a Minimum

   Optimization Cycle:   1

                       Coordinates (Angstroms)
     ATOM                X               Y               Z
      1  C         0.5134179700   -0.8498741600    0.0049347500
      2  C        -0.7626539000   -0.2680694100   -0.0795420900
      3  C         1.7249998300    0.0094463000   -0.1235435100
      4  C        -0.9508848000    1.2134986400   -0.2671724600
      5  O         2.8644005000   -0.6734427700    0.1168571900
      6  O         1.7122335600    1.1817217100   -0.4226687900
      7  O        -0.7775276300    1.8730960200    0.8905931000
      8  O        -1.3024216900    1.7244902100   -1.3006481700
      9  C        -0.8454855500    3.3090568800    0.8071957700
     10  C         4.0858091300    0.0731652100   -0.0233654100
     11  C         0.6354345300   -2.2349453900    0.1708079700
     12  C        -0.5008149300   -3.0286288300    0.2503327200
     13  C        -1.7618462600   -2.4456437200    0.1608517900
     14  C        -1.9162393200   -1.0671607800   -0.0080351400
     15  H        -0.0599083500    3.6749954000    0.1445894300
     16  H         4.1837838600    0.4554720300   -1.0405462700
     17  H        -2.6476875400   -3.0689394000    0.2238910900
     18  H        -1.8193532000    3.6267503000    0.4317367300
     19  H        -0.6894249300    3.6652810800    1.8229879800
     20  H         4.8821236200   -0.6332526600    0.2002071600
     21  H         4.1042068700    0.9087641000    0.6777169600
     22  H        -0.4067189900   -4.1007901400    0.3792866200
     23  H         1.6209601600   -2.6750851500    0.2298332100
     24  C        -3.2973751200   -0.4645026600   -0.1101456900
     25  H        -3.4692658300   -0.0445327400   -1.1042486400
     26  H        -3.4348172700    0.3446520700    0.6125271300
     27  H        -4.0624843000   -1.2188406800    0.0806336600
   Point Group: c1    Number of degrees of freedom:    75


   Energy is   -727.547237336


 Attempting to Generate Delocalized Internal Coordinates

 75 Hessian modes will be used to form the next step
  Hessian Eigenvalues:
     0.007810    0.008489    0.010356    0.010379    0.010569    0.013724
     0.014231    0.016302    0.017787    0.018591    0.021871    0.022266
     0.022513    0.023062    0.023092    0.023162    0.023422    0.023716
     0.072189    0.072504    0.101303    0.101647    0.106090    0.106258
     0.159997    0.159999    0.160000    0.160000    0.160000    0.160000
     0.160000    0.160000    0.160000    0.160000    0.160000    0.160000
     0.220841    0.234559    0.249101    0.249485    0.249867    0.249975
     0.249987    0.250000    0.250000    0.250000    0.250000    0.250000
     0.313152    0.318360    0.333479    0.344042    0.344937    0.346692
     0.346903    0.346954    0.347074    0.347079    0.350778    0.350802
     0.353990    0.355177    0.358790    0.395875    0.398090    0.416960
     0.418963    0.450070    0.458376    0.462580    0.471668    0.550321
     0.563827    0.999999    1.022015

 Minimum Search - Taking Simple RFO Step
 Searching for Lamda that Minimizes Along All modes
 Value Taken    Lamda =  -0.00000751
 Step Taken.  Stepsize is  0.024821

                             Maximum     Tolerance    Cnvgd?
         Gradient           0.000162      0.000001      NO
         Displacement       0.013628      0.000001      NO
         Energy change     *********      0.000000      NO


 New Cartesian Coordinates Obtained by Inverse Iteration

 Displacement from previous Coordinates is:  0.043561
 Adding empirical dispersion correction 
 ----------------------------------------------------------------
 Doing -D3(op) with
 s6 =   1.00000
 s8 =   0.78311
 a1 =   0.30000
 a2 =   4.25000
 n  =  10.00000
 -D3 energy without 3body term =     -0.0279713202 hartrees
 ----------------------------------------------------------------
             Standard Nuclear Orientation (Angstroms)
    I     Atom           X                Y                Z
 ----------------------------------------------------------------
    1      C       0.5135029955    -0.8499804658     0.0079581191
    2      C      -0.7625175850    -0.2680612419    -0.0765794287
    3      C       1.7252146690     0.0087718121    -0.1232964813
    4      C      -0.9507117585     1.2133081133    -0.2660957044
    5      O       2.8650010357    -0.6751566928     0.1120581982
    6      O       1.7115723993     1.1837363184    -0.4117010963
    7      O      -0.7820356108     1.8742836292     0.8915315587
    8      O      -1.2928032172     1.7239393209    -1.3029399129
    9      C      -0.8477264335     3.3102966612     0.8058664116
   10      C       4.0861625905     0.0723991762    -0.0259483678
   11      C       0.6354388022    -2.2353203656     0.1716233475
   12      C      -0.5008404485    -3.0289907904     0.2503465289
   13      C      -1.7618367816    -2.4458290589     0.1613914722
   14      C      -1.9161430555    -1.0672003746    -0.0064240812
   15      H      -0.0585355743     3.6742933401     0.1464942360
   16      H       4.1827091352     0.4599843917    -1.0412657050
   17      H      -2.6476952821    -3.0691818243     0.2235498596
   18      H      -1.8193923856     3.6287101378     0.4253381199
   19      H      -0.6960244973     3.6675931329     1.8219304929
   20      H       4.8828089647    -0.6351010634     0.1929227956
   21      H       4.1053361284     0.9043610496     0.6794238020
   22      H      -0.4068160233    -4.1013022910     0.3780926114
   23      H       1.6209381238    -2.6756091656     0.2300548173
   24      C      -3.2972045071    -0.4645756416    -0.1094449872
   25      H      -3.4677202306    -0.0429246509    -1.1030906273
   26      H      -3.4357253703     0.3435113567     0.6142434987
   27      H      -4.0624956629    -1.2192733533     0.0790276123
 ----------------------------------------------------------------
 Nuclear Repulsion Energy =  1007.3630902252 hartrees
 There are       55 alpha and       55 beta electrons
 Applying Cartesian multipole field
    Component          Value
    ---------          -----
     (2,0,0)        1.00000E-11
     (0,2,0)        2.00000E-11
     (0,0,2)       -3.00000E-11
 Nucleus-field energy     =     0.0000000380 hartrees
 Requested basis set is 6-311++G(d,p)
 There are 150 shells and 414 basis functions
 A cutoff of  1.0D-11 yielded   8961 shell pairs
 There are     70599 function pairs (     75539 Cartesian)
 Smallest overlap matrix eigenvalue = 1.23E-07

 Q-Chem warning in module /fs/scratch/osu6415/qchem-kaunlao-vdw/stvman/mkSTV.C, line 281:

 Overlap eigenvalue is smaller than square root of threshold

 Linear dependence detected in AO basis
 Number of orthogonalized atomic orbitals = 411
 Maximum deviation from orthogonality = 7.464E-11
 Guess MOs from SCF MO coefficient file
 Reading MOs from coefficient file
 Reading MOs from coefficient file
 A restricted hybrid HF-DFT SCF calculation will be
 performed using Pulay DIIS extrapolation
 Exchange:     0.2000 Hartree-Fock + 0.0800 Slater + 0.7200 B88
 Correlation:  0.1900 VWN1RPA + 0.8100 LYP
 Using SG-1 standard quadrature grid
 Dispersion:   Grimme D3
 SCF converges when DIIS error is below 1.0E-08
 Geometry optimization detected.  Setting ReadMinima to 0
 Setting SaveMinima to 0
 using 20 threads for integral computing
 -------------------------------------------------------
 OpenMP Integral computing Module                
 Release: version 1.0, May 2013, Q-Chem Inc. Pittsburgh 
 -------------------------------------------------------
 -------------------------------------------------------
 OpenMP BLAS3 based DFT computing Module                
 Release: version 1.0, May 2013, Q-Chem Inc. Pittsburgh 
 -------------------------------------------------------
 ---------------------------------------
  Cycle       Energy         DIIS Error
 ---------------------------------------
    1    -727.5479324027      1.29E-04
    2    -727.5472345755      1.06E-05
    3    -727.5472307662      2.04E-05
    4    -727.5472378520      2.83E-06
    5    -727.5472379481      1.12E-06
    6    -727.5472379651      6.63E-07
    7    -727.5472379730      2.29E-07
    8    -727.5472379737      3.78E-08
    9    -727.5472379732      1.91E-08
   10    -727.5472379708      1.01E-08
   11    -727.5472379711      2.21E-09 Convergence criterion met
 ---------------------------------------
 SCF time:  CPU 452.07 s  wall 25.08 s
 SCF   energy in the final basis set = -727.54723797
 Total energy in the final basis set = -727.54723797
 
 --------------------------------------------------------------
 
                    Orbital Energies (a.u.)
 --------------------------------------------------------------
 
 Alpha MOs
 -- Occupied --
-19.178 -19.168 -19.119 -19.112 -10.312 -10.306 -10.233 -10.222
-10.207 -10.207 -10.204 -10.192 -10.192 -10.191 -10.175  -1.120
 -1.110  -1.031  -1.024  -0.885  -0.801  -0.790  -0.747  -0.726
 -0.700  -0.653  -0.624  -0.580  -0.571  -0.543  -0.519  -0.501
 -0.495  -0.489  -0.479  -0.477  -0.462  -0.444  -0.434  -0.429
 -0.423  -0.416  -0.403  -0.393  -0.381  -0.371  -0.369  -0.367
 -0.356  -0.321  -0.307  -0.293  -0.290  -0.271  -0.261
 -- Virtual --
 -0.064  -0.032  -0.010  -0.003   0.001   0.007   0.012   0.021
  0.028   0.031   0.032   0.036   0.042   0.047   0.049   0.056
  0.062   0.065   0.070   0.082   0.083   0.088   0.094   0.103
  0.106   0.110   0.111   0.114   0.118   0.120   0.123   0.126
  0.127   0.134   0.136   0.141   0.142   0.145   0.149   0.154
  0.157   0.160   0.162   0.166   0.170   0.177   0.180   0.183
  0.184   0.192   0.197   0.198   0.205   0.209   0.211   0.217
  0.222   0.228   0.230   0.236   0.244   0.254   0.262   0.266
  0.272   0.277   0.281   0.284   0.289   0.296   0.297   0.303
  0.306   0.308   0.313   0.317   0.327   0.330   0.331   0.342
  0.344   0.352   0.355   0.362   0.367   0.374   0.381   0.387
  0.394   0.396   0.404   0.415   0.416   0.429   0.439   0.453
  0.459   0.465   0.471   0.489   0.500   0.509   0.528   0.534
  0.536   0.544   0.553   0.569   0.578   0.583   0.597   0.597
  0.605   0.607   0.618   0.624   0.636   0.642   0.652   0.655
  0.660   0.663   0.672   0.676   0.683   0.686   0.696   0.701
  0.716   0.726   0.730   0.743   0.745   0.756   0.759   0.777
  0.789   0.793   0.813   0.845   0.854   0.873   0.880   0.909
  0.913   0.924   0.933   0.947   0.960   0.968   0.979   0.994
  1.005   1.030   1.038   1.044   1.061   1.065   1.074   1.078
  1.088   1.110   1.127   1.137   1.154   1.186   1.199   1.208
  1.239   1.253   1.264   1.278   1.294   1.310   1.337   1.349
  1.367   1.374   1.387   1.399   1.419   1.427   1.432   1.450
  1.456   1.463   1.479   1.490   1.512   1.522   1.525   1.533
  1.546   1.557   1.563   1.566   1.577   1.588   1.601   1.625
  1.643   1.645   1.660   1.684   1.689   1.698   1.706   1.716
  1.729   1.731   1.738   1.750   1.758   1.779   1.786   1.814
  1.822   1.850   1.873   1.886   1.891   1.905   1.923   1.930
  1.953   1.964   1.967   1.992   2.010   2.022   2.039   2.070
  2.096   2.101   2.113   2.132   2.142   2.160   2.184   2.192
  2.199   2.243   2.264   2.307   2.322   2.387   2.405   2.440
  2.445   2.455   2.481   2.489   2.507   2.511   2.524   2.527
  2.550   2.551   2.566   2.583   2.584   2.595   2.641   2.658
  2.664   2.677   2.683   2.713   2.728   2.743   2.770   2.781
  2.802   2.813   2.825   2.825   2.844   2.859   2.871   2.878
  2.901   2.913   2.929   2.939   2.970   3.003   3.029   3.040
  3.048   3.075   3.086   3.113   3.122   3.172   3.191   3.211
  3.230   3.238   3.271   3.304   3.323   3.374   3.387   3.394
  3.430   3.527   3.544   3.594   3.616   3.636   3.697   3.754
  3.768   3.790   3.799   3.823   3.854   3.855   3.928   4.036
  4.051   4.076   4.108   4.126   4.159   4.262   4.341   4.377
  4.849   5.009   5.031   5.089   5.152   5.237   5.303   5.377
  5.405   5.629   5.669   5.869   5.900  23.561  23.840  23.867
 23.915  23.932  23.935  23.945  23.982  24.063  24.080  24.173
 49.897  49.916  50.015  50.046
 --------------------------------------------------------------
 
          Ground-State Mulliken Net Atomic Charges

     Atom                 Charge (a.u.)
  ----------------------------------------
      1 C                     0.088001
      2 C                     0.776876
      3 C                    -0.054931
      4 C                    -0.946752
      5 O                    -0.104917
      6 O                    -0.223717
      7 O                     0.083261
      8 O                    -0.131905
      9 C                    -0.213428
     10 C                    -0.214786
     11 C                    -0.357831
     12 C                    -0.073460
     13 C                    -0.643946
     14 C                     0.475622
     15 H                     0.191510
     16 H                     0.186979
     17 H                     0.117370
     18 H                     0.162435
     19 H                     0.149845
     20 H                     0.153737
     21 H                     0.178861
     22 H                     0.183615
     23 H                     0.185525
     24 C                    -0.493960
     25 H                     0.191895
     26 H                     0.170030
     27 H                     0.164070
  ----------------------------------------
  Sum of atomic charges =     0.000000

 -----------------------------------------------------------------
                    Cartesian Multipole Moments
 -----------------------------------------------------------------
    Charge (ESU x 10^10)
                 0.0000
    Dipole Moment (Debye)
         X       0.6920      Y      -1.7105      Z       2.0076
       Tot       2.7267
    Quadrupole Moments (Debye-Ang)
        XX     -72.2324     XY       1.2574     YY     -79.2638
        XZ      -2.2739     YZ       5.4451     ZZ     -93.9071
    Octopole Moments (Debye-Ang^2)
       XXX      52.3613    XXY      -1.2282    XYY      -7.7814
       YYY      23.2483    XXZ       0.9515    XYZ      -3.8542
       YYZ      17.9967    XZZ      12.5975    YZZ       8.3874
       ZZZ      -1.9506
    Hexadecapole Moments (Debye-Ang^3)
      XXXX   -1935.0704   XXXY      16.1855   XXYY    -653.5720
      XYYY     -19.5573   YYYY   -1558.7360   XXXZ      -1.9876
      XXYZ       7.1018   XYYZ     -14.3100   YYYZ      22.5623
      XXZZ    -422.8774   XYZZ       1.4191   YYZZ    -353.9485
      XZZZ      -4.4938   YZZZ      13.0889   ZZZZ    -247.5613
 -----------------------------------------------------------------
 Calculating analytic gradient of the SCF energy
 Gradient of SCF Energy
            1           2           3           4           5           6
    1  -0.0000370   0.0002251   0.0000532  -0.0006077  -0.0000024  -0.0000807
    2   0.0000174   0.0000326  -0.0002603  -0.0001968   0.0000782   0.0000975
    3   0.0003718   0.0000262  -0.0009855   0.0000704   0.0003312   0.0003100
            7           8           9          10          11          12
    1   0.0002603   0.0002229   0.0000200  -0.0000230   0.0000195  -0.0000245
    2   0.0001125   0.0000812  -0.0000346  -0.0000313   0.0000162   0.0000087
    3   0.0000209  -0.0000428   0.0000032  -0.0000111  -0.0000144  -0.0000287
           13          14          15          16          17          18
    1   0.0000057  -0.0000388   0.0000178  -0.0000057  -0.0000135   0.0000155
    2   0.0000060   0.0000461   0.0000188  -0.0000171   0.0000174   0.0000087
    3   0.0000187  -0.0000814   0.0000008  -0.0000222   0.0000118   0.0000092
           19          20          21          22          23          24
    1   0.0000274   0.0000011   0.0000155  -0.0000132  -0.0000107  -0.0000286
    2   0.0000128  -0.0000166  -0.0000183   0.0000012  -0.0000141   0.0000082
    3   0.0000021  -0.0000108  -0.0000199  -0.0000029  -0.0000131  -0.0000111
           25          26          27
    1   0.0000022   0.0000017  -0.0000022
    2   0.0000098   0.0000114   0.0000045
    3   0.0000343  -0.0000010   0.0000344
 Max gradient component =       9.855E-04
 RMS gradient           =       1.587E-04
 Gradient time:  CPU 208.42 s  wall 16.42 s
 Geometry Optimization Parameters
   NAtoms,    NIC,     NZ,  NCons,   NDum,   NFix, NCnnct, MaxDiis
       27     173       0       0       0       0       0       0

 Cartesian Hessian Update
 Hessian Updated using BFGS Update


** GEOMETRY OPTIMIZATION IN DELOCALIZED INTERNAL COORDINATES **
   Searching for a Minimum

   Optimization Cycle:   2

                       Coordinates (Angstroms)
     ATOM                X               Y               Z
      1  C         0.5135029955   -0.8499804658    0.0079581191
      2  C        -0.7625175850   -0.2680612419   -0.0765794287
      3  C         1.7252146690    0.0087718121   -0.1232964813
      4  C        -0.9507117585    1.2133081133   -0.2660957044
      5  O         2.8650010357   -0.6751566928    0.1120581982
      6  O         1.7115723993    1.1837363184   -0.4117010963
      7  O        -0.7820356108    1.8742836292    0.8915315587
      8  O        -1.2928032172    1.7239393209   -1.3029399129
      9  C        -0.8477264335    3.3102966612    0.8058664116
     10  C         4.0861625905    0.0723991762   -0.0259483678
     11  C         0.6354388022   -2.2353203656    0.1716233475
     12  C        -0.5008404485   -3.0289907904    0.2503465289
     13  C        -1.7618367816   -2.4458290589    0.1613914722
     14  C        -1.9161430555   -1.0672003746   -0.0064240812
     15  H        -0.0585355743    3.6742933401    0.1464942360
     16  H         4.1827091352    0.4599843917   -1.0412657050
     17  H        -2.6476952821   -3.0691818243    0.2235498596
     18  H        -1.8193923856    3.6287101378    0.4253381199
     19  H        -0.6960244973    3.6675931329    1.8219304929
     20  H         4.8828089647   -0.6351010634    0.1929227956
     21  H         4.1053361284    0.9043610496    0.6794238020
     22  H        -0.4068160233   -4.1013022910    0.3780926114
     23  H         1.6209381238   -2.6756091656    0.2300548173
     24  C        -3.2972045071   -0.4645756416   -0.1094449872
     25  H        -3.4677202306   -0.0429246509   -1.1030906273
     26  H        -3.4357253703    0.3435113567    0.6142434987
     27  H        -4.0624956629   -1.2192733533    0.0790276123
   Point Group: c1    Number of degrees of freedom:    75


   Energy is   -727.547237971

 Hessian Updated using BFGS Update

 64 Hessian modes will be used to form the next step
  Hessian Eigenvalues:
     0.004260    0.007829    0.009314    0.010356    0.010569    0.013885
     0.016262    0.016950    0.017970    0.021843    0.022262    0.022507
     0.023001    0.023070    0.023149    0.023415    0.023716    0.066694
     0.072199    0.072633    0.101303    0.101649    0.106094    0.106259
     0.159864    0.159997    0.159999    0.160220    0.220881    0.235442
     0.249068    0.249195    0.249568    0.249916    0.249986    0.249996
     0.255662    0.313137    0.318308    0.333560    0.344024    0.344935
     0.346662    0.346905    0.346954    0.347077    0.347081    0.350774
     0.350797    0.353992    0.355177    0.358791    0.395563    0.397862
     0.417249    0.419192    0.450067    0.458390    0.462582    0.471617
     0.550181    0.563942    1.000109    1.021965

 Minimum Search - Taking Simple RFO Step
 Searching for Lamda that Minimizes Along All modes
 Value Taken    Lamda =  -0.00001235
 Step Taken.  Stepsize is  0.032455

                             Maximum     Tolerance    Cnvgd?
         Gradient           0.000410      0.000001      NO
         Displacement       0.018630      0.000001      NO
         Energy change     -0.000001      0.000000      NO


 New Cartesian Coordinates Obtained by Inverse Iteration

 Displacement from previous Coordinates is:  0.141309
 Adding empirical dispersion correction 
 ----------------------------------------------------------------
 Doing -D3(op) with
 s6 =   1.00000
 s8 =   0.78311
 a1 =   0.30000
 a2 =   4.25000
 n  =  10.00000
 -D3 energy without 3body term =     -0.0279606721 hartrees
 ----------------------------------------------------------------
             Standard Nuclear Orientation (Angstroms)
    I     Atom           X                Y                Z
 ----------------------------------------------------------------
    1      C       0.5167690432    -0.8489543372     0.0168597143
    2      C      -0.7585618506    -0.2659804039    -0.0713866012
    3      C       1.7299105356     0.0079231735    -0.1141078968
    4      C      -0.9453450651     1.2151450343    -0.2645661989
    5      O       2.8694006352    -0.6816416487     0.1054376483
    6      O       1.7179674377     1.1843762360    -0.3964985353
    7      O      -0.7954757199     1.8769039602     0.8950939044
    8      O      -1.2772987607     1.7240548964    -1.3055702465
    9      C      -0.8664075671     3.3127006407     0.8083656644
   10      C       4.0918791316     0.0629046875    -0.0379989984
   11      C       0.6370098849    -2.2346245316     0.1791547830
   12      C      -0.5000949829    -3.0273603483     0.2546852293
   13      C      -1.7603582774    -2.4430786823     0.1627394689
   14      C      -1.9129860399    -1.0642631132    -0.0050652376
   15      H      -0.0698163011     3.6800835507     0.1598710604
   16      H       4.1803549206     0.4582617502    -1.0510474474
   17      H      -2.6468836266    -3.0657532118     0.2220817273
   18      H      -1.8341454880     3.6267152607     0.4144001491
   19      H      -0.7303278852     3.6705801057     1.8264183124
   20      H       4.8879754967    -0.6490937936     0.1678387218
   21      H       4.1203902822     0.8891337630     0.6737681610
   22      H      -0.4073077971    -4.0998201050     0.3820856017
   23      H       1.6219768708    -2.6757955150     0.2399229595
   24      C      -3.2931480988    -0.4605048829    -0.1129808079
   25      H      -3.4590894978    -0.0371204195    -1.1067023997
   26      H      -3.4340937196     0.3467270562     0.6112377812
   27      H      -4.0598331406    -1.2148376623     0.0710305725
 ----------------------------------------------------------------
 Nuclear Repulsion Energy =  1007.1597159177 hartrees
 There are       55 alpha and       55 beta electrons
 Applying Cartesian multipole field
    Component          Value
    ---------          -----
     (2,0,0)        1.00000E-11
     (0,2,0)        2.00000E-11
     (0,0,2)       -3.00000E-11
 Nucleus-field energy     =     0.0000000380 hartrees
 Requested basis set is 6-311++G(d,p)
 There are 150 shells and 414 basis functions
 A cutoff of  1.0D-11 yielded   8959 shell pairs
 There are     70597 function pairs (     75538 Cartesian)
 Smallest overlap matrix eigenvalue = 1.22E-07

 Q-Chem warning in module /fs/scratch/osu6415/qchem-kaunlao-vdw/stvman/mkSTV.C, line 281:

 Overlap eigenvalue is smaller than square root of threshold

 Linear dependence detected in AO basis
 Number of orthogonalized atomic orbitals = 411
 Maximum deviation from orthogonality = 1.676E-10
 Guess MOs from SCF MO coefficient file
 Reading MOs from coefficient file
 Reading MOs from coefficient file
 A restricted hybrid HF-DFT SCF calculation will be
 performed using Pulay DIIS extrapolation
 Exchange:     0.2000 Hartree-Fock + 0.0800 Slater + 0.7200 B88
 Correlation:  0.1900 VWN1RPA + 0.8100 LYP
 Using SG-1 standard quadrature grid
 Dispersion:   Grimme D3
 SCF converges when DIIS error is below 1.0E-08
 Geometry optimization detected.  Setting ReadMinima to 0
 Setting SaveMinima to 0
 using 20 threads for integral computing
 -------------------------------------------------------
 OpenMP Integral computing Module                
 Release: version 1.0, May 2013, Q-Chem Inc. Pittsburgh 
 -------------------------------------------------------
 -------------------------------------------------------
 OpenMP BLAS3 based DFT computing Module                
 Release: version 1.0, May 2013, Q-Chem Inc. Pittsburgh 
 -------------------------------------------------------
 ---------------------------------------
  Cycle       Energy         DIIS Error
 ---------------------------------------
    1    -727.5451147607      2.13E-04
    2    -727.5472191536      2.13E-05
    3    -727.5472011411      3.88E-05
    4    -727.5472307674      6.72E-06
    5    -727.5472313869      2.81E-06
    6    -727.5472314867      1.45E-06
    7    -727.5472315261      3.38E-07
    8    -727.5472315282      8.98E-08
    9    -727.5472315284      2.76E-08
   10    -727.5472315294      1.45E-08
   11    -727.5472315283      6.32E-09 Convergence criterion met
 ---------------------------------------
 SCF time:  CPU 467.84 s  wall 26.02 s
 SCF   energy in the final basis set = -727.54723153
 Total energy in the final basis set = -727.54723153
 
 --------------------------------------------------------------
 
                    Orbital Energies (a.u.)
 --------------------------------------------------------------
 
 Alpha MOs
 -- Occupied --
-19.178 -19.168 -19.119 -19.112 -10.312 -10.306 -10.233 -10.222
-10.207 -10.207 -10.204 -10.192 -10.192 -10.191 -10.175  -1.120
 -1.110  -1.031  -1.024  -0.885  -0.801  -0.790  -0.747  -0.726
 -0.700  -0.653  -0.624  -0.580  -0.571  -0.543  -0.519  -0.501
 -0.495  -0.489  -0.479  -0.477  -0.462  -0.444  -0.434  -0.429
 -0.423  -0.416  -0.403  -0.393  -0.381  -0.371  -0.369  -0.367
 -0.356  -0.321  -0.307  -0.293  -0.290  -0.271  -0.261
 -- Virtual --
 -0.064  -0.031  -0.010  -0.003   0.001   0.007   0.012   0.021
  0.028   0.031   0.033   0.036   0.042   0.047   0.049   0.056
  0.061   0.065   0.069   0.082   0.083   0.088   0.094   0.103
  0.106   0.110   0.111   0.114   0.118   0.120   0.123   0.125
  0.127   0.134   0.136   0.141   0.142   0.145   0.149   0.154
  0.157   0.160   0.162   0.166   0.170   0.177   0.180   0.183
  0.184   0.192   0.197   0.198   0.205   0.209   0.211   0.218
  0.222   0.228   0.230   0.235   0.244   0.254   0.262   0.266
  0.272   0.277   0.281   0.284   0.289   0.296   0.297   0.303
  0.306   0.308   0.314   0.318   0.327   0.330   0.331   0.342
  0.345   0.351   0.355   0.362   0.367   0.374   0.381   0.387
  0.393   0.396   0.404   0.415   0.417   0.429   0.440   0.453
  0.459   0.466   0.471   0.489   0.501   0.509   0.528   0.535
  0.536   0.544   0.554   0.569   0.578   0.583   0.597   0.598
  0.604   0.607   0.617   0.624   0.636   0.642   0.652   0.655
  0.660   0.662   0.671   0.676   0.682   0.686   0.696   0.701
  0.716   0.726   0.730   0.743   0.745   0.756   0.758   0.777
  0.789   0.792   0.813   0.845   0.854   0.873   0.880   0.909
  0.914   0.925   0.933   0.948   0.962   0.968   0.979   0.994
  1.004   1.031   1.039   1.044   1.061   1.065   1.075   1.078
  1.086   1.110   1.127   1.137   1.153   1.185   1.199   1.207
  1.239   1.253   1.263   1.279   1.294   1.310   1.338   1.349
  1.367   1.374   1.387   1.399   1.419   1.427   1.432   1.449
  1.456   1.464   1.479   1.490   1.512   1.522   1.525   1.533
  1.546   1.558   1.562   1.566   1.576   1.588   1.601   1.624
  1.643   1.645   1.660   1.685   1.689   1.698   1.706   1.717
  1.729   1.731   1.737   1.750   1.757   1.779   1.786   1.815
  1.822   1.851   1.874   1.886   1.891   1.905   1.924   1.930
  1.953   1.964   1.967   1.991   2.009   2.022   2.039   2.070
  2.097   2.101   2.113   2.132   2.142   2.161   2.184   2.192
  2.200   2.243   2.263   2.307   2.322   2.387   2.405   2.440
  2.445   2.455   2.481   2.488   2.508   2.511   2.523   2.527
  2.549   2.551   2.566   2.583   2.585   2.595   2.640   2.657
  2.665   2.678   2.683   2.713   2.729   2.743   2.771   2.781
  2.803   2.812   2.825   2.825   2.844   2.859   2.871   2.878
  2.900   2.913   2.928   2.939   2.970   3.002   3.029   3.040
  3.047   3.076   3.086   3.113   3.122   3.173   3.192   3.211
  3.229   3.238   3.271   3.303   3.323   3.374   3.387   3.394
  3.430   3.527   3.544   3.594   3.616   3.636   3.697   3.755
  3.768   3.791   3.798   3.823   3.854   3.855   3.929   4.036
  4.051   4.076   4.108   4.125   4.160   4.262   4.341   4.377
  4.849   5.009   5.031   5.086   5.153   5.237   5.303   5.377
  5.405   5.629   5.669   5.870   5.900  23.561  23.840  23.866
 23.915  23.932  23.935  23.945  23.982  24.063  24.081  24.173
 49.897  49.917  50.015  50.046
 --------------------------------------------------------------
 
          Ground-State Mulliken Net Atomic Charges

     Atom                 Charge (a.u.)
  ----------------------------------------
      1 C                     0.086113
      2 C                     0.781522
      3 C                    -0.054630
      4 C                    -0.952246
      5 O                    -0.105782
      6 O                    -0.223065
      7 O                     0.084860
      8 O                    -0.130507
      9 C                    -0.211729
     10 C                    -0.214858
     11 C                    -0.359329
     12 C                    -0.073543
     13 C                    -0.648715
     14 C                     0.478680
     15 H                     0.191288
     16 H                     0.186885
     17 H                     0.117213
     18 H                     0.162680
     19 H                     0.149724
     20 H                     0.153496
     21 H                     0.179127
     22 H                     0.183638
     23 H                     0.186139
     24 C                    -0.492376
     25 H                     0.191467
     26 H                     0.169414
     27 H                     0.164532
  ----------------------------------------
  Sum of atomic charges =     0.000000

 -----------------------------------------------------------------
                    Cartesian Multipole Moments
 -----------------------------------------------------------------
    Charge (ESU x 10^10)
                 0.0000
    Dipole Moment (Debye)
         X       0.6679      Y      -1.7103      Z       1.9925
       Tot       2.7095
    Quadrupole Moments (Debye-Ang)
        XX     -72.1525     XY       1.1296     YY     -79.2719
        XZ      -2.2724     YZ       5.4104     ZZ     -93.9036
    Octopole Moments (Debye-Ang^2)
       XXX      52.0891    XXY      -1.1887    XYY      -8.2640
       YYY      23.2969    XXZ       0.4460    XYZ      -3.9359
       YYZ      17.8330    XZZ      12.4539    YZZ       8.3665
       ZZZ      -2.4423
    Hexadecapole Moments (Debye-Ang^3)
      XXXX   -1936.4172   XXXY      18.4312   XXYY    -653.6307
      XYYY     -17.2901   YYYY   -1558.4724   XXXZ      -1.1560
      XXYZ       6.9318   XYYZ     -13.9209   YYYZ      22.7682
      XXZZ    -423.2021   XYZZ       2.3863   YYZZ    -353.9290
      XZZZ      -3.0952   YZZZ      13.3181   ZZZZ    -247.8838
 -----------------------------------------------------------------
 Calculating analytic gradient of the SCF energy
 Gradient of SCF Energy
            1           2           3           4           5           6
    1  -0.0000057  -0.0000784   0.0000756   0.0000958  -0.0000565   0.0000728
    2   0.0000238   0.0000432  -0.0000146  -0.0001317  -0.0000507  -0.0000575
    3   0.0004621   0.0000938  -0.0001897   0.0000100   0.0000609  -0.0001089
            7           8           9          10          11          12
    1  -0.0001060  -0.0000301   0.0000072   0.0000275   0.0000119  -0.0000136
    2   0.0000959   0.0000737  -0.0000258  -0.0000241   0.0000331   0.0000093
    3   0.0000216  -0.0000016  -0.0000071  -0.0000427  -0.0001882  -0.0000441
           13          14          15          16          17          18
    1  -0.0000069  -0.0000115   0.0000339   0.0000134  -0.0000078   0.0000042
    2  -0.0000103   0.0000383  -0.0000125  -0.0000081   0.0000106   0.0000161
    3   0.0000130  -0.0001187  -0.0000100  -0.0000218   0.0000136   0.0000183
           19          20          21          22          23          24
    1   0.0000262  -0.0000092  -0.0000160  -0.0000151   0.0000083  -0.0000362
    2  -0.0000005  -0.0000179  -0.0000139   0.0000021  -0.0000067  -0.0000642
    3   0.0000054  -0.0000138  -0.0000256   0.0000040   0.0000109  -0.0000024
           25          26          27
    1   0.0000119  -0.0000089   0.0000132
    2   0.0000413   0.0000425   0.0000087
    3   0.0000412  -0.0000150   0.0000348
 Max gradient component =       4.621E-04
 RMS gradient           =       7.320E-05
 Gradient time:  CPU 205.92 s  wall 16.30 s
 Geometry Optimization Parameters
   NAtoms,    NIC,     NZ,  NCons,   NDum,   NFix, NCnnct, MaxDiis
       27     173       0       0       0       0       0       0

 Cartesian Hessian Update
 Hessian Updated using BFGS Update


** GEOMETRY OPTIMIZATION IN DELOCALIZED INTERNAL COORDINATES **
   Searching for a Minimum

   Optimization Cycle:   3

                       Coordinates (Angstroms)
     ATOM                X               Y               Z
      1  C         0.5167690432   -0.8489543372    0.0168597143
      2  C        -0.7585618506   -0.2659804039   -0.0713866012
      3  C         1.7299105356    0.0079231735   -0.1141078968
      4  C        -0.9453450651    1.2151450343   -0.2645661989
      5  O         2.8694006352   -0.6816416487    0.1054376483
      6  O         1.7179674377    1.1843762360   -0.3964985353
      7  O        -0.7954757199    1.8769039602    0.8950939044
      8  O        -1.2772987607    1.7240548964   -1.3055702465
      9  C        -0.8664075671    3.3127006407    0.8083656644
     10  C         4.0918791316    0.0629046875   -0.0379989984
     11  C         0.6370098849   -2.2346245316    0.1791547830
     12  C        -0.5000949829   -3.0273603483    0.2546852293
     13  C        -1.7603582774   -2.4430786823    0.1627394689
     14  C        -1.9129860399   -1.0642631132   -0.0050652376
     15  H        -0.0698163011    3.6800835507    0.1598710604
     16  H         4.1803549206    0.4582617502   -1.0510474474
     17  H        -2.6468836266   -3.0657532118    0.2220817273
     18  H        -1.8341454880    3.6267152607    0.4144001491
     19  H        -0.7303278852    3.6705801057    1.8264183124
     20  H         4.8879754967   -0.6490937936    0.1678387218
     21  H         4.1203902822    0.8891337630    0.6737681610
     22  H        -0.4073077971   -4.0998201050    0.3820856017
     23  H         1.6219768708   -2.6757955150    0.2399229595
     24  C        -3.2931480988   -0.4605048829   -0.1129808079
     25  H        -3.4590894978   -0.0371204195   -1.1067023997
     26  H        -3.4340937196    0.3467270562    0.6112377812
     27  H        -4.0598331406   -1.2148376623    0.0710305725
   Point Group: c1    Number of degrees of freedom:    75


   Energy is   -727.547231528

 Hessian Updated using BFGS Update

 65 Hessian modes will be used to form the next step
  Hessian Eigenvalues:
     0.003453    0.007837    0.009383    0.010361    0.010579    0.013926
     0.016290    0.017621    0.020100    0.022197    0.022388    0.022859
     0.023022    0.023086    0.023177    0.023432    0.023717    0.066923
     0.072305    0.072595    0.101319    0.101653    0.106096    0.106275
     0.159870    0.159997    0.159999    0.160041    0.160616    0.220934
     0.235085    0.249103    0.249235    0.249764    0.249939    0.249987
     0.250331    0.291381    0.313138    0.318303    0.334885    0.344036
     0.344895    0.346668    0.346906    0.346963    0.347079    0.347086
     0.350777    0.350797    0.353991    0.355177    0.358819    0.395661
     0.397958    0.418976    0.421270    0.451908    0.458357    0.462736
     0.471637    0.550202    0.563465    1.000271    1.022025

 Minimum Search - Taking Simple RFO Step
 Searching for Lamda that Minimizes Along All modes
 Value Taken    Lamda =  -0.00000889
 Step Taken.  Stepsize is  0.029027

                             Maximum     Tolerance    Cnvgd?
         Gradient           0.000442      0.000001      NO
         Displacement       0.014895      0.000001      NO
         Energy change      0.000006      0.000000      NO


 New Cartesian Coordinates Obtained by Inverse Iteration

 Displacement from previous Coordinates is:  0.070918
 Adding empirical dispersion correction 
 ----------------------------------------------------------------
 Doing -D3(op) with
 s6 =   1.00000
 s8 =   0.78311
 a1 =   0.30000
 a2 =   4.25000
 n  =  10.00000
 -D3 energy without 3body term =     -0.0279667081 hartrees
 ----------------------------------------------------------------
             Standard Nuclear Orientation (Angstroms)
    I     Atom           X                Y                Z
 ----------------------------------------------------------------
    1      C       0.5169676870    -0.8496785580     0.0172285433
    2      C      -0.7580659973    -0.2665596936    -0.0719042251
    3      C       1.7297112661     0.0087215416    -0.1067761122
    4      C      -0.9440254803     1.2145402969    -0.2663295978
    5      O       2.8701910655    -0.6836467427     0.0982412053
    6      O       1.7166434407     1.1881704562    -0.3763958484
    7      O      -0.7954030058     1.8768554171     0.8930825375
    8      O      -1.2751223282     1.7225087368    -1.3080564282
    9      C      -0.8673755032     3.3126522428     0.8057198810
   10      C       4.0920708138     0.0627115427    -0.0410506527
   11      C       0.6368921082    -2.2353472414     0.1803197560
   12      C      -0.5004474751    -3.0277886566     0.2556115180
   13      C      -1.7605665083    -2.4431819051     0.1631850820
   14      C      -1.9127319041    -1.0643510756    -0.0048841713
   15      H      -0.0701271252     3.6805271903     0.1583525757
   16      H       4.1750233173     0.4725573973    -1.0487771805
   17      H      -2.6472831191    -3.0655719382     0.2227179677
   18      H      -1.8347333593     3.6255965232     0.4100002809
   19      H      -0.7332903416     3.6709932157     1.8238619103
   20      H       4.8890588941    -0.6523840015     0.1500813090
   21      H       4.1247875175     0.8785786879     0.6824022413
   22      H      -0.4079946231    -4.1001778752     0.3838482520
   23      H       1.6216927752    -2.6765567205     0.2430928822
   24      C      -3.2925189612    -0.4598333665    -0.1131641772
   25      H      -3.4577569416    -0.0357860705    -1.1067685657
   26      H      -3.4333418437     0.3469306427     0.6116149875
   27      H      -4.0597939481    -1.2137985854     0.0698131193
 ----------------------------------------------------------------
 Nuclear Repulsion Energy =  1007.2673052791 hartrees
 There are       55 alpha and       55 beta electrons
 Applying Cartesian multipole field
    Component          Value
    ---------          -----
     (2,0,0)        1.00000E-11
     (0,2,0)        2.00000E-11
     (0,0,2)       -3.00000E-11
 Nucleus-field energy     =     0.0000000381 hartrees
 Requested basis set is 6-311++G(d,p)
 There are 150 shells and 414 basis functions
 A cutoff of  1.0D-11 yielded   8961 shell pairs
 There are     70603 function pairs (     75544 Cartesian)
 Smallest overlap matrix eigenvalue = 1.22E-07

 Q-Chem warning in module /fs/scratch/osu6415/qchem-kaunlao-vdw/stvman/mkSTV.C, line 281:

 Overlap eigenvalue is smaller than square root of threshold

 Linear dependence detected in AO basis
 Number of orthogonalized atomic orbitals = 411
 Maximum deviation from orthogonality = 3.935E-10
 Guess MOs from SCF MO coefficient file
 Reading MOs from coefficient file
 Reading MOs from coefficient file
 A restricted hybrid HF-DFT SCF calculation will be
 performed using Pulay DIIS extrapolation
 Exchange:     0.2000 Hartree-Fock + 0.0800 Slater + 0.7200 B88
 Correlation:  0.1900 VWN1RPA + 0.8100 LYP
 Using SG-1 standard quadrature grid
 Dispersion:   Grimme D3
 SCF converges when DIIS error is below 1.0E-08
 Geometry optimization detected.  Setting ReadMinima to 0
 Setting SaveMinima to 0
 using 20 threads for integral computing
 -------------------------------------------------------
 OpenMP Integral computing Module                
 Release: version 1.0, May 2013, Q-Chem Inc. Pittsburgh 
 -------------------------------------------------------
 -------------------------------------------------------
 OpenMP BLAS3 based DFT computing Module                
 Release: version 1.0, May 2013, Q-Chem Inc. Pittsburgh 
 -------------------------------------------------------
 ---------------------------------------
  Cycle       Energy         DIIS Error
 ---------------------------------------
    1    -727.5463840559      1.54E-04
    2    -727.5472338287      1.09E-05
    3    -727.5472318991      1.65E-05
    4    -727.5472375640      3.92E-06
    5    -727.5472377982      1.86E-06
    6    -727.5472378371      9.39E-07
    7    -727.5472378515      1.81E-07
    8    -727.5472378517      5.76E-08
    9    -727.5472378519      1.84E-08
   10    -727.5472378531      6.64E-09 Convergence criterion met
 ---------------------------------------
 SCF time:  CPU 428.81 s  wall 23.80 s
 SCF   energy in the final basis set = -727.54723785
 Total energy in the final basis set = -727.54723785
 
 --------------------------------------------------------------
 
                    Orbital Energies (a.u.)
 --------------------------------------------------------------
 
 Alpha MOs
 -- Occupied --
-19.178 -19.168 -19.119 -19.112 -10.312 -10.306 -10.233 -10.222
-10.207 -10.207 -10.204 -10.192 -10.192 -10.191 -10.175  -1.120
 -1.110  -1.031  -1.024  -0.885  -0.801  -0.790  -0.747  -0.726
 -0.700  -0.653  -0.624  -0.580  -0.571  -0.543  -0.519  -0.501
 -0.495  -0.489  -0.479  -0.477  -0.462  -0.444  -0.434  -0.429
 -0.423  -0.416  -0.403  -0.393  -0.381  -0.371  -0.370  -0.367
 -0.356  -0.321  -0.307  -0.293  -0.290  -0.271  -0.261
 -- Virtual --
 -0.064  -0.031  -0.010  -0.003   0.001   0.007   0.013   0.021
  0.028   0.031   0.033   0.036   0.042   0.047   0.049   0.056
  0.061   0.065   0.069   0.082   0.083   0.088   0.094   0.103
  0.106   0.110   0.111   0.114   0.118   0.120   0.123   0.125
  0.128   0.134   0.136   0.141   0.142   0.145   0.149   0.154
  0.157   0.160   0.162   0.166   0.170   0.177   0.180   0.183
  0.184   0.191   0.197   0.198   0.205   0.210   0.211   0.218
  0.222   0.228   0.230   0.235   0.244   0.254   0.262   0.266
  0.272   0.277   0.281   0.284   0.289   0.296   0.297   0.303
  0.306   0.308   0.314   0.318   0.327   0.330   0.331   0.343
  0.344   0.351   0.355   0.362   0.367   0.374   0.381   0.387
  0.394   0.396   0.404   0.415   0.417   0.429   0.440   0.453
  0.459   0.466   0.470   0.489   0.501   0.509   0.528   0.535
  0.536   0.544   0.554   0.569   0.578   0.584   0.597   0.598
  0.604   0.607   0.617   0.625   0.636   0.642   0.652   0.655
  0.660   0.662   0.670   0.676   0.682   0.686   0.696   0.701
  0.716   0.727   0.730   0.743   0.746   0.756   0.758   0.777
  0.789   0.792   0.813   0.845   0.854   0.874   0.881   0.909
  0.915   0.926   0.933   0.950   0.965   0.969   0.979   0.995
  1.003   1.032   1.039   1.044   1.061   1.065   1.076   1.078
  1.084   1.110   1.126   1.136   1.152   1.184   1.199   1.207
  1.239   1.254   1.264   1.279   1.295   1.310   1.338   1.349
  1.367   1.374   1.387   1.400   1.419   1.427   1.432   1.449
  1.457   1.465   1.479   1.491   1.512   1.522   1.525   1.534
  1.546   1.558   1.562   1.566   1.576   1.588   1.601   1.624
  1.643   1.646   1.660   1.685   1.689   1.698   1.707   1.717
  1.729   1.731   1.737   1.751   1.758   1.780   1.786   1.815
  1.822   1.851   1.875   1.886   1.892   1.905   1.923   1.930
  1.953   1.965   1.967   1.991   2.009   2.022   2.040   2.070
  2.097   2.101   2.114   2.132   2.142   2.161   2.184   2.192
  2.201   2.243   2.264   2.307   2.322   2.387   2.406   2.440
  2.445   2.455   2.481   2.488   2.508   2.511   2.522   2.527
  2.549   2.551   2.567   2.583   2.585   2.595   2.640   2.657
  2.665   2.678   2.683   2.713   2.729   2.743   2.771   2.781
  2.803   2.812   2.824   2.824   2.845   2.859   2.871   2.877
  2.900   2.913   2.929   2.939   2.970   3.003   3.029   3.041
  3.047   3.076   3.086   3.114   3.123   3.173   3.192   3.211
  3.229   3.238   3.272   3.303   3.323   3.374   3.387   3.394
  3.430   3.527   3.545   3.594   3.616   3.636   3.697   3.755
  3.768   3.791   3.798   3.823   3.854   3.855   3.928   4.036
  4.051   4.077   4.109   4.125   4.160   4.262   4.341   4.377
  4.849   5.008   5.030   5.086   5.154   5.237   5.304   5.377
  5.405   5.629   5.670   5.869   5.900  23.561  23.840  23.867
 23.915  23.932  23.935  23.945  23.983  24.063  24.081  24.173
 49.898  49.917  50.015  50.047
 --------------------------------------------------------------
 
          Ground-State Mulliken Net Atomic Charges

     Atom                 Charge (a.u.)
  ----------------------------------------
      1 C                     0.083551
      2 C                     0.784668
      3 C                    -0.055630
      4 C                    -0.952543
      5 O                    -0.107016
      6 O                    -0.222821
      7 O                     0.084807
      8 O                    -0.130622
      9 C                    -0.212217
     10 C                    -0.214321
     11 C                    -0.358404
     12 C                    -0.074558
     13 C                    -0.649042
     14 C                     0.479421
     15 H                     0.191274
     16 H                     0.186639
     17 H                     0.117154
     18 H                     0.162550
     19 H                     0.149762
     20 H                     0.153432
     21 H                     0.179409
     22 H                     0.183655
     23 H                     0.186369
     24 C                    -0.490829
     25 H                     0.191409
     26 H                     0.169352
     27 H                     0.164551
  ----------------------------------------
  Sum of atomic charges =     0.000000

 -----------------------------------------------------------------
                    Cartesian Multipole Moments
 -----------------------------------------------------------------
    Charge (ESU x 10^10)
                 0.0000
    Dipole Moment (Debye)
         X       0.6684      Y      -1.7109      Z       1.9810
       Tot       2.7016
    Quadrupole Moments (Debye-Ang)
        XX     -72.1468     XY       1.1275     YY     -79.2997
        XZ      -2.2917     YZ       5.3337     ZZ     -93.8760
    Octopole Moments (Debye-Ang^2)
       XXX      52.0588    XXY      -1.1445    XYY      -8.3468
       YYY      23.2700    XXZ       0.3322    XYZ      -4.0563
       YYZ      17.7083    XZZ      12.5153    YZZ       8.4118
       ZZZ      -2.5458
    Hexadecapole Moments (Debye-Ang^3)
      XXXX   -1935.9926   XXXY      18.4473   XXYY    -653.6771
      XYYY     -17.4310   YYYY   -1558.9975   XXXZ      -1.6767
      XXYZ       6.7135   XYYZ     -14.1312   YYYZ      22.5154
      XXZZ    -422.9645   XYZZ       2.5385   YYZZ    -353.8802
      XZZZ      -3.3334   YZZZ      13.3598   ZZZZ    -247.3249
 -----------------------------------------------------------------
 Calculating analytic gradient of the SCF energy
 Gradient of SCF Energy
            1           2           3           4           5           6
    1  -0.0000593  -0.0000857   0.0000089   0.0001474  -0.0000227  -0.0000646
    2   0.0000218  -0.0000090   0.0001621  -0.0000939  -0.0000988  -0.0000695
    3   0.0000473   0.0000250   0.0005784  -0.0002595  -0.0001835  -0.0001742
            7           8           9          10          11          12
    1   0.0001351  -0.0000997   0.0000076   0.0000514   0.0000100  -0.0000303
    2  -0.0000134   0.0000097   0.0000620  -0.0000023  -0.0000041  -0.0000131
    3   0.0000361   0.0000862  -0.0000028  -0.0000211  -0.0001801  -0.0000267
           13          14          15          16          17          18
    1  -0.0000047   0.0000229   0.0000057   0.0000160  -0.0000079   0.0000150
    2  -0.0000321   0.0000610   0.0000013  -0.0000154   0.0000070   0.0000074
    3  -0.0000122   0.0000429  -0.0000145  -0.0000232   0.0000077   0.0000123
           19          20          21          22          23          24
    1   0.0000199  -0.0000103  -0.0000237  -0.0000169  -0.0000082  -0.0000117
    2  -0.0000030  -0.0000197  -0.0000138   0.0000017   0.0000034  -0.0000495
    3   0.0000055  -0.0000184  -0.0000332   0.0000121   0.0000427   0.0000298
           25          26          27
    1   0.0000006  -0.0000062   0.0000114
    2   0.0000364   0.0000389   0.0000248
    3   0.0000079  -0.0000004   0.0000159
 Max gradient component =       5.784E-04
 RMS gradient           =       9.006E-05
 Gradient time:  CPU 207.68 s  wall 16.12 s
 Geometry Optimization Parameters
   NAtoms,    NIC,     NZ,  NCons,   NDum,   NFix, NCnnct, MaxDiis
       27     173       0       0       0       0       0       0

 Cartesian Hessian Update
 Hessian Updated using BFGS Update


** GEOMETRY OPTIMIZATION IN DELOCALIZED INTERNAL COORDINATES **
   Searching for a Minimum

   Optimization Cycle:   4

                       Coordinates (Angstroms)
     ATOM                X               Y               Z
      1  C         0.5169676870   -0.8496785580    0.0172285433
      2  C        -0.7580659973   -0.2665596936   -0.0719042251
      3  C         1.7297112661    0.0087215416   -0.1067761122
      4  C        -0.9440254803    1.2145402969   -0.2663295978
      5  O         2.8701910655   -0.6836467427    0.0982412053
      6  O         1.7166434407    1.1881704562   -0.3763958484
      7  O        -0.7954030058    1.8768554171    0.8930825375
      8  O        -1.2751223282    1.7225087368   -1.3080564282
      9  C        -0.8673755032    3.3126522428    0.8057198810
     10  C         4.0920708138    0.0627115427   -0.0410506527
     11  C         0.6368921082   -2.2353472414    0.1803197560
     12  C        -0.5004474751   -3.0277886566    0.2556115180
     13  C        -1.7605665083   -2.4431819051    0.1631850820
     14  C        -1.9127319041   -1.0643510756   -0.0048841713
     15  H        -0.0701271252    3.6805271903    0.1583525757
     16  H         4.1750233173    0.4725573973   -1.0487771805
     17  H        -2.6472831191   -3.0655719382    0.2227179677
     18  H        -1.8347333593    3.6255965232    0.4100002809
     19  H        -0.7332903416    3.6709932157    1.8238619103
     20  H         4.8890588941   -0.6523840015    0.1500813090
     21  H         4.1247875175    0.8785786879    0.6824022413
     22  H        -0.4079946231   -4.1001778752    0.3838482520
     23  H         1.6216927752   -2.6765567205    0.2430928822
     24  C        -3.2925189612   -0.4598333665   -0.1131641772
     25  H        -3.4577569416   -0.0357860705   -1.1067685657
     26  H        -3.4333418437    0.3469306427    0.6116149875
     27  H        -4.0597939481   -1.2137985854    0.0698131193
   Point Group: c1    Number of degrees of freedom:    75


   Energy is   -727.547237853

 Hessian Updated using BFGS Update

 68 Hessian modes will be used to form the next step
  Hessian Eigenvalues:
     0.002469    0.007836    0.010275    0.010479    0.011719    0.013610
     0.016045    0.017143    0.018794    0.022191    0.022452    0.022885
     0.023069    0.023133    0.023386    0.023716    0.039043    0.069978
     0.072265    0.072495    0.101307    0.101648    0.106089    0.106303
     0.159718    0.159901    0.159997    0.159999    0.160098    0.160340
     0.220931    0.234983    0.247453    0.249103    0.249691    0.249784
     0.249981    0.249987    0.249999    0.250890    0.303290    0.313139
     0.318831    0.335877    0.344034    0.344960    0.346689    0.346893
     0.346966    0.347061    0.347101    0.350774    0.350794    0.353990
     0.355177    0.358807    0.396268    0.397899    0.418803    0.426704
     0.452764    0.458405    0.463525    0.471614    0.550256    0.563578
     1.000184    1.022405

 Minimum Search - Taking Simple RFO Step
 Searching for Lamda that Minimizes Along All modes
 Value Taken    Lamda =  -0.00000816
 Step Taken.  Stepsize is  0.032696

                             Maximum     Tolerance    Cnvgd?
         Gradient           0.000244      0.000001      NO
         Displacement       0.020542      0.000001      NO
         Energy change     -0.000006      0.000000      NO


 New Cartesian Coordinates Obtained by Inverse Iteration

 Displacement from previous Coordinates is:  0.092042
 Adding empirical dispersion correction 
 ----------------------------------------------------------------
 Doing -D3(op) with
 s6 =   1.00000
 s8 =   0.78311
 a1 =   0.30000
 a2 =   4.25000
 n  =  10.00000
 -D3 energy without 3body term =     -0.0279637827 hartrees
 ----------------------------------------------------------------
             Standard Nuclear Orientation (Angstroms)
    I     Atom           X                Y                Z
 ----------------------------------------------------------------
    1      C       0.5193534966    -0.8507308195     0.0129922232
    2      C      -0.7550653405    -0.2661189215    -0.0749380497
    3      C       1.7329034387     0.0067020274    -0.1099397774
    4      C      -0.9398527035     1.2152011556    -0.2694875592
    5      O       2.8730680071    -0.6878154767     0.0893402274
    6      O       1.7205570379     1.1885478105    -0.3689717720
    7      O      -0.8050470958     1.8758289938     0.8924466773
    8      O      -1.2629804882     1.7235263890    -1.3135488003
    9      C      -0.8790989552     3.3116402504     0.8067313242
   10      C       4.0953469757     0.0589332627    -0.0440601269
   11      C       0.6375939327    -2.2361389886     0.1801166434
   12      C      -0.5006738926    -3.0269018737     0.2587544762
   13      C      -1.7601546615    -2.4409177306     0.1660702249
   14      C      -1.9106487115    -1.0622932631    -0.0047974467
   15      H      -0.0747281210     3.6824127671     0.1699514028
   16      H       4.1769528359     0.4789588716    -1.0476716731
   17      H      -2.6476340954    -3.0619639742     0.2282970772
   18      H      -1.8421500983     3.6230955752     0.3995168922
   19      H      -0.7584435835     3.6684689491     1.8270695201
   20      H       4.8919915064    -0.6588167294     0.1383978105
   21      H       4.1301054169     0.8672801461     0.6877157639
   22      H      -0.4094651784    -4.0990721393     0.3896804268
   23      H       1.6218460911    -2.6784917991     0.2431405632
   24      C      -3.2896351308    -0.4557294808    -0.1117423403
   25      H      -3.4556413981    -0.0323252816    -1.1055215536
   26      H      -3.4280994630     0.3516840052     0.6127655178
   27      H      -4.0579394017    -1.2082822655     0.0727594181
 ----------------------------------------------------------------
 Nuclear Repulsion Energy =  1007.1749942365 hartrees
 There are       55 alpha and       55 beta electrons
 Applying Cartesian multipole field
    Component          Value
    ---------          -----
     (2,0,0)        1.00000E-11
     (0,2,0)        2.00000E-11
     (0,0,2)       -3.00000E-11
 Nucleus-field energy     =     0.0000000381 hartrees
 Requested basis set is 6-311++G(d,p)
 There are 150 shells and 414 basis functions
 A cutoff of  1.0D-11 yielded   8961 shell pairs
 There are     70603 function pairs (     75544 Cartesian)
 Smallest overlap matrix eigenvalue = 1.22E-07

 Q-Chem warning in module /fs/scratch/osu6415/qchem-kaunlao-vdw/stvman/mkSTV.C, line 281:

 Overlap eigenvalue is smaller than square root of threshold

 Linear dependence detected in AO basis
 Number of orthogonalized atomic orbitals = 411
 Maximum deviation from orthogonality = 1.677E-10
 Guess MOs from SCF MO coefficient file
 Reading MOs from coefficient file
 Reading MOs from coefficient file
 A restricted hybrid HF-DFT SCF calculation will be
 performed using Pulay DIIS extrapolation
 Exchange:     0.2000 Hartree-Fock + 0.0800 Slater + 0.7200 B88
 Correlation:  0.1900 VWN1RPA + 0.8100 LYP
 Using SG-1 standard quadrature grid
 Dispersion:   Grimme D3
 SCF converges when DIIS error is below 1.0E-08
 Geometry optimization detected.  Setting ReadMinima to 0
 Setting SaveMinima to 0
 using 20 threads for integral computing
 -------------------------------------------------------
 OpenMP Integral computing Module                
 Release: version 1.0, May 2013, Q-Chem Inc. Pittsburgh 
 -------------------------------------------------------
 -------------------------------------------------------
 OpenMP BLAS3 based DFT computing Module                
 Release: version 1.0, May 2013, Q-Chem Inc. Pittsburgh 
 -------------------------------------------------------
 ---------------------------------------
  Cycle       Energy         DIIS Error
 ---------------------------------------
    1    -727.5457184882      1.65E-04
    2    -727.5472304133      1.94E-05
    3    -727.5472115656      3.68E-05
    4    -727.5472402116      5.16E-06
    5    -727.5472405437      2.58E-06
    6    -727.5472406309      1.21E-06
    7    -727.5472406576      2.70E-07
    8    -727.5472406590      8.20E-08
    9    -727.5472406591      2.31E-08
   10    -727.5472406606      1.49E-08
   11    -727.5472406596      4.48E-09 Convergence criterion met
 ---------------------------------------
 SCF time:  CPU 461.75 s  wall 25.65 s
 SCF   energy in the final basis set = -727.54724066
 Total energy in the final basis set = -727.54724066
 
 --------------------------------------------------------------
 
                    Orbital Energies (a.u.)
 --------------------------------------------------------------
 
 Alpha MOs
 -- Occupied --
-19.178 -19.168 -19.119 -19.112 -10.312 -10.306 -10.233 -10.222
-10.207 -10.207 -10.204 -10.192 -10.192 -10.190 -10.175  -1.120
 -1.110  -1.031  -1.024  -0.885  -0.801  -0.790  -0.747  -0.726
 -0.700  -0.652  -0.624  -0.580  -0.571  -0.543  -0.519  -0.501
 -0.495  -0.489  -0.479  -0.477  -0.462  -0.444  -0.434  -0.429
 -0.423  -0.416  -0.403  -0.393  -0.381  -0.371  -0.370  -0.367
 -0.356  -0.321  -0.307  -0.293  -0.290  -0.271  -0.261
 -- Virtual --
 -0.064  -0.031  -0.010  -0.003   0.001   0.007   0.012   0.021
  0.028   0.031   0.033   0.036   0.042   0.047   0.049   0.056
  0.061   0.065   0.069   0.082   0.083   0.088   0.094   0.103
  0.106   0.110   0.111   0.114   0.118   0.120   0.123   0.125
  0.128   0.134   0.136   0.141   0.142   0.145   0.149   0.154
  0.157   0.159   0.162   0.166   0.170   0.177   0.180   0.183
  0.184   0.191   0.197   0.198   0.205   0.210   0.211   0.218
  0.222   0.228   0.229   0.235   0.244   0.254   0.261   0.266
  0.272   0.277   0.281   0.283   0.289   0.296   0.297   0.303
  0.306   0.308   0.314   0.317   0.327   0.330   0.332   0.343
  0.344   0.351   0.355   0.362   0.367   0.374   0.382   0.387
  0.394   0.397   0.405   0.415   0.417   0.429   0.440   0.453
  0.459   0.467   0.470   0.489   0.501   0.509   0.528   0.535
  0.536   0.544   0.555   0.569   0.578   0.584   0.597   0.598
  0.604   0.607   0.617   0.625   0.636   0.642   0.652   0.655
  0.660   0.662   0.670   0.676   0.683   0.686   0.696   0.701
  0.716   0.727   0.730   0.743   0.746   0.756   0.758   0.777
  0.789   0.792   0.813   0.845   0.854   0.874   0.881   0.909
  0.915   0.927   0.934   0.952   0.967   0.969   0.979   0.995
  1.002   1.033   1.039   1.044   1.060   1.066   1.076   1.079
  1.084   1.110   1.125   1.136   1.150   1.184   1.198   1.207
[...]
    -0.22747030     -0.33274538      0.03310637
    -0.01770620      0.02266071     -0.00313083
    -0.05082607      0.14033207      0.05454201
    -0.08263345      0.10528584     -0.10663129
     0.12601676     -0.11352352      0.03294867
vibration 62
    -0.00711312     -0.11699204      0.01639371
    -0.02659335      0.04258883     -0.00754650
     0.03082586      0.76878414     -0.14526199
     0.02889072     -0.01837303      0.05652126
     0.01185751     -0.05212899      0.01022353
    -0.00256973     -0.48347943      0.09303490
    -0.00534279     -0.00417793     -0.00631078
    -0.01321983      0.01322609     -0.03465088
     0.00120055     -0.00206204     -0.00121364
     0.02371288      0.02335269     -0.00501795
    -0.02586172      0.01591512     -0.00165982
     0.03829767     -0.00303331      0.00071800
    -0.02148372      0.01812544     -0.00249521
     0.01696772     -0.01632814      0.00272213
     0.01450526     -0.01624907      0.01010053
    -0.14604259      0.03201301     -0.03239171
     0.01038761     -0.02861374      0.00433742
    -0.00327439      0.00193390      0.02320144
    -0.00961198      0.01528752     -0.00691597
    -0.17216029     -0.17252206      0.03404990
    -0.14327838      0.03839248      0.01862235
    -0.04156201     -0.01100968      0.00046679
    -0.05226512     -0.01117090      0.00115469
    -0.00276802      0.00241874     -0.00015530
     0.00124382      0.00615010      0.00008089
     0.00907494      0.00991515     -0.00311058
     0.01250309     -0.01343067     -0.00245221
vibration 63
     0.01079667      0.00409731     -0.00063318
    -0.02602128      0.07812612     -0.02878191
    -0.01011693     -0.06491169      0.01225547
     0.18961519     -0.38428558      0.65654262
     0.00101973      0.00473157     -0.00055070
     0.00149197      0.04209490     -0.01087424
    -0.01148061      0.00770636     -0.04981696
    -0.12216074      0.22633750     -0.43846436
     0.00420459     -0.02877743      0.00882887
    -0.00247505     -0.00248945      0.00072848
     0.00168952     -0.00425664      0.00262075
     0.00603556     -0.00182742     -0.00001831
    -0.01217343      0.00682425      0.00093891
     0.01412222     -0.01270342      0.00650888
    -0.02115847      0.10897201      0.09091426
     0.01362465     -0.00230018      0.00420271
     0.01606797     -0.02836037      0.00308593
     0.03090888      0.10796857      0.09653135
    -0.02686231      0.21560472     -0.06734264
     0.01405167      0.01414196     -0.00399718
     0.01167201     -0.00201472     -0.00259748
    -0.00217741     -0.00353008     -0.00319084
    -0.00089474     -0.01075504      0.00540983
     0.00273828      0.00612532     -0.00027871
    -0.07196546     -0.04949734     -0.00529644
     0.01864439     -0.01436481      0.02083257
    -0.02514980      0.01781385     -0.05102312
vibration 64
    -0.00032431      0.00001955     -0.00005454
     0.00054619      0.00036008     -0.00004593
     0.00012108      0.00016425     -0.00001505
    -0.00018969      0.00029808     -0.00010056
    -0.00007902     -0.00002480     -0.00000070
    -0.00001469     -0.00007967      0.00001018
     0.00008824     -0.00005671     -0.00004096
     0.00019202     -0.00007964      0.00009874
     0.00001550     -0.00004637      0.00001853
    -0.00017954     -0.00019008      0.00002342
    -0.00002207     -0.00007791      0.00000234
    -0.00012428      0.00019510     -0.00005595
     0.00121947      0.00012759      0.00002533
     0.00026209     -0.00040021      0.00017210
     0.00050343      0.00014649     -0.00030882
     0.00014300      0.00163153     -0.00376345
    -0.01128179     -0.00678175      0.00081204
    -0.00108098      0.00019438     -0.00048604
     0.00010105      0.00013004      0.00058496
     0.00220388     -0.00211494      0.00040441
     0.00010091      0.00296300      0.00301166
    -0.00038863      0.00018763      0.00002279
     0.00075596     -0.00027163      0.00022985
    -0.04127908      0.02970269      0.00011840
     0.07295008     -0.21542004      0.52158865
     0.07254314     -0.48073695     -0.44603197
     0.33621983      0.34487198     -0.07818033
vibration 65
    -0.00016769      0.00004339     -0.00000312
    -0.00000183      0.00001757      0.00009657
     0.00149724     -0.00136959      0.00029904
    -0.00023629     -0.00080200     -0.00208421
    -0.00183638     -0.00035014      0.00004587
    -0.00006506      0.00062950     -0.00010788
     0.00002915      0.00210573      0.00062830
     0.00016188     -0.00027431      0.00060673
    -0.00436782      0.03091074     -0.01090925
    -0.01956733     -0.02129009      0.00349321
    -0.00010209      0.00005406     -0.00001585
    -0.00001552     -0.00001675      0.00000193
     0.00000097     -0.00000298     -0.00000983
    -0.00004036     -0.00000776     -0.00001440
    -0.35134575     -0.15044944      0.25374134
     0.01937231      0.16718128     -0.37838830
    -0.00006296      0.00003896     -0.00000216
     0.43218046     -0.13094735      0.19666889
    -0.02823966     -0.10718731     -0.31643464
     0.21247775     -0.19770004      0.03818355
     0.01533523      0.29528073      0.29650359
    -0.00005469      0.00053709     -0.00004934
     0.00146682     -0.00007378      0.00002866
     0.00021260      0.00005070      0.00017412
    -0.00043048      0.00120931     -0.00274686
    -0.00022889      0.00020163      0.00016901
    -0.00199176     -0.00193060      0.00053471
vibration 66
     0.00024048     -0.00006264      0.00001840
    -0.00004664      0.00011450      0.00007110
    -0.00154044      0.00140139     -0.00030055
    -0.00025682     -0.00058739     -0.00181777
     0.00198196      0.00043600     -0.00006595
    -0.00003060     -0.00065188      0.00013957
     0.00003947      0.00177900      0.00052110
     0.00016365     -0.00028670      0.00055663
    -0.00381895      0.02708232     -0.00958956
     0.02239866      0.02441170     -0.00400944
     0.00008926     -0.00003951      0.00000151
    -0.00001177      0.00007171     -0.00000821
     0.00010602      0.00002659     -0.00000814
    -0.00000794      0.00001528     -0.00001673
    -0.30749349     -0.13165954      0.22209030
    -0.02219370     -0.19127884      0.43277632
    -0.00082199     -0.00057830      0.00006810
     0.37811582     -0.11462794      0.17206818
    -0.02464422     -0.09364057     -0.27637870
    -0.24257239      0.22567716     -0.04359847
    -0.01760662     -0.33766213     -0.33900197
     0.00010164     -0.00092440      0.00012333
    -0.00131546      0.00004161     -0.00004203
    -0.00014865      0.00034570      0.00012140
     0.00038679     -0.00100188      0.00251138
     0.00049348     -0.00402002     -0.00374172
     0.00090359      0.00098226     -0.00014033
vibration 67
     0.00002799     -0.00000737     -0.00003786
     0.00002322      0.00005847      0.00022459
    -0.00001358     -0.00004876     -0.00000172
     0.00007178     -0.00001490     -0.00039347
     0.00000064      0.00000639      0.00000259
    -0.00000483      0.00002556      0.00000091
    -0.00009990      0.00001779      0.00010000
     0.00013754      0.00005972      0.00011402
    -0.00007532      0.00016482     -0.00001894
    -0.00001249      0.00000386      0.00002023
     0.00001499      0.00003722     -0.00000546
    -0.00008831     -0.00005094     -0.00001455
     0.00053875      0.00021091     -0.00026616
    -0.00018948     -0.00021867     -0.00050347
    -0.00099396     -0.00048616      0.00066508
     0.00001193      0.00009365     -0.00020543
    -0.00520230     -0.00298418      0.00013085
     0.00219333     -0.00056893      0.00094372
    -0.00014326     -0.00048227     -0.00142366
     0.00012900     -0.00011299      0.00002624
     0.00001189     -0.00004114     -0.00003486
    -0.00009353      0.00117980     -0.00007464
     0.00024682     -0.00005831     -0.00003394
    -0.00851012     -0.02615238     -0.08747064
     0.09754537     -0.28919440      0.63378675
    -0.08515627      0.51583855      0.45475886
     0.08870516      0.08486658     -0.03862931
vibration 68
     0.00023288     -0.00015754      0.00005673
    -0.00000724     -0.00009577      0.00002530
     0.00000274     -0.00010475      0.00001622
     0.00027556      0.00000630      0.00028186
    -0.00002287      0.00001515     -0.00000317
    -0.00002296      0.00005475     -0.00000988
    -0.00002799     -0.00003490     -0.00004860
    -0.00016522      0.00004622     -0.00013927
    -0.00051249      0.00006987     -0.00021103
    -0.00001080      0.00006785     -0.00000855
     0.00005061      0.00011585     -0.00000970
    -0.00012778     -0.00039490      0.00003093
     0.00380265      0.00264201     -0.00026557
     0.00049491     -0.00137434      0.00027632
     0.00135479      0.00056885     -0.00114679
    -0.00001429     -0.00018252      0.00038663
    -0.04199475     -0.02645688      0.00278960
     0.00488976     -0.00144544      0.00231220
    -0.00002280      0.00047415      0.00144185
     0.00025961     -0.00023922      0.00004821
    -0.00001474     -0.00035619     -0.00033807
    -0.00064915      0.00742607     -0.00088994
    -0.00033913      0.00044877     -0.00006245
    -0.04240439     -0.07746947      0.02766254
    -0.06822756      0.14941424     -0.38563028
    -0.03989667      0.18341174      0.19051873
     0.60332696      0.59883593     -0.13790473
vibration 69
     0.00001820     -0.00004402     -0.00021521
     0.00000694      0.00001000      0.00000910
     0.00000005      0.00001920      0.00017289
    -0.00000659     -0.00001428     -0.00006272
    -0.00002173      0.00008206      0.00039862
    -0.00001781      0.00003879      0.00014672
     0.00000169      0.00000836      0.00002203
    -0.00000433     -0.00000107      0.00002634
     0.00131349      0.00008156      0.00003843
     0.00139934     -0.01814986     -0.09325053
    -0.00000847      0.00000286      0.00002465
     0.00000469     -0.00000297      0.00000297
    -0.00000267      0.00000070     -0.00000297
    -0.00000167     -0.00000404     -0.00000064
    -0.00701758     -0.00307962      0.00536789
    -0.02701427     -0.30027394      0.63514796
     0.00002195      0.00001702     -0.00000962
    -0.00864245      0.00268269     -0.00413566
     0.00006819     -0.00056458     -0.00170758
    -0.00998043      0.00611287     -0.01979971
     0.02072293      0.50860824      0.48665505
    -0.00000378      0.00004683     -0.00005113
     0.00008818     -0.00004636     -0.00014576
    -0.00000404     -0.00001814     -0.00001691
     0.00001394     -0.00003322      0.00004807
    -0.00004008      0.00016182      0.00014711
     0.00007524      0.00007307     -0.00002640
vibration 70
     0.00003816      0.00006608     -0.00000989
    -0.00024611     -0.00003108      0.00003471
    -0.00001918     -0.00018607      0.00002771
     0.00011208      0.00012630     -0.00015138
    -0.00001165      0.00003134     -0.00000199
     0.00003238      0.00011524      0.00000315
     0.00029351      0.00000931      0.00001893
     0.00014648     -0.00012097      0.00000225
    -0.09476804     -0.00554597      0.00468456
    -0.00005393     -0.00014265     -0.00131543
    -0.00003159     -0.00001313     -0.00000048
     0.00001853      0.00000764      0.00000091
    -0.00003238     -0.00001003     -0.00000020
     0.00000124     -0.00002346     -0.00000443
     0.52986282      0.23364348     -0.40673027
    -0.00038377     -0.00433846      0.00919961
     0.00035353      0.00022877     -0.00000935
     0.60496957     -0.18704794      0.29113496
    -0.01287272      0.01956247      0.06072529
     0.00079931     -0.00074014     -0.00009548
     0.00031509      0.00667927      0.00640575
     0.00003133     -0.00007597      0.00001865
     0.00026364     -0.00012453     -0.00000069
     0.00021694      0.00045093     -0.00006697
     0.00036782     -0.00062115      0.00184546
     0.00042038     -0.00137476     -0.00163479
    -0.00310221     -0.00322223      0.00069498
vibration 71
     0.00002636     -0.00011166      0.00001713
    -0.00000102      0.00000484     -0.00000110
     0.00067463      0.00106360     -0.00016611
     0.00005582     -0.00003634      0.00002578
     0.00018591     -0.00031346      0.00004330
    -0.00016944     -0.00049438      0.00009002
    -0.00001596      0.00000056     -0.00000934
    -0.00001776      0.00001451     -0.00001870
     0.00029586      0.00034704      0.00383125
    -0.05194559      0.07737805     -0.01602018
    -0.00042567      0.00017541     -0.00002601
     0.00004611     -0.00039880      0.00004851
     0.00013494      0.00010987     -0.00001026
     0.00001692     -0.00001063      0.00000130
     0.01049114      0.00435426     -0.00682520
    -0.02174155     -0.11499968      0.29151196
    -0.00182447     -0.00129481      0.00012898
    -0.01097474      0.00327806     -0.00427416
    -0.00291392     -0.01159540     -0.03434175
     0.64982219     -0.60566447      0.11752043
    -0.01778882     -0.19905930     -0.21866619
    -0.00044917      0.00465436     -0.00057566
     0.00434843     -0.00201589      0.00029069
     0.00003476      0.00004619     -0.00000632
     0.00002552     -0.00000886      0.00008054
     0.00003299     -0.00008520     -0.00010423
    -0.00047417     -0.00046726      0.00010841
vibration 72
     0.00000595     -0.00000965     -0.00000404
     0.00001868      0.00000479      0.00008102
    -0.00002509      0.00009050     -0.00002120
    -0.00022110      0.00103459     -0.00055412
     0.00004147     -0.00002670      0.00000798
     0.00001246     -0.00004649      0.00002734
     0.00006249      0.00003489      0.00032503
     0.00010167     -0.00035307      0.00034237
    -0.00374885     -0.00882281     -0.09409337
    -0.00214273      0.00311472     -0.00075237
     0.00001886     -0.00001752     -0.00000383
     0.00001612      0.00003430     -0.00000458
    -0.00026346     -0.00017009      0.00000767
    -0.00000918     -0.00000819     -0.00000412
    -0.27060328     -0.11406363      0.17887227
    -0.00089568     -0.00488121      0.01235269
     0.00294475      0.00203257     -0.00019527
     0.24246972     -0.07255465      0.09267808
     0.07240490      0.28488184      0.84385734
     0.02662751     -0.02481020      0.00480309
    -0.00066624     -0.00738687     -0.00823810
     0.00003292     -0.00055740      0.00006308
    -0.00026635      0.00008438     -0.00002373
     0.00008015      0.00014710     -0.00007791
     0.00024716     -0.00026545      0.00102355
     0.00009009     -0.00019014     -0.00042044
    -0.00118358     -0.00127990      0.00030034
vibration 73
     0.00036723     -0.00010584      0.00000133
     0.00045585      0.00016062      0.00001134
    -0.00005524     -0.00006566      0.00000869
    -0.00008701      0.00021558     -0.00002975
     0.00002302      0.00003514     -0.00000068
    -0.00000509      0.00001408     -0.00000042
     0.00000830     -0.00007875     -0.00002853
     0.00003645     -0.00007329      0.00003903
     0.00001986      0.00007735      0.00030517
    -0.00023186      0.00034483     -0.00006839
     0.00431317     -0.00270991      0.00037569
    -0.00108029      0.03923362     -0.00479443
    -0.06090334     -0.04414107      0.00438217
    -0.00138583      0.00221610     -0.00025277
     0.00059424      0.00020028     -0.00035500
    -0.00005937     -0.00049349      0.00125617
     0.71499761      0.50047766     -0.04955414
    -0.00058620      0.00010511     -0.00019206
    -0.00027793     -0.00114750     -0.00319209
     0.00282142     -0.00262076      0.00051385
    -0.00004540     -0.00086189     -0.00094105
     0.03576059     -0.46584615      0.05709472
    -0.06115513      0.02853695     -0.00397405
    -0.00250493     -0.00333922      0.00079007
    -0.00070967      0.00292296     -0.00818224
    -0.00021112      0.00612657      0.00604382
     0.03528909      0.03083877     -0.00734853
vibration 74
    -0.00025377      0.00006998      0.00000428
     0.00048623      0.00017520     -0.00000715
     0.00000666      0.00018450     -0.00002674
    -0.00006433      0.00007726     -0.00002226
    -0.00011522     -0.00013195      0.00001471
    -0.00000916     -0.00007467      0.00001216
     0.00000666     -0.00004194     -0.00001846
     0.00001744     -0.00002965      0.00002741
     0.00000797      0.00004963      0.00008172
     0.00031645     -0.00023981      0.00005962
    -0.01222057      0.00856690     -0.00114709
     0.00808016     -0.07464935      0.00921583
    -0.03633908     -0.02260897      0.00214910
    -0.00061977      0.00196087     -0.00022814
    -0.00002650     -0.00003031      0.00003243
    -0.00007742     -0.00001276     -0.00027586
     0.38860114      0.26701103     -0.02637908
     0.00001481     -0.00004511      0.00001972
    -0.00008988     -0.00038822     -0.00104646
    -0.00305649      0.00280661     -0.00054309
    -0.00009770     -0.00005404      0.00013081
    -0.07338632      0.84671597     -0.10408110
     0.17034659     -0.08087489      0.01135248
    -0.00103611     -0.00129312      0.00033924
     0.00039693      0.00061672     -0.00234702
     0.00071107      0.00111343      0.00136882
     0.01400736      0.01186290     -0.00284976
vibration 75
    -0.00026244     -0.00293851      0.00039252
     0.00067578     -0.00027787      0.00004116
    -0.00077160      0.00065889     -0.00009706
    -0.00000993     -0.00009790      0.00000773
    -0.00013121     -0.00057224      0.00007459
     0.00017969      0.00004732     -0.00001304
    -0.00000348      0.00004114      0.00001010
    -0.00001039      0.00003965     -0.00002588
     0.00002971     -0.00002696     -0.00004017
     0.00034142     -0.00028857      0.00006559
    -0.07806434      0.03508920     -0.00500388
     0.00136973      0.01880903     -0.00227232
     0.00333236      0.00092551     -0.00005501
     0.00006616     -0.00025461      0.00003028
    -0.00012154     -0.00003190      0.00008446
    -0.00012423      0.00002304     -0.00023946
    -0.02554709     -0.01613915      0.00158831
    -0.00021872      0.00009818     -0.00012499
     0.00004802      0.00019084      0.00046083
    -0.00293713      0.00277100     -0.00053726
    -0.00017056     -0.00003768      0.00007812
     0.01267252     -0.19280770      0.02362538
     0.88828757     -0.40143662      0.05684855
     0.00004370     -0.00007230      0.00003470
    -0.00002390      0.00048550     -0.00080889
    -0.00000075      0.00065433      0.00038559
    -0.00024912     -0.00022825      0.00002743
[INT]
    1.333571
    1.147205
    2.350488
    2.376699
    2.024054
    0.417741
    0.088219
    1.077440
    1.252382
    0.057802
    3.280392
    3.792175
    2.747413
   11.247854
    5.297974
   16.281401
    9.004668
    1.398549
    2.994336
    3.158944
    0.610989
    5.319058
    7.239605
    4.286580
   43.165377
   45.742163
    5.657222
    0.722037
    4.384503
   12.387442
    0.036083
    9.731760
    0.219962
    7.199690
   21.753795
    2.081844
   97.012000
   89.483153
    1.139252
   14.177924
  110.330248
    2.124454
   31.115045
  122.896055
   53.937104
  315.029164
  344.398858
   20.498548
    4.308586
   10.112722
   11.945116
   52.388310
   11.154716
   10.581391
    5.337840
    7.566632
    7.385868
   11.024620
    3.635802
   10.940677
   10.210159
  249.036103
  271.937351
   18.177673
   31.193993
   42.354034
    8.175275
   15.250718
   17.323500
   13.771014
   14.338237
   13.844166
    7.039244
   15.434505
    2.048657

======= END OF MOLDEN-FORMATTED INPUT FILE =======


        *************************************************************
        *                                                           *
        *  Thank you very much for using Q-Chem.  Have a nice day.  *
        *                                                           *
        *************************************************************


