r0172.ten.osc.edu 10.25.155
Q-Chem Developer Version! Running on 10.25.155.*
                  Welcome to Q-Chem
     A Quantum Leap Into The Future Of Chemistry


 Q-Chem 5.0, Q-Chem, Inc., Pleasanton, CA (2017)

 Yihan Shao,  Zhengting Gan,  E. Epifanovsky,  A. T. B. Gilbert,  M. Wormit,  
 J. Kussmann,  A. W. Lange,  A. Behn,  Jia Deng,  Xintian Feng,  D. Ghosh,  
 M. Goldey,  P. R. Horn,  L. D. Jacobson,  I. Kaliman,  T. Kus,  A. Landau,  
 Jie Liu,  E. I. Proynov,  R. M. Richard,  R. P. Steele,  E. J. Sundstrom,  
 H. L. Woodcock III,  P. M. Zimmerman,  D. Zuev,  B. Albrecht,  E. Alguire,  
 S. A. Baeppler,  Z. Benda,  Y. A. Bernard,  E. J. Berquist,  K. B. Bravaya,  
 D. Casanova,  Chun-Min Chang,  Yunqing Chen,  A. Chien,  K. D. Closser,  
 M. P. Coons,  S. Dasgupta,  M. Diedenhofen,  Hainam Do,  R. G. Edgar,  
 Po-Tung Fang,  S. Fatehi,  Qingguo Feng,  Qinghui Ge,  A. Ghysels,  
 J. Gomes,  J. Gonthier,  A. Gunina,  M. W. D. Hanson-Heine,  
 P. H. P. Harbach,  A. W. Hauser,  J. E. Herr,  E. G. Hohenstein,  
 Z. C. Holden,  Kerwin Hui,  T.-C. Jagau,  Hyunjun Ji,  B. Kaduk,  
 K. Khistyaev,  Jaehoon Kim,  P. Klunzinger,  K. Koh,  D. Kosenkov,  
 T. Kowalczyk,  C. M. Krauter,  A. Kunitsa,  Ka Un Lao,  A. Laurent,  
 K. V. Lawler,  Joonho Lee,  D. Lefrancois,  S. Lehtola,  D. S. Levine,  
 Yi-Pei Li,  You-Sheng Lin,  Fenglai Liu,  E. Livshits,  A. Luenser,  
 P. Manohar,  E. Mansoor,  S. F. Manzer,  Shan-Ping Mao,  Yuezhi Mao,  
 N. Mardirossian,  A. V. Marenich,  L. A. Martinez-Martinez,  S. A. Maurer,  
 N. J. Mayhall,  S. C. McKenzie,  J.-M. Mewes,  A. F. Morrison,  K. Nanda,  
 T. S. Nguyen-Beck,  R. Olivares-Amaya,  J. A. Parkhill,  T. M. Perrine,  
 F. Plasser,  S. Prager,  A. Prociuk,  D. R. Rehn,  F. Rob,  M. Schneider,  
 N. Sergueev,  S. M. Sharada,  S. Sharma,  D. W. Small,  T. Stauch,  
 T. Stein,  Yu-Chuan Su,  A. J. W. Thom,  T. Tsuchimochi,  L. Vogt,  
 O. Vydrov,  M. A. Watson,  J. Wenzel,  M. de Wergifosse,  T. A. Wesolowski,  
 A. White,  J. Witte,  A. Yamada,  Jun Yang,  K. Yao,  S. Yeganeh,  
 S. R. Yost,  Zhi-Qiang You,  A. Zech,  Igor Ying Zhang,  Xing Zhang,  
 Yan Zhao,  Ying Zhu,  B. R. Brooks,  G. K. L. Chan,  C. J. Cramer,  
 M. S. Gordon,  W. J. Hehre,  A. Klamt,  M. W. Schmidt,  C. D. Sherrill,  
 D. G. Truhlar,  A. Aspuru-Guzik,  R. Baer,  A. T. Bell,  N. A. Besley,  
 Jeng-Da Chai,  A. Dreuw,  B. D. Dunietz,  T. R. Furlani,  Chao-Ping Hsu,  
 Yousung Jung,  Jing Kong,  D. S. Lambrecht,  WanZhen Liang,  C. Ochsenfeld,  
 V. A. Rassolov,  L. V. Slipchenko,  J. E. Subotnik,  T. Van Voorhis,  
 J. M. Herbert,  A. I. Krylov,  P. M. W. Gill,  M. Head-Gordon

 Contributors to earlier versions of Q-Chem not listed above: 
 R. D. Adamson,  B. Austin,  J. Baker,  G. J. O. Beran,  K. Brandhorst,  
 S. T. Brown,  E. F. C. Byrd,  A. K. Chakraborty,  C.-L. Cheng,  
 Siu Hung Chien,  D. M. Chipman,  D. L. Crittenden,  H. Dachsel,  
 R. A. DiStasio Jr.,  R. J. Doerksen,  A. D. Dutoi,  L. Fusti-Molnar,  
 W. A. Goddard III,  A. Golubeva-Zadorozhnaya,  S. R. Gwaltney,  G. Hawkins,  
 A. Heyden,  S. Hirata,  G. Kedziora,  F. J. Keil,  C. Kelley,  Jihan Kim,  
 R. A. King,  R. Z. Khaliullin,  P. P. Korambath,  W. Kurlancheek,  
 A. M. Lee,  M. S. Lee,  S. V. Levchenko,  Ching Yeh Lin,  D. Liotard,  
 R. C. Lochan,  I. Lotan,  P. E. Maslen,  N. Nair,  D. P. O'Neill,  
 D. Neuhauser,  E. Neuscamman,  C. M. Oana,  R. Olson,  B. Peters,  
 R. Peverati,  P. A. Pieniazek,  Y. M. Rhee,  J. Ritchie,  M. A. Rohrdanz,  
 E. Rosta,  N. J. Russ,  H. F. Schaefer III,  N. E. Schultz,  N. Shenvi,  
 A. C. Simmonett,  A. Sodt,  D. Stuck,  K. S. Thanthiriwatte,  V. Vanovschi,  
 Tao Wang,  A. Warshel,  C. F. Williams,  Q. Wu,  X. Xu,  W. Zhang

 Please cite Q-Chem as follows:
 Y. Shao et al., Mol. Phys. 113, 184-215 (2015)
 DOI: 10.1080/00268976.2014.952696

 Q-Chem 5.0.1 for Intel X86 EM64T Linux

 Parts of Q-Chem use Armadillo 5.200.1 (Boston Tea Smuggler).
 http://arma.sourceforge.net/

 Q-Chem begins on Sun Oct 15 23:12:15 2017  

Host: r0172.ten.osc.edu
0

     Scratch files written to /tmp/pbstmp.1310588/01//
Processing $rem in /users/PAS0291/osu6415/.qchemrc.
molden_format             true

Checking the input file for inconsistencies... 	...done.

--------------------------------------------------------------
User input:
--------------------------------------------------------------
$molecule
0 1
C -0.08480095 -0.97199102 -0.14542644
C -0.87812942 0.18651316 -0.00002713
C 1.41243389 -0.97660291 -0.30574180
C -0.26756407 1.55023934 -0.01470104
O 2.02220537 -1.02532699 0.89285826
O 1.98560649 -1.05185480 -1.36314611
O 1.07699986 1.50696462 -0.11062002
O -0.87542417 2.59580108 0.03707606
C 1.75628252 2.76965656 -0.19314348
C 3.46005137 -1.06930939 0.86154858
C -0.67178388 -2.23570811 -0.17261039
C -2.04827167 -2.36737596 -0.04150914
C -2.83513413 -1.23385439 0.11146442
C -2.28464176 0.05192315 0.13008489
H 1.38324574 3.34727694 -1.03956583
H 3.80567784 -1.95169314 0.32091109
H -3.90908579 -1.33981763 0.21590558
H 1.61140657 3.34035487 0.72556980
H 2.80638180 2.52232788 -0.33154401
H 3.77140967 -1.10949282 1.90285855
H 3.85393403 -0.17460500 0.37636426
H -2.50530292 -3.35047461 -0.05868709
H -0.04715008 -3.11231760 -0.29729583
C -3.23665528 1.21375815 0.28700737
H -3.19280914 1.88721385 -0.57021624
H -2.99644874 1.82062318 1.16171086
H -4.25710224 0.83921619 0.38931871
$end

$rem
sym_ignore      true
jobtype         ts
method          b3lyp
basis           6-311++G(d,p)
dft_d           d3_op
mem_total       62000
MEM_STATIC      4000
ao2mo_disk      350000
max_scf_cycles  200
geom_opt_max_cycles 1000
geom_opt_tol_displacement 1
GEOM_OPT_TOL_GRADIENT       1
GEOM_OPT_TOL_ENERGY         1
$end

--------------------------------------------------------------
 Adding empirical dispersion correction 
 ----------------------------------------------------------------
 Doing -D3(op) with
 s6 =   1.00000
 s8 =   0.78311
 a1 =   0.30000
 a2 =   4.25000
 n  =  10.00000
 -D3 energy without 3body term =     -0.0282164756 hartrees
 ----------------------------------------------------------------
             Standard Nuclear Orientation (Angstroms)
    I     Atom           X                Y                Z
 ----------------------------------------------------------------
    1      C      -0.0848009500    -0.9719910200    -0.1454264400
    2      C      -0.8781294200     0.1865131600    -0.0000271300
    3      C       1.4124338900    -0.9766029100    -0.3057418000
    4      C      -0.2675640700     1.5502393400    -0.0147010400
    5      O       2.0222053700    -1.0253269900     0.8928582600
    6      O       1.9856064900    -1.0518548000    -1.3631461100
    7      O       1.0769998600     1.5069646200    -0.1106200200
    8      O      -0.8754241700     2.5958010800     0.0370760600
    9      C       1.7562825200     2.7696565600    -0.1931434800
   10      C       3.4600513700    -1.0693093900     0.8615485800
   11      C      -0.6717838800    -2.2357081100    -0.1726103900
   12      C      -2.0482716700    -2.3673759600    -0.0415091400
   13      C      -2.8351341300    -1.2338543900     0.1114644200
   14      C      -2.2846417600     0.0519231500     0.1300848900
   15      H       1.3832457400     3.3472769400    -1.0395658300
   16      H       3.8056778400    -1.9516931400     0.3209110900
   17      H      -3.9090857900    -1.3398176300     0.2159055800
   18      H       1.6114065700     3.3403548700     0.7255698000
   19      H       2.8063818000     2.5223278800    -0.3315440100
   20      H       3.7714096700    -1.1094928200     1.9028585500
   21      H       3.8539340300    -0.1746050000     0.3763642600
   22      H      -2.5053029200    -3.3504746100    -0.0586870900
   23      H      -0.0471500800    -3.1123176000    -0.2972958300
   24      C      -3.2366552800     1.2137581500     0.2870073700
   25      H      -3.1928091400     1.8872138500    -0.5702162400
   26      H      -2.9964487400     1.8206231800     1.1617108600
   27      H      -4.2571022400     0.8392161900     0.3893187100
 ----------------------------------------------------------------
 Nuclear Repulsion Energy =  1013.6186107988 hartrees
 There are       55 alpha and       55 beta electrons
 Requested basis set is 6-311++G(d,p)
 There are 150 shells and 414 basis functions

 Total QAlloc Memory Limit  62000 MB
 Mega-Array Size      3911 MB
 MEM_STATIC part      4000 MB
 A cutoff of  1.0D-11 yielded   9055 shell pairs
 There are     71271 function pairs (     76297 Cartesian)
 
 -------------------------------------------------------
 OpenMP Integral Computing Module                       
 Release: version 1.0, May 2013, Q-Chem Inc. Pittsburgh 
 -------------------------------------------------------
 Integral Job Info:
 Integral job number is                      11
 Integral operator is                         1
 short-range coefficients                     0
 long-range coefficients              100000000
 Omega coefficients                           0
 if combine SR and LR in K                    0
 Integral screening is                        0
 Integral computing path is                   2
 max size of driver memory is            800000
 size of driver memory is                593474
 size of scratch memory is              2361544
 max col of scratch BK array               1296
 max len of scratch array in speh3          155
 max len of scratch index in speh4           18
 max int batch size is                      520
 min int batch size is                       52
 fixed nKL is                                52
 max L of basis functions is                  2
 order of int derivative is                   0
 number of shells is                        150
 number of basis is                         429
 number of cartesian basis is               429
 number of contracted shell pairs          9055
 number of primitive shell pairs          20872
 maxK2 (contraction) of shell pair           36
 max number of K2 of shell pair               1
 max number of CS2 of shell pair           1663
 max number of PS2 of shell pair           3402
 mem total for path MDJ                  143512
 -------------------------------------------------------
 Smallest overlap matrix eigenvalue = 1.23E-07

 Q-Chem warning in module /fs/scratch/osu6415/qchem-kaunlao-vdw/stvman/mkSTV.C, line 281:

 Overlap eigenvalue is smaller than square root of threshold

 Linear dependence detected in AO basis
 Number of orthogonalized atomic orbitals = 412
 Maximum deviation from orthogonality = 4.909E-10

 Scale SEOQF with 1.000000e-01/1.000000e-01/1.000000e-01

 Standard Electronic Orientation quadrupole field applied
 Nucleus-field energy     =     0.0000000355 hartrees
 Guess from superposition of atomic densities
 Warning:  Energy on first SCF cycle will be non-variational
 A restricted hybrid HF-DFT SCF calculation will be
 performed using Pulay DIIS extrapolation
 Exchange:     0.2000 Hartree-Fock + 0.0800 Slater + 0.7200 B88
 Correlation:  0.1900 VWN1RPA + 0.8100 LYP
 Using SG-1 standard quadrature grid
 Dispersion:   Grimme D3
 SCF converges when DIIS error is below 1.0E-08
 using 20 threads for integral computing
 -------------------------------------------------------
 OpenMP Integral computing Module                
 Release: version 1.0, May 2013, Q-Chem Inc. Pittsburgh 
 -------------------------------------------------------
 -------------------------------------------------------
 OpenMP BLAS3 based DFT computing Module                
 Release: version 1.0, May 2013, Q-Chem Inc. Pittsburgh 
 -------------------------------------------------------
 ---------------------------------------
  Cycle       Energy         DIIS Error
 ---------------------------------------
    1    -730.6739859940      3.18E-02
    2    -727.2400161972      4.12E-03
    3    -726.7125871711      7.17E-03
    4    -727.4880910218      1.71E-03
    5    -727.5384410682      4.24E-04
    6    -727.5407846416      1.73E-04
    7    -727.5412628778      3.73E-05
    8    -727.5412840764      1.61E-05
    9    -727.5412893334      4.09E-06
   10    -727.5412896543      1.25E-06
   11    -727.5412896858      3.31E-07
   12    -727.5412896873      1.74E-07
   13    -727.5412896876      6.21E-08
   14    -727.5412896872      1.35E-08
   15    -727.5412896868      6.97E-09 Convergence criterion met
 ---------------------------------------
 SCF time:  CPU 680.43 s  wall 38.24 s
 SCF   energy in the final basis set = -727.54128969
 Total energy in the final basis set = -727.54128969
 
 --------------------------------------------------------------
 
                    Orbital Energies (a.u.)
 --------------------------------------------------------------
 
 Alpha MOs
 -- Occupied --
-19.176 -19.174 -19.117 -19.117 -10.312 -10.312 -10.232 -10.231
-10.212 -10.210 -10.208 -10.195 -10.192 -10.188 -10.167  -1.122
 -1.114  -1.030  -1.029  -0.885  -0.800  -0.793  -0.748  -0.731
 -0.699  -0.654  -0.623  -0.581  -0.576  -0.547  -0.518  -0.509
 -0.496  -0.488  -0.482  -0.479  -0.470  -0.444  -0.434  -0.429
 -0.425  -0.408  -0.404  -0.392  -0.384  -0.374  -0.373  -0.362
 -0.359  -0.323  -0.311  -0.296  -0.287  -0.273  -0.262
 -- Virtual --
 -0.065  -0.029  -0.011  -0.006   0.001   0.004   0.012   0.018
  0.025   0.033   0.035   0.037   0.039   0.042   0.048   0.054
  0.061   0.067   0.075   0.081   0.083   0.088   0.093   0.096
  0.105   0.108   0.112   0.114   0.116   0.118   0.123   0.125
  0.129   0.132   0.139   0.141   0.143   0.146   0.148   0.152
  0.156   0.157   0.161   0.165   0.172   0.176   0.180   0.182
  0.185   0.189   0.193   0.193   0.200   0.209   0.214   0.214
  0.223   0.232   0.234   0.245   0.247   0.251   0.257   0.258
  0.261   0.266   0.271   0.281   0.284   0.293   0.297   0.301
  0.307   0.310   0.311   0.317   0.319   0.324   0.330   0.333
  0.338   0.347   0.352   0.360   0.367   0.368   0.376   0.381
  0.386   0.395   0.399   0.402   0.413   0.417   0.428   0.442
  0.451   0.458   0.468   0.485   0.493   0.498   0.512   0.528
  0.534   0.541   0.555   0.560   0.568   0.576   0.586   0.593
  0.605   0.610   0.612   0.617   0.631   0.636   0.643   0.649
  0.653   0.656   0.658   0.668   0.674   0.685   0.697   0.702
  0.710   0.722   0.727   0.730   0.739   0.746   0.749   0.766
  0.777   0.789   0.799   0.821   0.832   0.860   0.865   0.896
  0.905   0.908   0.943   0.954   0.962   0.964   0.983   0.993
  0.995   1.006   1.019   1.030   1.047   1.056   1.065   1.073
  1.081   1.099   1.102   1.129   1.132   1.161   1.167   1.173
  1.212   1.237   1.258   1.277   1.288   1.300   1.335   1.343
  1.351   1.364   1.377   1.389   1.411   1.423   1.432   1.439
  1.449   1.465   1.471   1.485   1.504   1.515   1.518   1.533
  1.549   1.552   1.558   1.563   1.568   1.582   1.592   1.601
  1.625   1.641   1.654   1.666   1.681   1.696   1.708   1.709
  1.715   1.728   1.742   1.746   1.758   1.763   1.796   1.806
  1.825   1.826   1.851   1.882   1.887   1.903   1.918   1.924
  1.929   1.944   1.958   1.961   2.004   2.017   2.019   2.047
  2.055   2.072   2.107   2.111   2.115   2.139   2.179   2.196
  2.215   2.237   2.249   2.268   2.304   2.310   2.367   2.420
  2.439   2.450   2.465   2.482   2.492   2.501   2.509   2.522
  2.538   2.552   2.560   2.567   2.581   2.587   2.609   2.639
  2.650   2.673   2.691   2.694   2.706   2.723   2.755   2.767
  2.780   2.796   2.802   2.824   2.829   2.846   2.849   2.863
  2.878   2.898   2.910   2.916   2.938   2.974   2.996   3.039
  3.048   3.078   3.089   3.094   3.109   3.119   3.170   3.200
  3.223   3.239   3.255   3.260   3.272   3.312   3.374   3.389
  3.394   3.413   3.524   3.548   3.597   3.632   3.635   3.677
  3.771   3.776   3.787   3.788   3.824   3.870   3.883   3.917
  4.039   4.048   4.079   4.098   4.131   4.175   4.256   4.347
  4.386   4.842   4.994   5.055   5.067   5.173   5.239   5.277
  5.402   5.451   5.622   5.677   5.863   5.911  23.565  23.853
 23.859  23.919  23.924  23.928  23.942  23.983  24.044  24.086
 24.174  49.905  49.926  50.005  50.059
 --------------------------------------------------------------
 
          Ground-State Mulliken Net Atomic Charges

     Atom                 Charge (a.u.)
  ----------------------------------------
      1 C                     0.058578
      2 C                     0.952015
      3 C                    -0.942102
      4 C                    -0.379728
      5 O                     0.093621
      6 O                    -0.115282
      7 O                    -0.123953
      8 O                    -0.237353
      9 C                    -0.200502
     10 C                    -0.201991
     11 C                    -0.097557
     12 C                    -0.026148
     13 C                    -0.580246
     14 C                     0.312625
     15 H                     0.186335
     16 H                     0.171256
     17 H                     0.112288
     18 H                     0.191791
     19 H                     0.147584
     20 H                     0.156724
     21 H                     0.167146
     22 H                     0.182598
     23 H                     0.166502
     24 C                    -0.491793
     25 H                     0.178141
     26 H                     0.175918
     27 H                     0.143532
  ----------------------------------------
  Sum of atomic charges =     0.000000

 -----------------------------------------------------------------
                    Cartesian Multipole Moments
 -----------------------------------------------------------------
    Charge (ESU x 10^10)
                 0.0000
    Dipole Moment (Debye)
         X       0.5801      Y      -0.8399      Z       1.6728
       Tot       1.9596
    Quadrupole Moments (Debye-Ang)
        XX     -74.0835     XY       7.9674     YY     -83.5718
        XZ       5.0823     YZ      -2.3604     ZZ     -93.7449
    Octopole Moments (Debye-Ang^2)
       XXX      33.7955    XXY      -1.6208    XYY      24.4570
       YYY     -17.3460    XXZ      18.3587    XYZ      -7.2816
       YYZ      -3.8007    XZZ       5.1298    YZZ      15.7321
       ZZZ       3.2836
    Hexadecapole Moments (Debye-Ang^3)
      XXXX   -2112.1123   XXXY       6.5050   XXYY    -596.7949
      XYYY      85.3391   YYYY   -1510.0021   XXXZ      40.7524
      XXYZ     -23.3049   XYYZ       2.3905   YYYZ       0.1809
      XXZZ    -451.2399   XYZZ      -3.4360   YYZZ    -308.0743
      XZZZ      17.0731   YZZZ      -7.0698   ZZZZ    -255.6527
 -----------------------------------------------------------------
 Calculating analytic gradient of the SCF energy
 Gradient of SCF Energy
            1           2           3           4           5           6
    1  -0.0000523   0.0000409  -0.0000014   0.0000033   0.0000288  -0.0000163
    2  -0.0000477  -0.0000262   0.0002780   0.0000156  -0.0000179  -0.0002059
    3  -0.0004169   0.0003300   0.0000246   0.0002608  -0.0000120   0.0000227
            7           8           9          10          11          12
    1   0.0000171   0.0000045   0.0000129  -0.0000463  -0.0000216  -0.0000094
    2   0.0000020  -0.0000019  -0.0000300  -0.0000147  -0.0000002   0.0000068
    3  -0.0000108  -0.0002205   0.0000075  -0.0000005  -0.0000165  -0.0000102
           13          14          15          16          17          18
    1  -0.0000022  -0.0000022   0.0000139  -0.0000031  -0.0000097   0.0000165
    2   0.0000195  -0.0000068  -0.0000013  -0.0000219   0.0000198  -0.0000057
    3   0.0000252   0.0000075   0.0000038  -0.0000203  -0.0000013   0.0000028
           19          20          21          22          23          24
    1   0.0000118   0.0000094   0.0000067  -0.0000183  -0.0000166   0.0000336
    2  -0.0000103  -0.0000239  -0.0000223   0.0000135   0.0000012   0.0000629
    3  -0.0000004  -0.0000177  -0.0000185   0.0000075  -0.0000109   0.0000014
           25          26          27
    1   0.0000038  -0.0000005  -0.0000033
    2   0.0000076  -0.0000100   0.0000199
    3   0.0000183   0.0000322   0.0000121
 Max gradient component =       4.169E-04
 RMS gradient           =       8.221E-05
 Gradient time:  CPU 210.87 s  wall 17.11 s
 Geometry Optimization Parameters
   NAtoms,    NIC,     NZ,  NCons,   NDum,   NFix, NCnnct, MaxDiis
       27     173       0       0       0       0       0       0


** GEOMETRY OPTIMIZATION IN DELOCALIZED INTERNAL COORDINATES **
   Searching for a Transition State

   Optimization Cycle:   1

                       Coordinates (Angstroms)
     ATOM                X               Y               Z
      1  C        -0.0848009500   -0.9719910200   -0.1454264400
      2  C        -0.8781294200    0.1865131600   -0.0000271300
      3  C         1.4124338900   -0.9766029100   -0.3057418000
      4  C        -0.2675640700    1.5502393400   -0.0147010400
      5  O         2.0222053700   -1.0253269900    0.8928582600
      6  O         1.9856064900   -1.0518548000   -1.3631461100
      7  O         1.0769998600    1.5069646200   -0.1106200200
      8  O        -0.8754241700    2.5958010800    0.0370760600
      9  C         1.7562825200    2.7696565600   -0.1931434800
     10  C         3.4600513700   -1.0693093900    0.8615485800
     11  C        -0.6717838800   -2.2357081100   -0.1726103900
     12  C        -2.0482716700   -2.3673759600   -0.0415091400
     13  C        -2.8351341300   -1.2338543900    0.1114644200
     14  C        -2.2846417600    0.0519231500    0.1300848900
     15  H         1.3832457400    3.3472769400   -1.0395658300
     16  H         3.8056778400   -1.9516931400    0.3209110900
     17  H        -3.9090857900   -1.3398176300    0.2159055800
     18  H         1.6114065700    3.3403548700    0.7255698000
     19  H         2.8063818000    2.5223278800   -0.3315440100
     20  H         3.7714096700   -1.1094928200    1.9028585500
     21  H         3.8539340300   -0.1746050000    0.3763642600
     22  H        -2.5053029200   -3.3504746100   -0.0586870900
     23  H        -0.0471500800   -3.1123176000   -0.2972958300
     24  C        -3.2366552800    1.2137581500    0.2870073700
     25  H        -3.1928091400    1.8872138500   -0.5702162400
     26  H        -2.9964487400    1.8206231800    1.1617108600
     27  H        -4.2571022400    0.8392161900    0.3893187100
   Point Group: c1    Number of degrees of freedom:    75


   Energy is   -727.541289687


 Attempting to Generate Delocalized Internal Coordinates

 75 Hessian modes will be used to form the next step
  Hessian Eigenvalues:
     0.007825    0.008411    0.009941    0.010505    0.010859    0.013772
     0.013886    0.015694    0.017336    0.017877    0.020757    0.022435
     0.022481    0.022832    0.023219    0.023547    0.023661    0.023910
     0.071848    0.073022    0.101332    0.101451    0.105970    0.106272
     0.159998    0.160000    0.160000    0.160000    0.160000    0.160000
     0.160000    0.160000    0.160000    0.160000    0.160000    0.160000
     0.220835    0.234522    0.249053    0.249100    0.249901    0.249962
     0.249989    0.250000    0.250000    0.250000    0.250000    0.250000
     0.313267    0.317763    0.329892    0.346037    0.346547    0.346572
     0.346742    0.346938    0.346965    0.347527    0.350828    0.350909
     0.354825    0.354906    0.355645    0.397423    0.401134    0.405514
     0.415114    0.442434    0.462030    0.463089    0.473787    0.553042
     0.559522    0.997069    1.022961
**WARNING** Hessian does not have the Desired Local Structure

 Transition State Search - Taking P-RFO Step
 Searching for Lamda that Maximizes Along the Lowest mode
 Value Taken    Lamda =   0.00782470
 Searching for Lamda that Minimizes Along All other modes
 Value Taken    Lamda =  -0.00001449
 Calculated Step too Large.  Step scaled by  0.000843
 Step Taken.  Stepsize is  0.300000

                             Maximum     Tolerance    Cnvgd?
         Gradient           0.000146      0.000001      NO
         Displacement       0.226948      0.000001      NO
         Energy change     *********      0.000000      NO


 New Cartesian Coordinates Obtained by Inverse Iteration

 Displacement from previous Coordinates is:  0.403899
 Adding empirical dispersion correction 
 ----------------------------------------------------------------
 Doing -D3(op) with
 s6 =   1.00000
 s8 =   0.78311
 a1 =   0.30000
 a2 =   4.25000
 n  =  10.00000
 -D3 energy without 3body term =     -0.0282089489 hartrees
 ----------------------------------------------------------------
             Standard Nuclear Orientation (Angstroms)
    I     Atom           X                Y                Z
 ----------------------------------------------------------------
    1      C      -0.0850910316    -0.9725231521    -0.1431853939
    2      C      -0.8783073908     0.1862123592     0.0009770522
    3      C       1.4118946396    -0.9773339707    -0.3058051726
    4      C      -0.2678987318     1.5499619733    -0.0175355417
    5      O       2.0235232323    -1.0234612051     0.8919511109
    6      O       1.9834395229    -1.0547648364    -1.3639329904
    7      O       1.0765192504     1.5066108856    -0.1154450159
    8      O      -0.8757795111     2.5955737130     0.0329736817
    9      C       1.7555502284     2.7691892611    -0.2016934921
   10      C       3.4613235433    -1.0673700771     0.8585114605
   11      C      -0.6719916804    -2.2363505884    -0.1667784209
   12      C      -2.0482623692    -2.3678697954    -0.0332707792
   13      C      -2.8349983740    -1.2341002639     0.1185109378
   14      C      -2.2846037215     0.0517659963     0.1335492314
   15      H       1.3811465982     3.3449812680    -1.0487578446
   16      H       3.8062023872    -1.9508626605     0.3192090750
   17      H      -3.9087769424    -1.3399429843     0.2248370013
   18      H       1.6120418352     3.3418176114     0.7160329391
   19      H       2.8054579721     2.5216669906    -0.3411966704
   20      H       3.7742952675    -1.1053189887     1.8994215084
   21      H       3.8543657619    -0.1736564139     0.3708260980
   22      H      -2.5052234416    -3.3510459207    -0.0476543384
   23      H      -0.0474655388    -3.1131638984    -0.2905667743
   24      C      -3.2364872808     1.2138416322     0.2894749915
   25      H      -3.1070500999     1.9483484236    -0.5067933015
   26      H      -3.0731070081     1.7500970900     1.2258656781
   27      H      -4.2653862071     0.8491421514     0.2689188502
 ----------------------------------------------------------------
 Nuclear Repulsion Energy =  1013.6285481178 hartrees
 There are       55 alpha and       55 beta electrons
 Applying Cartesian multipole field
    Component          Value
    ---------          -----
     (2,0,0)        1.00000E-11
     (0,2,0)        2.00000E-11
     (0,0,2)       -3.00000E-11
 Nucleus-field energy     =     0.0000000355 hartrees
 Requested basis set is 6-311++G(d,p)
 There are 150 shells and 414 basis functions
 A cutoff of  1.0D-11 yielded   9054 shell pairs
 There are     71267 function pairs (     76293 Cartesian)
 Smallest overlap matrix eigenvalue = 1.23E-07

 Q-Chem warning in module /fs/scratch/osu6415/qchem-kaunlao-vdw/stvman/mkSTV.C, line 281:

 Overlap eigenvalue is smaller than square root of threshold

 Linear dependence detected in AO basis
 Number of orthogonalized atomic orbitals = 412
 Maximum deviation from orthogonality = 4.828E-10
 Guess MOs from SCF MO coefficient file
 Reading MOs from coefficient file
 Reading MOs from coefficient file
 A restricted hybrid HF-DFT SCF calculation will be
 performed using Pulay DIIS extrapolation
 Exchange:     0.2000 Hartree-Fock + 0.0800 Slater + 0.7200 B88
 Correlation:  0.1900 VWN1RPA + 0.8100 LYP
 Using SG-1 standard quadrature grid
 Dispersion:   Grimme D3
 SCF converges when DIIS error is below 1.0E-08
 Geometry optimization detected.  Setting ReadMinima to 0
 Setting SaveMinima to 0
 using 20 threads for integral computing
 -------------------------------------------------------
 OpenMP Integral computing Module                
 Release: version 1.0, May 2013, Q-Chem Inc. Pittsburgh 
 -------------------------------------------------------
 -------------------------------------------------------
 OpenMP BLAS3 based DFT computing Module                
 Release: version 1.0, May 2013, Q-Chem Inc. Pittsburgh 
 -------------------------------------------------------
 ---------------------------------------
  Cycle       Energy         DIIS Error
 ---------------------------------------
    1    -727.5337815213      3.13E-04
    2    -727.5410025026      5.64E-05
    3    -727.5409160482      8.96E-05
    4    -727.5410943953      1.88E-05
    5    -727.5411005288      5.87E-06
    6    -727.5411009963      3.06E-06
    7    -727.5411011396      8.52E-07
    8    -727.5411011534      2.88E-07
    9    -727.5411011549      7.49E-08
   10    -727.5411011544      3.86E-08
   11    -727.5411011542      6.90E-09 Convergence criterion met
 ---------------------------------------
 SCF time:  CPU 511.98 s  wall 29.42 s
 SCF   energy in the final basis set = -727.54110115
 Total energy in the final basis set = -727.54110115
 
 --------------------------------------------------------------
 
                    Orbital Energies (a.u.)
 --------------------------------------------------------------
 
 Alpha MOs
 -- Occupied --
-19.176 -19.174 -19.117 -19.117 -10.312 -10.312 -10.232 -10.231
-10.212 -10.210 -10.208 -10.195 -10.192 -10.188 -10.167  -1.122
 -1.115  -1.030  -1.029  -0.885  -0.800  -0.793  -0.748  -0.731
 -0.699  -0.654  -0.623  -0.581  -0.576  -0.547  -0.518  -0.509
 -0.496  -0.488  -0.482  -0.479  -0.470  -0.444  -0.434  -0.429
 -0.425  -0.408  -0.404  -0.392  -0.383  -0.374  -0.373  -0.362
 -0.359  -0.323  -0.311  -0.296  -0.287  -0.273  -0.262
 -- Virtual --
 -0.065  -0.029  -0.011  -0.006   0.001   0.004   0.012   0.018
  0.025   0.033   0.036   0.037   0.039   0.042   0.047   0.055
  0.062   0.067   0.075   0.081   0.082   0.088   0.093   0.097
  0.105   0.108   0.112   0.114   0.117   0.119   0.122   0.126
  0.128   0.131   0.139   0.141   0.143   0.147   0.148   0.152
  0.155   0.157   0.162   0.165   0.172   0.177   0.180   0.182
  0.185   0.189   0.193   0.193   0.200   0.208   0.213   0.215
  0.224   0.233   0.235   0.245   0.247   0.251   0.257   0.258
  0.261   0.267   0.270   0.281   0.284   0.293   0.297   0.302
  0.307   0.309   0.312   0.317   0.319   0.322   0.329   0.334
  0.339   0.347   0.350   0.361   0.367   0.371   0.375   0.380
  0.387   0.395   0.399   0.402   0.414   0.416   0.428   0.442
  0.452   0.458   0.469   0.486   0.493   0.499   0.511   0.529
  0.534   0.541   0.555   0.560   0.567   0.576   0.585   0.592
  0.605   0.609   0.612   0.614   0.632   0.635   0.646   0.649
  0.653   0.655   0.660   0.668   0.675   0.680   0.696   0.704
  0.710   0.723   0.729   0.730   0.738   0.747   0.749   0.766
  0.776   0.789   0.798   0.821   0.832   0.859   0.865   0.896
  0.905   0.907   0.944   0.954   0.961   0.966   0.983   0.991
  0.995   1.007   1.021   1.028   1.046   1.056   1.064   1.075
  1.081   1.098   1.102   1.129   1.133   1.159   1.166   1.175
  1.212   1.237   1.258   1.276   1.287   1.301   1.323   1.335
  1.349   1.365   1.376   1.389   1.412   1.421   1.432   1.440
  1.449   1.464   1.477   1.485   1.510   1.519   1.520   1.533
  1.548   1.551   1.559   1.563   1.567   1.583   1.593   1.603
  1.625   1.641   1.653   1.665   1.680   1.696   1.706   1.709
  1.715   1.728   1.742   1.745   1.759   1.760   1.800   1.806
  1.825   1.826   1.846   1.882   1.889   1.899   1.919   1.923
  1.930   1.942   1.959   1.962   2.003   2.016   2.023   2.045
  2.055   2.072   2.107   2.111   2.114   2.139   2.178   2.194
  2.216   2.234   2.251   2.263   2.304   2.310   2.369   2.420
  2.439   2.450   2.465   2.482   2.492   2.500   2.509   2.522
  2.538   2.552   2.565   2.568   2.580   2.588   2.609   2.639
  2.650   2.673   2.690   2.694   2.706   2.722   2.753   2.766
  2.778   2.796   2.803   2.822   2.830   2.845   2.851   2.863
  2.877   2.897   2.911   2.917   2.938   2.974   2.996   3.037
  3.048   3.073   3.083   3.092   3.110   3.118   3.170   3.200
  3.223   3.239   3.247   3.260   3.270   3.312   3.376   3.388
  3.394   3.412   3.524   3.547   3.597   3.631   3.635   3.677
  3.771   3.776   3.787   3.792   3.824   3.870   3.883   3.918
  4.039   4.048   4.079   4.097   4.131   4.175   4.256   4.346
  4.385   4.842   4.994   5.057   5.067   5.173   5.239   5.272
  5.402   5.451   5.622   5.677   5.863   5.908  23.564  23.853
 23.859  23.919  23.924  23.928  23.942  23.983  24.044  24.086
 24.174  49.905  49.926  50.005  50.058
 --------------------------------------------------------------
 
          Ground-State Mulliken Net Atomic Charges

     Atom                 Charge (a.u.)
  ----------------------------------------
      1 C                     0.065142
      2 C                     0.945696
      3 C                    -0.951029
      4 C                    -0.376451
      5 O                     0.093978
      6 O                    -0.115343
      7 O                    -0.124041
      8 O                    -0.237051
      9 C                    -0.200384
     10 C                    -0.201698
     11 C                    -0.093826
     12 C                    -0.024915
     13 C                    -0.572718
     14 C                     0.303994
     15 H                     0.186201
     16 H                     0.171267
     17 H                     0.114140
     18 H                     0.192014
     19 H                     0.147523
     20 H                     0.156694
     21 H                     0.167053
     22 H                     0.181925
     23 H                     0.166514
     24 C                    -0.493152
     25 H                     0.176256
     26 H                     0.178752
     27 H                     0.143458
  ----------------------------------------
  Sum of atomic charges =     0.000000

 -----------------------------------------------------------------
                    Cartesian Multipole Moments
 -----------------------------------------------------------------
    Charge (ESU x 10^10)
                 0.0000
    Dipole Moment (Debye)
         X       0.5876      Y      -0.8341      Z       1.6824
       Tot       1.9676
    Quadrupole Moments (Debye-Ang)
        XX     -74.0926     XY       7.9819     YY     -83.5717
        XZ       5.0012     YZ      -2.3929     ZZ     -93.7448
    Octopole Moments (Debye-Ang^2)
       XXX      34.0101    XXY      -1.6301    XYY      24.4404
       YYY     -17.2524    XXZ      18.3416    XYZ      -7.4234
       YYZ      -3.8327    XZZ       5.1184    YZZ      15.7861
       ZZZ       3.3868
    Hexadecapole Moments (Debye-Ang^3)
      XXXX   -2112.0439   XXXY       6.6769   XXYY    -597.0185
      XYYY      85.2538   YYYY   -1509.6946   XXXZ      42.7044
      XXYZ     -22.2990   XYYZ       2.5894   YYYZ       0.7667
      XXZZ    -451.3393   XYZZ      -3.3741   YYZZ    -308.2313
      XZZZ      17.9518   YZZZ      -5.3061   ZZZZ    -255.3948
 -----------------------------------------------------------------
 Calculating analytic gradient of the SCF energy
 Gradient of SCF Energy
            1           2           3           4           5           6
    1  -0.0000673   0.0000702   0.0000014  -0.0000456   0.0000430  -0.0000278
    2  -0.0000128  -0.0000045   0.0002807   0.0000542  -0.0000165  -0.0002063
    3  -0.0004031   0.0000100   0.0000561   0.0002209  -0.0000138   0.0000252
            7           8           9          10          11          12
    1   0.0000692  -0.0003703  -0.0000004  -0.0000496  -0.0000569   0.0000133
    2  -0.0000083  -0.0002147  -0.0000513  -0.0000157  -0.0000209  -0.0000044
    3   0.0000715  -0.0006338   0.0000143  -0.0000012  -0.0000291  -0.0001740
           13          14          15          16          17          18
    1  -0.0000160  -0.0000289   0.0000036  -0.0000036   0.0000187   0.0000280
    2   0.0000637   0.0000142   0.0000011  -0.0000224  -0.0000028   0.0000006
    3   0.0000632   0.0000328   0.0000012  -0.0000195   0.0000960   0.0000008
           19          20          21          22          23          24
    1   0.0000135   0.0000097   0.0000052  -0.0000157  -0.0000151   0.0004285
    2  -0.0000089  -0.0000235  -0.0000216   0.0000144  -0.0000008  -0.0003664
    3   0.0000005  -0.0000182  -0.0000179   0.0000239   0.0000090   0.0028783
           25          26          27
    1   0.0005992  -0.0006127   0.0000060
    2   0.0007193  -0.0002791   0.0001327
    3  -0.0006386  -0.0006642  -0.0008905
 Max gradient component =       2.878E-03
 RMS gradient           =       3.945E-04
 Gradient time:  CPU 211.72 s  wall 16.82 s
 Geometry Optimization Parameters
   NAtoms,    NIC,     NZ,  NCons,   NDum,   NFix, NCnnct, MaxDiis
       27     173       0       0       0       0       0       0

 Cartesian Hessian Update
 Hessian Updated using Powell/Murtagh-Sargent Update
  Mixing factors:     0.000070 Powell
                      0.999930 Murtagh-Sargent


** GEOMETRY OPTIMIZATION IN DELOCALIZED INTERNAL COORDINATES **
   Searching for a Transition State

   Optimization Cycle:   2

                       Coordinates (Angstroms)
     ATOM                X               Y               Z
      1  C        -0.0850910316   -0.9725231521   -0.1431853939
      2  C        -0.8783073908    0.1862123592    0.0009770522
      3  C         1.4118946396   -0.9773339707   -0.3058051726
      4  C        -0.2678987318    1.5499619733   -0.0175355417
      5  O         2.0235232323   -1.0234612051    0.8919511109
      6  O         1.9834395229   -1.0547648364   -1.3639329904
      7  O         1.0765192504    1.5066108856   -0.1154450159
      8  O        -0.8757795111    2.5955737130    0.0329736817
      9  C         1.7555502284    2.7691892611   -0.2016934921
     10  C         3.4613235433   -1.0673700771    0.8585114605
     11  C        -0.6719916804   -2.2363505884   -0.1667784209
     12  C        -2.0482623692   -2.3678697954   -0.0332707792
     13  C        -2.8349983740   -1.2341002639    0.1185109378
     14  C        -2.2846037215    0.0517659963    0.1335492314
     15  H         1.3811465982    3.3449812680   -1.0487578446
     16  H         3.8062023872   -1.9508626605    0.3192090750
     17  H        -3.9087769424   -1.3399429843    0.2248370013
     18  H         1.6120418352    3.3418176114    0.7160329391
     19  H         2.8054579721    2.5216669906   -0.3411966704
     20  H         3.7742952675   -1.1053189887    1.8994215084
     21  H         3.8543657619   -0.1736564139    0.3708260980
     22  H        -2.5052234416   -3.3510459207   -0.0476543384
     23  H        -0.0474655388   -3.1131638984   -0.2905667743
     24  C        -3.2364872808    1.2138416322    0.2894749915
     25  H        -3.1070500999    1.9483484236   -0.5067933015
     26  H        -3.0731070081    1.7500970900    1.2258656781
     27  H        -4.2653862071    0.8491421514    0.2689188502
   Point Group: c1    Number of degrees of freedom:    75


   Energy is   -727.541101154

 Hessian Updated using Powell/Murtagh-Sargent Update
  Mixing factors:     0.844987 Powell
                      0.155013 Murtagh-Sargent

 75 Hessian modes will be used to form the next step
  Hessian Eigenvalues:
     0.002741    0.008412    0.010203    0.010505    0.010859    0.013772
     0.013936    0.015701    0.017386    0.017918    0.020828    0.022435
     0.022484    0.022832    0.023221    0.023547    0.023663    0.023910
     0.071840    0.072828    0.101332    0.101451    0.105970    0.106272
     0.159639    0.159998    0.160000    0.160000    0.160000    0.160000
     0.160000    0.160000    0.160000    0.160000    0.160000    0.160000
     0.220831    0.234505    0.248890    0.249100    0.249160    0.249940
     0.249966    0.249993    0.250000    0.250000    0.250000    0.250000
     0.313264    0.317763    0.329844    0.346016    0.346048    0.346572
     0.346742    0.346769    0.346938    0.347527    0.350828    0.350909
     0.354825    0.354906    0.355645    0.397423    0.401134    0.405424
     0.415111    0.442433    0.462030    0.463089    0.473786    0.553041
     0.559522    0.997069    1.022961
**WARNING** Hessian does not have the Desired Local Structure

 Transition State Search - Taking P-RFO Step
 Searching for Lamda that Maximizes Along the Lowest mode
 Value Taken    Lamda =   0.00292708
 Searching for Lamda that Minimizes Along All other modes
 Value Taken    Lamda =  -0.00019016
 Calculated Step too Large.  Step scaled by  0.075572
 Step Taken.  Stepsize is  0.300000

                             Maximum     Tolerance    Cnvgd?
         Gradient           0.001079      0.000001      NO
         Displacement       0.201975      0.000001      NO
         Energy change      0.000189      0.000000      NO


 New Cartesian Coordinates Obtained by Inverse Iteration

 Displacement from previous Coordinates is:  0.412260
 Adding empirical dispersion correction 
 ----------------------------------------------------------------
 Doing -D3(op) with
 s6 =   1.00000
 s8 =   0.78311
 a1 =   0.30000
 a2 =   4.25000
 n  =  10.00000
 -D3 energy without 3body term =     -0.0282273866 hartrees
 ----------------------------------------------------------------
             Standard Nuclear Orientation (Angstroms)
    I     Atom           X                Y                Z
 ----------------------------------------------------------------
    1      C      -0.0877118618    -0.9716274799    -0.1499092607
    2      C      -0.8809623815     0.1878088341    -0.0104301483
    3      C       1.4091528778    -0.9766149198    -0.3136296744
    4      C      -0.2645606005     1.5496003574    -0.0175211468
    5      O       2.0213804181    -1.0131907704     0.8841596981
    6      O       1.9801916447    -1.0610841775    -1.3714972265
    7      O       1.0774975348     1.5005512557    -0.1411961245
    8      O      -0.8617744201     2.5975895337     0.0846901311
    9      C       1.7635841712     2.7607508157    -0.2034376307
   10      C       3.4592218970    -1.0558626856     0.8506643184
   11      C      -0.6727071508    -2.2364481863    -0.1577848798
   12      C      -2.0474300651    -2.3688516530    -0.0108430295
   13      C      -2.8348937718    -1.2346083729     0.1324209641
   14      C      -2.2874719222     0.0526627077     0.1253069795
   15      H       1.3787711965     3.3627973651    -1.0272464013
   16      H       3.8048925286    -1.9429258285     0.3177744103
   17      H      -3.9081692392    -1.3407869662     0.2436422445
   18      H       1.6396086296     3.3078711600     0.7325191868
   19      H       2.8092391288     2.5106181407    -0.3679647399
   20      H       3.7724391552    -1.0858826761     1.8917644689
   21      H       3.8512463806    -0.1653299652     0.3563912531
   22      H      -2.5029188930    -3.3528195616    -0.0114087991
   23      H      -0.0475128655    -3.1135195852    -0.2762593940
   24      C      -3.2438989709     1.2126075015     0.2703599842
   25      H      -3.0472703032     1.9962271811    -0.4603035579
   26      H      -3.1552847440     1.6829603583     1.2526839658
   27      H      -4.2693274632     0.8589522174     0.1454982885
 ----------------------------------------------------------------
 Nuclear Repulsion Energy =  1013.8277376578 hartrees
 There are       55 alpha and       55 beta electrons
 Applying Cartesian multipole field
    Component          Value
    ---------          -----
     (2,0,0)        1.00000E-11
     (0,2,0)        2.00000E-11
     (0,0,2)       -3.00000E-11
 Nucleus-field energy     =     0.0000000355 hartrees
 Requested basis set is 6-311++G(d,p)
 There are 150 shells and 414 basis functions
 A cutoff of  1.0D-11 yielded   9056 shell pairs
 There are     71299 function pairs (     76325 Cartesian)
 Smallest overlap matrix eigenvalue = 1.24E-07

 Q-Chem warning in module /fs/scratch/osu6415/qchem-kaunlao-vdw/stvman/mkSTV.C, line 281:

 Overlap eigenvalue is smaller than square root of threshold

 Linear dependence detected in AO basis
 Number of orthogonalized atomic orbitals = 412
 Maximum deviation from orthogonality = 4.439E-10
 Guess MOs from SCF MO coefficient file
 Reading MOs from coefficient file
 Reading MOs from coefficient file
 A restricted hybrid HF-DFT SCF calculation will be
 performed using Pulay DIIS extrapolation
 Exchange:     0.2000 Hartree-Fock + 0.0800 Slater + 0.7200 B88
 Correlation:  0.1900 VWN1RPA + 0.8100 LYP
 Using SG-1 standard quadrature grid
 Dispersion:   Grimme D3
 SCF converges when DIIS error is below 1.0E-08
 Geometry optimization detected.  Setting ReadMinima to 0
 Setting SaveMinima to 0
 using 20 threads for integral computing
 -------------------------------------------------------
 OpenMP Integral computing Module                
 Release: version 1.0, May 2013, Q-Chem Inc. Pittsburgh 
 -------------------------------------------------------
 -------------------------------------------------------
 OpenMP BLAS3 based DFT computing Module                
 Release: version 1.0, May 2013, Q-Chem Inc. Pittsburgh 
 -------------------------------------------------------
 ---------------------------------------
  Cycle       Energy         DIIS Error
 ---------------------------------------
    1    -727.5276837641      6.01E-04
    2    -727.5406199575      8.09E-05
    3    -727.5403401812      1.50E-04
    4    -727.5407933463      2.44E-05
    5    -727.5408018287      1.05E-05
    6    -727.5408031787      5.36E-06
    7    -727.5408037099      1.42E-06
    8    -727.5408037469      5.05E-07
    9    -727.5408037509      1.35E-07
   10    -727.5408037514      6.76E-08
   11    -727.5408037518      2.19E-08
   12    -727.5408037497      6.05E-09 Convergence criterion met
 ---------------------------------------
 SCF time:  CPU 541.25 s  wall 30.82 s
 SCF   energy in the final basis set = -727.54080375
 Total energy in the final basis set = -727.54080375
 
 --------------------------------------------------------------
 
                    Orbital Energies (a.u.)
 --------------------------------------------------------------
 
 Alpha MOs
 -- Occupied --
-19.176 -19.174 -19.117 -19.117 -10.313 -10.312 -10.232 -10.231
-10.212 -10.210 -10.209 -10.195 -10.192 -10.188 -10.167  -1.122
 -1.114  -1.030  -1.029  -0.885  -0.800  -0.793  -0.748  -0.731
 -0.699  -0.654  -0.623  -0.581  -0.576  -0.547  -0.518  -0.510
 -0.496  -0.488  -0.482  -0.479  -0.470  -0.444  -0.434  -0.429
 -0.425  -0.408  -0.405  -0.392  -0.383  -0.374  -0.373  -0.362
 -0.359  -0.323  -0.310  -0.296  -0.287  -0.273  -0.261
 -- Virtual --
 -0.065  -0.029  -0.011  -0.006   0.001   0.004   0.012   0.019
  0.025   0.033   0.036   0.037   0.039   0.042   0.046   0.055
  0.062   0.067   0.075   0.081   0.083   0.087   0.094   0.097
  0.105   0.107   0.112   0.114   0.117   0.119   0.122   0.126
  0.128   0.130   0.139   0.142   0.143   0.147   0.148   0.152
  0.155   0.158   0.162   0.165   0.173   0.176   0.179   0.183
  0.186   0.190   0.192   0.193   0.200   0.206   0.212   0.216
  0.225   0.233   0.234   0.244   0.245   0.252   0.257   0.258
  0.261   0.267   0.270   0.281   0.284   0.294   0.297   0.303
  0.306   0.307   0.312   0.316   0.319   0.321   0.329   0.334
  0.340   0.345   0.350   0.359   0.365   0.371   0.374   0.380
  0.388   0.395   0.400   0.402   0.414   0.414   0.427   0.442
  0.451   0.457   0.473   0.487   0.494   0.499   0.510   0.529
  0.534   0.539   0.555   0.560   0.566   0.574   0.584   0.591
  0.605   0.607   0.611   0.613   0.632   0.634   0.647   0.649
  0.652   0.654   0.662   0.668   0.675   0.677   0.696   0.708
  0.711   0.723   0.729   0.732   0.738   0.747   0.749   0.765
  0.776   0.788   0.798   0.820   0.832   0.860   0.865   0.896
  0.904   0.905   0.941   0.954   0.961   0.968   0.983   0.988
  0.996   1.008   1.024   1.028   1.045   1.056   1.066   1.075
  1.082   1.099   1.102   1.128   1.132   1.158   1.167   1.174
  1.212   1.236   1.258   1.275   1.282   1.301   1.307   1.332
  1.347   1.367   1.378   1.389   1.412   1.421   1.432   1.439
  1.450   1.463   1.480   1.485   1.511   1.520   1.532   1.534
  1.542   1.552   1.559   1.562   1.569   1.583   1.593   1.606
  1.625   1.642   1.653   1.663   1.678   1.696   1.703   1.710
  1.715   1.728   1.741   1.745   1.755   1.760   1.800   1.811
  1.825   1.826   1.838   1.879   1.888   1.899   1.917   1.925
  1.931   1.942   1.961   1.964   2.001   2.016   2.027   2.044
  2.055   2.072   2.107   2.111   2.114   2.140   2.174   2.189
  2.216   2.230   2.254   2.259   2.303   2.314   2.368   2.420
  2.439   2.450   2.465   2.481   2.491   2.500   2.509   2.522
  2.540   2.550   2.569   2.572   2.581   2.589   2.614   2.642
  2.649   2.672   2.690   2.695   2.708   2.719   2.750   2.767
  2.778   2.796   2.804   2.819   2.831   2.843   2.853   2.862
  2.877   2.896   2.907   2.918   2.936   2.974   2.996   3.033
  3.047   3.055   3.083   3.091   3.111   3.118   3.169   3.201
  3.222   3.232   3.241   3.259   3.269   3.312   3.377   3.388
  3.394   3.411   3.524   3.547   3.597   3.631   3.635   3.677
  3.771   3.777   3.788   3.795   3.824   3.870   3.881   3.918
  4.039   4.048   4.079   4.097   4.131   4.174   4.256   4.345
  4.386   4.841   4.992   5.058   5.069   5.173   5.240   5.268
  5.402   5.452   5.623   5.677   5.863   5.904  23.563  23.853
 23.858  23.918  23.924  23.927  23.941  23.982  24.043  24.086
 24.174  49.904  49.927  50.005  50.058
 --------------------------------------------------------------
 
          Ground-State Mulliken Net Atomic Charges

     Atom                 Charge (a.u.)
  ----------------------------------------
      1 C                     0.064445
      2 C                     0.928511
      3 C                    -0.947146
      4 C                    -0.361778
      5 O                     0.091475
      6 O                    -0.116780
      7 O                    -0.124304
      8 O                    -0.237359
      9 C                    -0.200848
     10 C                    -0.201899
     11 C                    -0.091321
     12 C                    -0.021302
     13 C                    -0.548213
     14 C                     0.275574
     15 H                     0.185701
     16 H                     0.171484
     17 H                     0.119729
     18 H                     0.192888
     19 H                     0.148507
     20 H                     0.156814
     21 H                     0.166352
     22 H                     0.180251
     23 H                     0.166417
     24 C                    -0.496241
     25 H                     0.175130
     26 H                     0.182764
     27 H                     0.141148
  ----------------------------------------
  Sum of atomic charges =     0.000000

 -----------------------------------------------------------------
                    Cartesian Multipole Moments
 -----------------------------------------------------------------
    Charge (ESU x 10^10)
                 0.0000
    Dipole Moment (Debye)
         X       0.5733      Y      -0.8289      Z       1.6517
       Tot       1.9349
    Quadrupole Moments (Debye-Ang)
        XX     -73.9839     XY       8.0043     YY     -83.6553
        XZ       5.0518     YZ      -2.7551     ZZ     -93.8034
    Octopole Moments (Debye-Ang^2)
       XXX      33.8007    XXY      -1.2594    XYY      24.2092
       YYY     -17.5063    XXZ      18.4139    XYZ      -7.0111
       YYZ      -4.3860    XZZ       4.9926    YZZ      15.7457
       ZZZ       3.7652
    Hexadecapole Moments (Debye-Ang^3)
      XXXX   -2113.2239   XXXY       5.1546   XXYY    -596.8309
      XYYY      82.9904   YYYY   -1506.4319   XXXZ      44.5808
      XXYZ     -22.5664   XYYZ       3.7218   YYYZ      -3.7414
      XXZZ    -451.3566   XYZZ      -3.5825   YYZZ    -308.1962
      XZZZ      20.1512   YZZZ      -5.2880   ZZZZ    -255.2397
 -----------------------------------------------------------------
 Calculating analytic gradient of the SCF energy
 Gradient of SCF Energy
            1           2           3           4           5           6
    1  -0.0001345   0.0003568  -0.0000424  -0.0000809  -0.0000221  -0.0000150
    2   0.0001480  -0.0000445   0.0002132   0.0001494   0.0001005  -0.0000181
    3  -0.0006791   0.0001482   0.0004124  -0.0023678  -0.0001408  -0.0000657
            7           8           9          10          11          12
    1   0.0001709  -0.0000267   0.0000085  -0.0000165  -0.0001776   0.0001259
    2  -0.0002804  -0.0001207   0.0000150  -0.0000198  -0.0000432  -0.0000385
    3   0.0013332   0.0002930  -0.0001693   0.0000063  -0.0001158  -0.0000947
           13          14          15          16          17          18
    1   0.0000238  -0.0004826  -0.0000272  -0.0000016   0.0000525   0.0000378
    2   0.0001079  -0.0000057  -0.0000145  -0.0000296  -0.0000068  -0.0000203
    3   0.0008085  -0.0001288   0.0000077  -0.0000115   0.0000862   0.0000149
           19          20          21          22          23          24
    1   0.0000138   0.0000046   0.0000034  -0.0000128  -0.0000166   0.0000460
    2   0.0000121  -0.0000201  -0.0000264   0.0000161  -0.0000106  -0.0006515
    3   0.0000252  -0.0000170  -0.0000051  -0.0000695   0.0000532   0.0023474
           25          26          27
    1   0.0007491  -0.0005846   0.0000481
    2   0.0006439  -0.0002282   0.0001728
    3  -0.0002139  -0.0003861  -0.0010712
 Max gradient component =       2.368E-03
 RMS gradient           =       4.747E-04
 Gradient time:  CPU 213.57 s  wall 16.62 s
 Geometry Optimization Parameters
   NAtoms,    NIC,     NZ,  NCons,   NDum,   NFix, NCnnct, MaxDiis
       27     173       0       0       0       0       0       0

 Cartesian Hessian Update
 Hessian Updated using Powell/Murtagh-Sargent Update
  Mixing factors:     0.724183 Powell
                      0.275817 Murtagh-Sargent


** GEOMETRY OPTIMIZATION IN DELOCALIZED INTERNAL COORDINATES **
   Searching for a Transition State

   Optimization Cycle:   3

                       Coordinates (Angstroms)
     ATOM                X               Y               Z
      1  C        -0.0877118618   -0.9716274799   -0.1499092607
      2  C        -0.8809623815    0.1878088341   -0.0104301483
      3  C         1.4091528778   -0.9766149198   -0.3136296744
      4  C        -0.2645606005    1.5496003574   -0.0175211468
      5  O         2.0213804181   -1.0131907704    0.8841596981
      6  O         1.9801916447   -1.0610841775   -1.3714972265
      7  O         1.0774975348    1.5005512557   -0.1411961245
      8  O        -0.8617744201    2.5975895337    0.0846901311
      9  C         1.7635841712    2.7607508157   -0.2034376307
     10  C         3.4592218970   -1.0558626856    0.8506643184
     11  C        -0.6727071508   -2.2364481863   -0.1577848798
     12  C        -2.0474300651   -2.3688516530   -0.0108430295
     13  C        -2.8348937718   -1.2346083729    0.1324209641
     14  C        -2.2874719222    0.0526627077    0.1253069795
     15  H         1.3787711965    3.3627973651   -1.0272464013
     16  H         3.8048925286   -1.9429258285    0.3177744103
     17  H        -3.9081692392   -1.3407869662    0.2436422445
     18  H         1.6396086296    3.3078711600    0.7325191868
     19  H         2.8092391288    2.5106181407   -0.3679647399
     20  H         3.7724391552   -1.0858826761    1.8917644689
     21  H         3.8512463806   -0.1653299652    0.3563912531
     22  H        -2.5029188930   -3.3528195616   -0.0114087991
     23  H        -0.0475128655   -3.1135195852   -0.2762593940
     24  C        -3.2438989709    1.2126075015    0.2703599842
     25  H        -3.0472703032    1.9962271811   -0.4603035579
     26  H        -3.1552847440    1.6829603583    1.2526839658
     27  H        -4.2693274632    0.8589522174    0.1454982885
   Point Group: c1    Number of degrees of freedom:    75


   Energy is   -727.540803750

 Hessian Updated using Powell/Murtagh-Sargent Update
  Mixing factors:     0.991959 Powell
                      0.008041 Murtagh-Sargent

 68 Hessian modes will be used to form the next step
  Hessian Eigenvalues:
    -0.000884    0.008415    0.010434    0.010505    0.010860    0.013775
     0.015546    0.015971    0.017442    0.017956    0.020829    0.022447
     0.022522    0.022833    0.023223    0.023547    0.023662    0.023913
     0.071840    0.072827    0.101332    0.101451    0.105970    0.106272
     0.159639    0.159998    0.160000    0.160000    0.160000    0.160000
     0.220831    0.234500    0.248789    0.249100    0.249112    0.249923
     0.249940    0.249993    0.249997    0.250000    0.250000    0.313263
     0.317763    0.329844    0.346012    0.346047    0.346572    0.346742
     0.346769    0.346938    0.347527    0.350828    0.350909    0.354825
     0.354906    0.355645    0.397423    0.401134    0.405414    0.415090
     0.442420    0.462030    0.463089    0.473786    0.553041    0.559521
     0.997069    1.022960

 Transition State Search - Taking P-RFO Step
 Searching for Lamda that Maximizes Along the Lowest mode
 Value Taken    Lamda =   0.00024900
 Searching for Lamda that Minimizes Along All other modes
 Value Taken    Lamda =  -0.00041665
 Calculated Step too Large.  Step scaled by  0.600305
 Step Taken.  Stepsize is  0.300000

                             Maximum     Tolerance    Cnvgd?
         Gradient           0.001343      0.000001      NO
         Displacement       0.135117      0.000001      NO
         Energy change      0.000297      0.000000      NO


 New Cartesian Coordinates Obtained by Inverse Iteration

 Displacement from previous Coordinates is:  0.785812
 Adding empirical dispersion correction 
 ----------------------------------------------------------------
 Doing -D3(op) with
 s6 =   1.00000
 s8 =   0.78311
 a1 =   0.30000
 a2 =   4.25000
 n  =  10.00000
 -D3 energy without 3body term =     -0.0280904593 hartrees
 ----------------------------------------------------------------
             Standard Nuclear Orientation (Angstroms)
    I     Atom           X                Y                Z
 ----------------------------------------------------------------
    1      C      -0.0779962197    -0.9670659004    -0.1350471905
    2      C      -0.8715939241     0.1916004134     0.0168489808
    3      C       1.4203394869    -0.9750898933    -0.2866147000
    4      C      -0.2544747910     1.5528235690     0.0615644969
    5      O       2.0217408816    -1.0413361616     0.9155457534
    6      O       1.9996972044    -1.0500734869    -1.3406186416
    7      O       1.0651438144     1.5227642925    -0.2148129934
    8      O      -0.8500553816     2.5941274749     0.2242540749
    9      C       1.7360244020     2.7903896467    -0.2896894054
   10      C       3.4594000968    -1.0950825123     0.8931257570
   11      C      -0.6640736456    -2.2309808811    -0.1646604738
   12      C      -2.0399746273    -2.3644675092    -0.0296630763
   13      C      -2.8279380126    -1.2313303030     0.1170959017
   14      C      -2.2795780310     0.0555453485     0.1312417453
   15      H       1.2610855235     3.4288622028    -1.0353198010
   16      H       3.8024276371    -1.9733722283     0.3442679043
   17      H      -3.9029544828    -1.3373832686     0.2112971134
   18      H       1.7144675294     3.2900754113     0.6801422787
   19      H       2.7577766764     2.5572872697    -0.5807948326
   20      H       3.7635372476    -1.1497978316     1.9359193302
   21      H       3.8626845983    -0.1974724985     0.4211758170
   22      H      -2.4961732744    -3.3479787379    -0.0462426938
   23      H      -0.0386350595    -3.1067822362    -0.2909502758
   24      C      -3.2395854172     1.2135891604     0.2723157792
   25      H      -2.9901729282     2.0417056615    -0.3873975942
   26      H      -3.2209332841     1.6157074818     1.2893341285
   27      H      -4.2548551093     0.8751801165     0.0561264970
 ----------------------------------------------------------------
 Nuclear Repulsion Energy =  1012.7149964196 hartrees
 There are       55 alpha and       55 beta electrons
 Applying Cartesian multipole field
    Component          Value
    ---------          -----
     (2,0,0)        1.00000E-11
     (0,2,0)        2.00000E-11
     (0,0,2)       -3.00000E-11
 Nucleus-field energy     =     0.0000000355 hartrees
 Requested basis set is 6-311++G(d,p)
 There are 150 shells and 414 basis functions
 A cutoff of  1.0D-11 yielded   9044 shell pairs
 There are     71181 function pairs (     76194 Cartesian)
 Smallest overlap matrix eigenvalue = 1.30E-07

 Q-Chem warning in module /fs/scratch/osu6415/qchem-kaunlao-vdw/stvman/mkSTV.C, line 281:

 Overlap eigenvalue is smaller than square root of threshold

 Linear dependence detected in AO basis
 Number of orthogonalized atomic orbitals = 412
 Maximum deviation from orthogonality = 5.940E-10
 Guess MOs from SCF MO coefficient file
 Reading MOs from coefficient file
 Reading MOs from coefficient file
 A restricted hybrid HF-DFT SCF calculation will be
 performed using Pulay DIIS extrapolation
 Exchange:     0.2000 Hartree-Fock + 0.0800 Slater + 0.7200 B88
 Correlation:  0.1900 VWN1RPA + 0.8100 LYP
 Using SG-1 standard quadrature grid
 Dispersion:   Grimme D3
 SCF converges when DIIS error is below 1.0E-08
 Geometry optimization detected.  Setting ReadMinima to 0
 Setting SaveMinima to 0
 using 20 threads for integral computing
 -------------------------------------------------------
 OpenMP Integral computing Module                
 Release: version 1.0, May 2013, Q-Chem Inc. Pittsburgh 
 -------------------------------------------------------
 -------------------------------------------------------
 OpenMP BLAS3 based DFT computing Module                
 Release: version 1.0, May 2013, Q-Chem Inc. Pittsburgh 
 -------------------------------------------------------
 ---------------------------------------
  Cycle       Energy         DIIS Error
 ---------------------------------------
    1    -727.5184959709      1.21E-03
    2    -727.5398111328      1.21E-04
    3    -727.5397258631      1.70E-04
    4    -727.5401757805      4.89E-05
    5    -727.5402077585      1.79E-05
    6    -727.5402123709      6.78E-06
    7    -727.5402130645      1.94E-06
    8    -727.5402131266      3.72E-07
    9    -727.5402131292      1.57E-07
   10    -727.5402131299      7.87E-08
   11    -727.5402131304      3.73E-08
   12    -727.5402131304      9.54E-09 Convergence criterion met
 ---------------------------------------
 SCF time:  CPU 558.60 s  wall 32.39 s
 SCF   energy in the final basis set = -727.54021313
 Total energy in the final basis set = -727.54021313
 
 --------------------------------------------------------------
 
                    Orbital Energies (a.u.)
 --------------------------------------------------------------
 
 Alpha MOs
 -- Occupied --
-19.176 -19.175 -19.117 -19.117 -10.312 -10.312 -10.232 -10.231
-10.212 -10.210 -10.208 -10.195 -10.192 -10.187 -10.167  -1.122
 -1.115  -1.030  -1.029  -0.885  -0.800  -0.793  -0.748  -0.731
 -0.699  -0.654  -0.622  -0.581  -0.576  -0.547  -0.518  -0.509
 -0.496  -0.487  -0.483  -0.479  -0.471  -0.444  -0.433  -0.429
 -0.425  -0.408  -0.404  -0.391  -0.383  -0.375  -0.372  -0.363
 -0.359  -0.323  -0.311  -0.295  -0.287  -0.273  -0.261
 -- Virtual --
 -0.064  -0.029  -0.011  -0.006   0.000   0.004   0.012   0.019
  0.025   0.033   0.036   0.037   0.039   0.043   0.045   0.056
  0.063   0.067   0.075   0.081   0.082   0.087   0.093   0.097
  0.105   0.107   0.112   0.114   0.117   0.120   0.122   0.126
  0.128   0.130   0.140   0.140   0.142   0.146   0.147   0.152
  0.154   0.158   0.162   0.164   0.173   0.176   0.178   0.184
  0.188   0.189   0.191   0.194   0.200   0.203   0.209   0.218
  0.226   0.234   0.237   0.242   0.244   0.252   0.257   0.259
  0.260   0.267   0.269   0.279   0.285   0.286   0.298   0.301
  0.305   0.306   0.310   0.316   0.320   0.322   0.330   0.333
  0.343   0.343   0.351   0.358   0.365   0.370   0.374   0.380
  0.383   0.395   0.399   0.402   0.414   0.415   0.424   0.441
  0.449   0.460   0.476   0.487   0.495   0.500   0.512   0.530
  0.535   0.538   0.555   0.559   0.566   0.571   0.584   0.593
  0.598   0.607   0.612   0.614   0.629   0.635   0.648   0.649
  0.653   0.657   0.663   0.669   0.673   0.677   0.696   0.710
  0.713   0.718   0.725   0.734   0.738   0.745   0.749   0.765
  0.774   0.785   0.797   0.815   0.830   0.858   0.865   0.896
  0.898   0.905   0.933   0.950   0.952   0.962   0.980   0.983
  1.003   1.008   1.022   1.028   1.049   1.054   1.068   1.081
  1.084   1.099   1.102   1.125   1.139   1.158   1.165   1.184
  1.208   1.234   1.260   1.268   1.273   1.297   1.309   1.330
  1.348   1.367   1.377   1.390   1.404   1.422   1.431   1.439
  1.451   1.461   1.482   1.487   1.509   1.512   1.534   1.535
  1.541   1.553   1.558   1.562   1.574   1.584   1.595   1.609
  1.626   1.637   1.651   1.661   1.675   1.697   1.703   1.707
  1.716   1.729   1.741   1.742   1.755   1.760   1.799   1.813
  1.825   1.829   1.833   1.876   1.888   1.892   1.915   1.924
  1.931   1.944   1.959   1.965   1.997   2.015   2.025   2.041
  2.055   2.073   2.103   2.110   2.117   2.137   2.169   2.188
  2.205   2.223   2.252   2.256   2.304   2.319   2.368   2.419
  2.439   2.448   2.460   2.480   2.490   2.500   2.509   2.520
  2.542   2.549   2.568   2.573   2.585   2.590   2.616   2.638
  2.646   2.671   2.689   2.700   2.709   2.718   2.750   2.767
  2.778   2.796   2.808   2.817   2.831   2.841   2.856   2.863
  2.873   2.896   2.901   2.920   2.936   2.973   2.996   3.029
  3.043   3.046   3.081   3.090   3.109   3.120   3.164   3.199
  3.220   3.227   3.239   3.259   3.267   3.306   3.378   3.388
  3.395   3.410   3.526   3.546   3.597   3.630   3.635   3.677
  3.769   3.776   3.791   3.799   3.822   3.870   3.878   3.920
  4.039   4.048   4.079   4.096   4.129   4.166   4.253   4.344
  4.385   4.841   5.001   5.057   5.068   5.171   5.239   5.264
  5.397   5.446   5.622   5.672   5.865   5.900  23.561  23.851
 23.855  23.918  23.923  23.927  23.940  23.980  24.043  24.085
 24.174  49.900  49.924  50.005  50.054
 --------------------------------------------------------------
 
          Ground-State Mulliken Net Atomic Charges

     Atom                 Charge (a.u.)
  ----------------------------------------
      1 C                     0.075992
      2 C                     0.947223
      3 C                    -0.934757
      4 C                    -0.351844
      5 O                     0.092082
      6 O                    -0.121291
      7 O                    -0.104869
      8 O                    -0.241702
      9 C                    -0.205104
     10 C                    -0.194989
     11 C                    -0.102665
     12 C                    -0.027051
     13 C                    -0.513780
     14 C                     0.182959
     15 H                     0.181991
     16 H                     0.173218
     17 H                     0.124947
     18 H                     0.193530
     19 H                     0.157860
     20 H                     0.155733
     21 H                     0.163244
     22 H                     0.178971
     23 H                     0.166425
     24 C                    -0.493900
     25 H                     0.173343
     26 H                     0.185855
     27 H                     0.138578
  ----------------------------------------
  Sum of atomic charges =     0.000000

 -----------------------------------------------------------------
                    Cartesian Multipole Moments
 -----------------------------------------------------------------
    Charge (ESU x 10^10)
                -0.0000
    Dipole Moment (Debye)
         X       0.5532      Y      -0.8446      Z       1.4874
       Tot       1.7977
    Quadrupole Moments (Debye-Ang)
        XX     -74.0321     XY       7.7930     YY     -83.4331
        XZ       5.3721     YZ      -3.3662     ZZ     -93.7405
    Octopole Moments (Debye-Ang^2)
       XXX      32.4866    XXY      -1.7499    XYY      24.1165
       YYY     -16.8334    XXZ      17.1625    XYZ      -6.9553
       YYZ      -8.4520    XZZ       5.2846    YZZ      14.9593
       ZZZ       0.8443
    Hexadecapole Moments (Debye-Ang^3)
      XXXX   -2106.8816   XXXY       8.2236   XXYY    -596.3426
      XYYY      86.8287   YYYY   -1514.7639   XXXZ      46.8112
      XXYZ     -23.1901   XYYZ       5.9553   YYYZ      -9.7279
      XXZZ    -448.6677   XYZZ      -1.9029   YYZZ    -311.7241
      XZZZ      19.5395   YZZZ      -3.0923   ZZZZ    -260.3000
 -----------------------------------------------------------------
 Calculating analytic gradient of the SCF energy
 Gradient of SCF Energy
            1           2           3           4           5           6
    1   0.0000234  -0.0003851   0.0003871   0.0019146   0.0000504  -0.0000133
    2  -0.0005397   0.0006961   0.0015779  -0.0011443  -0.0017813  -0.0002072
    3  -0.0007982  -0.0040266   0.0013822   0.0117972  -0.0003952  -0.0004648
            7           8           9          10          11          12
    1  -0.0009927  -0.0007249  -0.0002596  -0.0004209  -0.0002234   0.0002330
    2   0.0011413   0.0002671  -0.0000142   0.0000068  -0.0000950  -0.0000789
    3  -0.0028418  -0.0055389  -0.0004555  -0.0000085   0.0001390  -0.0000085
           13          14          15          16          17          18
    1   0.0001822  -0.0004265   0.0001321   0.0000695   0.0000332   0.0000162
    2   0.0001515  -0.0002723   0.0000873  -0.0000020  -0.0000021  -0.0001117
    3   0.0013542  -0.0000478   0.0000261  -0.0000306   0.0001033   0.0000692
           19          20          21          22          23          24
    1   0.0000003   0.0000026   0.0000064  -0.0000529  -0.0000145   0.0002294
    2   0.0001342  -0.0000308  -0.0000138   0.0000174   0.0000011  -0.0000519
    3  -0.0000558  -0.0000078  -0.0000582  -0.0001361   0.0000175   0.0004117
           25          26          27
    1   0.0006139  -0.0005491   0.0001688
    2   0.0004546  -0.0004703   0.0002804
    3   0.0003870   0.0000105  -0.0008239
 Max gradient component =       1.180E-02
 RMS gradient           =       1.636E-03
 Gradient time:  CPU 211.25 s  wall 16.64 s
 Geometry Optimization Parameters
   NAtoms,    NIC,     NZ,  NCons,   NDum,   NFix, NCnnct, MaxDiis
       27     173       0       0       0       0       0       0

 Cartesian Hessian Update
 Hessian Updated using Powell/Murtagh-Sargent Update
  Mixing factors:     0.191504 Powell
                      0.808496 Murtagh-Sargent


** GEOMETRY OPTIMIZATION IN DELOCALIZED INTERNAL COORDINATES **
   Searching for a Transition State

   Optimization Cycle:   4

                       Coordinates (Angstroms)
     ATOM                X               Y               Z
      1  C        -0.0779962197   -0.9670659004   -0.1350471905
      2  C        -0.8715939241    0.1916004134    0.0168489808
      3  C         1.4203394869   -0.9750898933   -0.2866147000
      4  C        -0.2544747910    1.5528235690    0.0615644969
      5  O         2.0217408816   -1.0413361616    0.9155457534
      6  O         1.9996972044   -1.0500734869   -1.3406186416
      7  O         1.0651438144    1.5227642925   -0.2148129934
      8  O        -0.8500553816    2.5941274749    0.2242540749
      9  C         1.7360244020    2.7903896467   -0.2896894054
     10  C         3.4594000968   -1.0950825123    0.8931257570
     11  C        -0.6640736456   -2.2309808811   -0.1646604738
     12  C        -2.0399746273   -2.3644675092   -0.0296630763
     13  C        -2.8279380126   -1.2313303030    0.1170959017
     14  C        -2.2795780310    0.0555453485    0.1312417453
     15  H         1.2610855235    3.4288622028   -1.0353198010
     16  H         3.8024276371   -1.9733722283    0.3442679043
     17  H        -3.9029544828   -1.3373832686    0.2112971134
     18  H         1.7144675294    3.2900754113    0.6801422787
     19  H         2.7577766764    2.5572872697   -0.5807948326
     20  H         3.7635372476   -1.1497978316    1.9359193302
     21  H         3.8626845983   -0.1974724985    0.4211758170
     22  H        -2.4961732744   -3.3479787379   -0.0462426938
     23  H        -0.0386350595   -3.1067822362   -0.2909502758
     24  C        -3.2395854172    1.2135891604    0.2723157792
     25  H        -2.9901729282    2.0417056615   -0.3873975942
     26  H        -3.2209332841    1.6157074818    1.2893341285
     27  H        -4.2548551093    0.8751801165    0.0561264970
   Point Group: c1    Number of degrees of freedom:    75


   Energy is   -727.540213130

 Hessian Updated using Powell/Murtagh-Sargent Update
  Mixing factors:     0.855499 Powell
                      0.144501 Murtagh-Sargent

 70 Hessian modes will be used to form the next step
  Hessian Eigenvalues:
    -0.011673    0.008758    0.009783    0.010505    0.010861    0.013783
     0.015722    0.017316    0.017912    0.020732    0.022439    0.022488
     0.022830    0.023222    0.023547    0.023659    0.023912    0.046884
     0.071839    0.072848    0.101332    0.101451    0.105970    0.106273
     0.159647    0.159998    0.159999    0.160000    0.160000    0.160000
     0.160044    0.220840    0.234589    0.248966    0.249100    0.249507
     0.249940    0.249977    0.249994    0.249998    0.250000    0.250000
     0.254024    0.313264    0.317765    0.329897    0.346012    0.346051
     0.346572    0.346742    0.346770    0.346938    0.347527    0.350828
     0.350909    0.354825    0.354906    0.355645    0.397440    0.401134
     0.405445    0.415359    0.442460    0.462030    0.463091    0.473790
     0.553080    0.559543    0.997071    1.022981

 Transition State Search - Taking P-RFO Step
 Searching for Lamda that Maximizes Along the Lowest mode
 Value Taken    Lamda =   0.00035210
 Searching for Lamda that Minimizes Along All other modes
 Value Taken    Lamda =  -0.00175821
 Step Taken.  Stepsize is  0.288368

                             Maximum     Tolerance    Cnvgd?
         Gradient           0.005338      0.000001      NO
         Displacement       0.201691      0.000001      NO
         Energy change      0.000591      0.000000      NO


 New Cartesian Coordinates Obtained by Inverse Iteration

 Displacement from previous Coordinates is:  0.580722
 Adding empirical dispersion correction 
 ----------------------------------------------------------------
 Doing -D3(op) with
 s6 =   1.00000
 s8 =   0.78311
 a1 =   0.30000
 a2 =   4.25000
 n  =  10.00000
 -D3 energy without 3body term =     -0.0282285003 hartrees
 ----------------------------------------------------------------
             Standard Nuclear Orientation (Angstroms)
    I     Atom           X                Y                Z
 ----------------------------------------------------------------
    1      C      -0.0869502234    -0.9746638059    -0.1439830166
    2      C      -0.8787702098     0.1858136248    -0.0021708114
    3      C       1.4104682249    -0.9825660052    -0.3034401484
    4      C      -0.2575362017     1.5453158461     0.0211447774
    5      O       2.0194161877    -1.0117870989     0.8964016709
    6      O       1.9850414867    -1.0659807107    -1.3594081035
    7      O       1.0730199089     1.5003627286    -0.1946326315
    8      O      -0.8434254786     2.5890006469     0.2026807159
    9      C       1.7615193796     2.7601121267    -0.2344354749
   10      C       3.4575558984    -1.0496913576     0.8670199535
   11      C      -0.6741401319    -2.2382873786    -0.1598947469
   12      C      -2.0499984030    -2.3687205864    -0.0211687302
   13      C      -2.8363140649    -1.2334226322     0.1187733157
   14      C      -2.2863283150     0.0528744153     0.1218235332
   15      H       1.3283530270     3.4060519707    -0.9988466350
   16      H       3.8075449724    -1.9375402606     0.3383111722
   17      H      -3.9109141766    -1.3376418556     0.2191786057
   18      H       1.7016788698     3.2574048647     0.7350136053
   19      H       2.7926714858     2.5156027915    -0.4793925120
   20      H       3.7679677837    -1.0748515659     1.9090902850
   21      H       3.8479001831    -0.1596362814     0.3705570559
   22      H      -2.5073336386    -3.3518131304    -0.0278083086
   23      H      -0.0500018256    -3.1159147068    -0.2797897237
   24      C      -3.2435888128     1.2133230877     0.2603286056
   25      H      -3.0610688602     1.9883450353    -0.4817910995
   26      H      -3.1416136828     1.6949654555     1.2365145057
   27      H      -4.2698224731     0.8547893825     0.1583680200
 ----------------------------------------------------------------
 Nuclear Repulsion Energy =  1013.7228725966 hartrees
 There are       55 alpha and       55 beta electrons
 Applying Cartesian multipole field
    Component          Value
    ---------          -----
     (2,0,0)        1.00000E-11
     (0,2,0)        2.00000E-11
     (0,0,2)       -3.00000E-11
 Nucleus-field energy     =     0.0000000354 hartrees
 Requested basis set is 6-311++G(d,p)
 There are 150 shells and 414 basis functions
 A cutoff of  1.0D-11 yielded   9056 shell pairs
 There are     71280 function pairs (     76306 Cartesian)
 Smallest overlap matrix eigenvalue = 1.25E-07

 Q-Chem warning in module /fs/scratch/osu6415/qchem-kaunlao-vdw/stvman/mkSTV.C, line 281:

 Overlap eigenvalue is smaller than square root of threshold

 Linear dependence detected in AO basis
 Number of orthogonalized atomic orbitals = 412
 Maximum deviation from orthogonality = 2.256E-10
 Guess MOs from SCF MO coefficient file
 Reading MOs from coefficient file
 Reading MOs from coefficient file
 A restricted hybrid HF-DFT SCF calculation will be
 performed using Pulay DIIS extrapolation
 Exchange:     0.2000 Hartree-Fock + 0.0800 Slater + 0.7200 B88
 Correlation:  0.1900 VWN1RPA + 0.8100 LYP
 Using SG-1 standard quadrature grid
 Dispersion:   Grimme D3
 SCF converges when DIIS error is below 1.0E-08
 Geometry optimization detected.  Setting ReadMinima to 0
 Setting SaveMinima to 0
 using 20 threads for integral computing
 -------------------------------------------------------
 OpenMP Integral computing Module                
 Release: version 1.0, May 2013, Q-Chem Inc. Pittsburgh 
 -------------------------------------------------------
 -------------------------------------------------------
 OpenMP BLAS3 based DFT computing Module                
 Release: version 1.0, May 2013, Q-Chem Inc. Pittsburgh 
 -------------------------------------------------------
 ---------------------------------------
  Cycle       Energy         DIIS Error
 ---------------------------------------
    1    -727.5245446037      6.32E-04
    2    -727.5407696498      1.17E-04
    3    -727.5401606589      2.22E-04
    4    -727.5410847371      3.39E-05
    5    -727.5411007758      1.38E-05
    6    -727.5411035575      5.96E-06
    7    -727.5411042753      1.87E-06
    8    -727.5411043417      6.03E-07
    9    -727.5411043475      1.37E-07
   10    -727.5411043482      4.58E-08
   11    -727.5411043476      2.22E-08
   12    -727.5411043459      6.75E-09 Convergence criterion met
 ---------------------------------------
 SCF time:  CPU 557.75 s  wall 32.13 s
 SCF   energy in the final basis set = -727.54110435
 Total energy in the final basis set = -727.54110435
 
 --------------------------------------------------------------
 
                    Orbital Energies (a.u.)
 --------------------------------------------------------------
 
 Alpha MOs
 -- Occupied --
[...]
    -0.42667262     -0.23594283      0.02727869
    -0.00358157      0.02251494      0.00145856
    -0.00344511      0.12044254      0.07853488
    -0.01856243      0.12650029     -0.06748180
     0.05969249     -0.14194023     -0.01303517
vibration 62
    -0.03241855     -0.00682552      0.00129312
     0.05652285     -0.09643696     -0.00866680
    -0.01964241     -0.00262669      0.04786496
    -0.36006572      0.67530210      0.03840201
    -0.00167119      0.00100862     -0.00477462
     0.01636694     -0.00059713     -0.03116649
     0.03701572     -0.03896945     -0.00352501
     0.23779427     -0.41798353     -0.02436944
     0.00833026      0.03241054     -0.00264964
     0.00006035     -0.00011916      0.00058607
     0.03491352      0.01797376     -0.00257091
    -0.02931762      0.01079615      0.00365880
     0.01841858     -0.02483232     -0.00305420
    -0.04680726      0.04005135      0.00638915
    -0.14784886     -0.03505404     -0.00374723
     0.00454629     -0.00116352      0.00582496
     0.00498672      0.06269149      0.00190604
    -0.13512945     -0.04182319      0.04223082
    -0.06163735     -0.24028945      0.01451760
     0.01457561      0.00016675     -0.00226128
     0.00650401     -0.00101121      0.00672256
     0.01755567     -0.01072325     -0.00198923
    -0.02753159     -0.02719819      0.00078187
    -0.00867128     -0.01090965      0.00053977
     0.10666945      0.03758428      0.03775780
     0.09459645      0.04147246     -0.05638014
     0.03689417     -0.09726767     -0.00613490
vibration 63
     0.09380329     -0.00547367     -0.02821629
    -0.01250401      0.01411535      0.00189461
    -0.43250431      0.03811532      0.66033779
     0.01593847     -0.04775344     -0.00195898
     0.01311044     -0.00139848     -0.04765687
     0.25221916     -0.02503926     -0.44482479
     0.00335241      0.00312217     -0.00309078
    -0.01359154      0.02685563      0.00157006
    -0.00212094     -0.00330205     -0.00095129
    -0.02941884      0.00141884      0.00833749
    -0.01086537      0.00040029      0.00265343
     0.00718789     -0.00995810      0.00071018
    -0.00370574      0.00748420      0.00035974
    -0.00049138     -0.00198016      0.00229403
     0.00692651      0.00952786      0.00804268
     0.10887969      0.01962479      0.10307640
    -0.00251170     -0.00702694     -0.00233209
     0.01975794      0.00901513     -0.00341050
     0.00484064      0.02052594      0.01632594
     0.21804230     -0.01165992     -0.06116195
     0.09757104     -0.03344080      0.09263752
    -0.02566903      0.00670170      0.00285424
    -0.00554506      0.01200123     -0.00255657
     0.00086230     -0.00048304     -0.00001783
    -0.00978295     -0.00099179      0.00058800
    -0.00710950     -0.00185739      0.00181979
    -0.00287722      0.00970319     -0.00088808
vibration 64
    -0.00020370      0.00000994      0.00001763
     0.00074058      0.00030646     -0.00005694
     0.00015352      0.00003256      0.00004732
     0.00010148     -0.00016358     -0.00002192
    -0.00010338     -0.00000037     -0.00003874
    -0.00004534     -0.00000988      0.00001457
     0.00001287     -0.00005700     -0.00000409
     0.00018095      0.00004303     -0.00002450
    -0.00005467     -0.00012507     -0.00001858
    -0.00074025     -0.00002880      0.00024695
     0.00003732      0.00001965      0.00000220
    -0.00014612      0.00027771      0.00003347
     0.00251105     -0.00070183     -0.00028314
    -0.00030111     -0.00059231      0.00000946
    -0.00065451      0.00101596     -0.00154508
     0.00327381     -0.00918961     -0.00561223
    -0.02634716      0.00010031      0.00256386
    -0.00028065      0.00108189      0.00185208
     0.00171043     -0.00045432     -0.00024997
     0.00223063     -0.00038919      0.00770046
     0.00396695      0.00980932     -0.00511619
     0.00035788      0.00178544      0.00008140
     0.00064486     -0.00063940     -0.00008198
    -0.04093577      0.02934973      0.00631271
    -0.03564887     -0.30338580      0.40339402
    -0.12353316     -0.28436287     -0.41866076
     0.63599488      0.24704550     -0.05837202
vibration 65
    -0.00005968      0.00002717     -0.00012018
     0.00003359     -0.00001187     -0.00000876
     0.00085809     -0.00012723      0.00291500
    -0.00031236     -0.00005372      0.00002593
    -0.00277959      0.00007071     -0.00095728
     0.00046871     -0.00001681     -0.00089380
     0.00024473      0.00031298     -0.00005119
     0.00003266     -0.00002486      0.00000167
     0.00134456      0.00468656      0.00035805
    -0.04162022     -0.00155145      0.01471846
    -0.00006491      0.00004825      0.00001969
     0.00001348     -0.00007253     -0.00000174
    -0.00008435      0.00004403      0.00001366
    -0.00001211      0.00000156      0.00001068
     0.02373689     -0.03491957      0.05268291
     0.18125497     -0.50247576     -0.30766774
     0.00067823      0.00004890     -0.00007522
     0.00998244     -0.03701809     -0.06373642
    -0.05122238      0.01272351      0.00695502
     0.12089554     -0.02058105      0.41062655
     0.22135387      0.54088991     -0.28207289
     0.00024694      0.00065980      0.00001808
     0.00034887     -0.00026679     -0.00006601
     0.00071613     -0.00051530     -0.00010146
     0.00060396      0.00537269     -0.00711877
     0.00213786      0.00496905      0.00730568
    -0.01114432     -0.00430558      0.00102262
vibration 66
     0.00001400      0.00005781     -0.00001119
    -0.00030259     -0.00010540      0.00002206
    -0.00000404      0.00019225      0.00032236
     0.00284979     -0.00060803     -0.00024217
    -0.00024632     -0.00003765     -0.00006855
     0.00009263     -0.00004842     -0.00012508
    -0.00210060     -0.00189209      0.00024668
    -0.00046524      0.00078501      0.00004412
    -0.00983529     -0.04278337     -0.00268528
    -0.00484032      0.00005915      0.00173806
     0.00000167     -0.00004308     -0.00000526
    -0.00001248     -0.00005063     -0.00000646
    -0.00011184     -0.00000511      0.00000783
     0.00009464     -0.00006895     -0.00001462
    -0.21026370      0.31299113     -0.47053518
     0.02142390     -0.05880478     -0.03612348
     0.00090206     -0.00001136     -0.00009463
    -0.08743115      0.32583031      0.55936263
     0.42495233     -0.10402620     -0.05859882
     0.01371972     -0.00238427      0.04650910
     0.02481909      0.06057229     -0.03171584
     0.00016039      0.00042347      0.00000141
    -0.00033854      0.00044774      0.00005497
     0.00002455     -0.00032806     -0.00003471
     0.00023038      0.00236776     -0.00313946
     0.00094446      0.00231842      0.00342316
    -0.00162537     -0.00065985      0.00014163
vibration 67
     0.00003205     -0.00006355     -0.00006730
     0.00002694     -0.00008711      0.00037161
    -0.00000961     -0.00001497     -0.00002036
     0.00022628     -0.00017015     -0.00000806
     0.00000163      0.00000070      0.00000826
     0.00000146      0.00000404      0.00001049
    -0.00010669      0.00002185     -0.00010185
    -0.00012475      0.00005893      0.00032189
     0.00005041      0.00009074      0.00104548
     0.00000472      0.00017072      0.00001417
     0.00003716     -0.00000493     -0.00001463
    -0.00009283     -0.00013808     -0.00001167
     0.00164782      0.00019824     -0.00045830
    -0.00023026     -0.00032170     -0.00064022
    -0.00241200      0.00369089     -0.00527008
     0.00038797     -0.00103193     -0.00067470
    -0.01770527     -0.00054490      0.00141291
     0.00118934     -0.00441569     -0.00719278
     0.00085791     -0.00018503      0.00005652
    -0.00000020      0.00003133     -0.00001644
    -0.00043430     -0.00106960      0.00058869
     0.00128393      0.00265927      0.00023941
    -0.00016647      0.00041544      0.00009611
    -0.03069698     -0.01839877     -0.08413183
    -0.03883883     -0.32681272      0.39152037
     0.18123077      0.46363566      0.65054936
     0.22357873      0.08539788     -0.03586978
vibration 68
     0.00010886     -0.00017815      0.00000361
    -0.00007704     -0.00022081     -0.00012911
    -0.00001660     -0.00004302      0.00000322
     0.00063771     -0.00048636     -0.00005603
    -0.00000143      0.00000753     -0.00000583
     0.00000204      0.00001183     -0.00000331
    -0.00027697      0.00006369      0.00005643
    -0.00053883      0.00017115     -0.00004920
    -0.00020251      0.00029491     -0.00041118
     0.00002753      0.00053398     -0.00002433
     0.00008937     -0.00003576     -0.00001007
    -0.00022598     -0.00043576      0.00000523
     0.00492660      0.00062203     -0.00036727
    -0.00031297     -0.00126223      0.00024258
     0.00205423     -0.00317243      0.00443491
     0.00111955     -0.00298575     -0.00197956
    -0.05219766     -0.00195866      0.00512868
    -0.00010560      0.00030620      0.00060913
     0.00100800     -0.00020978     -0.00022121
     0.00010242      0.00008621      0.00030824
    -0.00143191     -0.00351764      0.00192026
     0.00365235      0.00774264     -0.00002183
    -0.00060122      0.00131711      0.00012206
    -0.05822381     -0.06341323      0.03409392
     0.02662402      0.41731376     -0.55330338
     0.03882903      0.11401300      0.19914872
     0.62814430      0.23649899     -0.05321350
vibration 69
     0.00001467     -0.00027266     -0.00001007
     0.00005465      0.00005413      0.00001170
     0.00000699      0.00018306      0.00001209
    -0.00018009     -0.00006367      0.00000053
    -0.00001105      0.00034474     -0.00000923
    -0.00004604      0.00014534     -0.00002286
     0.00006932      0.00005357     -0.00000285
     0.00004146      0.00000167     -0.00000710
     0.00127812     -0.00071698      0.00247564
    -0.00138083     -0.09481372     -0.00214914
    -0.00005514      0.00005511     -0.00000041
     0.00000593     -0.00002542     -0.00000563
     0.00004155      0.00002434     -0.00000319
    -0.00002456     -0.00002359     -0.00000292
    -0.00873595      0.01335726     -0.01949659
    -0.21289987      0.56920417      0.37204838
    -0.00047545      0.00000127      0.00004798
     0.00227578     -0.00698917     -0.01134508
    -0.00861023      0.00252173      0.00140578
    -0.00904895     -0.01746033     -0.02920046
     0.23890770      0.56894716     -0.31670306
     0.00012211      0.00029432      0.00002502
     0.00043741     -0.00037564      0.00001580
    -0.00038470     -0.00039506      0.00006588
     0.00005709      0.00191882     -0.00262433
     0.00046997      0.00136869      0.00217098
     0.00407120      0.00154138     -0.00037416
vibration 70
     0.00000350     -0.00000695      0.00002100
    -0.00000186      0.00000932     -0.00021674
     0.00001154     -0.00000041     -0.00021862
    -0.00006592      0.00000202      0.00016607
     0.00002774      0.00002969      0.00006633
    -0.00003780     -0.00001343      0.00009220
     0.00004805      0.00004333      0.00038481
    -0.00000715     -0.00004155      0.00016235
    -0.00780846      0.00089032     -0.09462250
    -0.00004654     -0.00256334      0.00025594
    -0.00000264      0.00000332      0.00000381
     0.00000116     -0.00000067     -0.00000266
    -0.00000095     -0.00000264      0.00000392
     0.00000143      0.00000472      0.00000460
     0.25956453     -0.37976134      0.54250448
    -0.00526514      0.01424164      0.00935078
     0.00002891      0.00000363     -0.00001241
    -0.10467283      0.35446745      0.58604238
    -0.06190880      0.01468196     -0.01002415
    -0.00099419     -0.00046833     -0.00326199
     0.00692429      0.01643450     -0.00928052
     0.00000079      0.00000242     -0.00001285
     0.00003357     -0.00003395     -0.00001366
    -0.00008127      0.00007738     -0.00109605
    -0.00057877     -0.00546335      0.00678324
     0.00185095      0.00461785      0.00632695
    -0.00033765     -0.00011367     -0.00010940
vibration 71
    -0.00001700     -0.00002481      0.00006826
     0.00005157     -0.00005184     -0.00001267
     0.00068165     -0.00004137     -0.00042765
     0.00005956      0.00085722      0.00004378
     0.00005602      0.00001647      0.00028285
    -0.00024481      0.00002003      0.00024626
     0.00018178     -0.00012974     -0.00002795
     0.00005602     -0.00034375     -0.00000576
    -0.05671562      0.02887494      0.00443039
    -0.00468954      0.00054665     -0.06954979
     0.00003971     -0.00007619     -0.00000873
    -0.00000990     -0.00004127     -0.00000249
    -0.00011400     -0.00000850      0.00001302
    -0.00000436      0.00001096     -0.00000541
     0.07399196     -0.11665617      0.18597150
    -0.06922724      0.19606822      0.10809514
     0.00131375      0.00012097     -0.00012474
     0.01533483     -0.08575771     -0.15936327
     0.58102072     -0.14306531     -0.07913835
     0.18842403     -0.03115197      0.63935708
    -0.06836716     -0.17140355      0.07659160
     0.00014083      0.00031508      0.00000265
    -0.00053624      0.00079619      0.00007281
     0.00013837      0.00011781     -0.00003727
     0.00005757     -0.00055745      0.00083830
    -0.00003358     -0.00025967     -0.00055184
    -0.00159047     -0.00066457      0.00014392
vibration 72
    -0.00000100     -0.00000078     -0.00005294
     0.00005990     -0.00005767     -0.00000658
    -0.00085405      0.00004628      0.00039406
    -0.00000302      0.00098222      0.00005956
     0.00002402     -0.00001591     -0.00022063
     0.00030378     -0.00002013     -0.00026161
     0.00020906     -0.00015432     -0.00006102
     0.00008918     -0.00041323     -0.00001126
    -0.06200046      0.03163785      0.00529979
     0.00397236     -0.00220496      0.06362869
     0.00014713     -0.00017317     -0.00002416
     0.00007774      0.00020278      0.00000712
    -0.00008113     -0.00002901      0.00000594
    -0.00000256      0.00002239      0.00000610
     0.07992741     -0.12618534      0.20125501
     0.06053995     -0.17100582     -0.09373852
     0.00117339      0.00011035     -0.00010052
     0.01745527     -0.09586426     -0.17752871
     0.63568997     -0.15623041     -0.08638815
    -0.17177373      0.02810937     -0.58317723
     0.06826469      0.16893942     -0.07714536
    -0.00108864     -0.00241577     -0.00002029
    -0.00151391      0.00193828      0.00028802
     0.00011470      0.00011011     -0.00000818
     0.00007098     -0.00046124      0.00071189
    -0.00006921     -0.00040685     -0.00072135
    -0.00122769     -0.00053398      0.00011469
vibration 73
     0.00059830      0.00031940     -0.00003821
     0.00017837     -0.00005849     -0.00000863
     0.00003321     -0.00015337     -0.00007684
     0.00007674      0.00027184      0.00000099
    -0.00001929      0.00003129     -0.00001413
    -0.00003079      0.00004612      0.00007084
    -0.00007268     -0.00004491      0.00000439
     0.00002152     -0.00009381     -0.00000531
     0.00026339     -0.00008090     -0.00002151
    -0.00004842     -0.00003698     -0.00014885
     0.01462933     -0.02277499     -0.00277031
     0.02537632      0.05287444      0.00035282
    -0.05362156     -0.00701167      0.00497692
    -0.00033211      0.00158985      0.00009415
    -0.00024756      0.00028801     -0.00056049
    -0.00017187      0.00041924      0.00023171
     0.63271495      0.06240639     -0.05961962
    -0.00006778      0.00016242      0.00043616
    -0.00281681      0.00062141      0.00038048
     0.00045137     -0.00007944      0.00156274
     0.00008996      0.00008739     -0.00009157
    -0.29181345     -0.62594120     -0.00515601
    -0.18679032      0.26452294      0.03413583
    -0.00335355     -0.00197964      0.00032396
     0.00051460      0.00606954     -0.00867722
     0.00226024      0.00509176      0.00825717
     0.04037309      0.01395147     -0.00374815
vibration 74
    -0.00100481     -0.00146199     -0.00000039
     0.00082068     -0.00040788     -0.00008657
    -0.00021977      0.00033613      0.00013448
    -0.00007385      0.00013664      0.00000986
     0.00008256     -0.00006040      0.00004539
     0.00011706     -0.00009166     -0.00014588
    -0.00001875     -0.00003691      0.00000283
     0.00003364     -0.00003919     -0.00000112
    -0.00008712      0.00007991      0.00001433
     0.00007404      0.00002886      0.00014037
    -0.03142769      0.04603285      0.00580308
    -0.00868555     -0.02754613     -0.00064092
    -0.05931251     -0.00522352      0.00565017
     0.00010853      0.00221016      0.00007921
     0.00018704     -0.00029460      0.00045132
     0.00012574     -0.00014204     -0.00007792
     0.67445389      0.06352445     -0.06369754
     0.00005573     -0.00027272     -0.00046032
     0.00075397     -0.00021920     -0.00009900
    -0.00039393      0.00007622     -0.00151922
    -0.00018456     -0.00029377      0.00017938
     0.13295820      0.29867262      0.00302738
     0.37381560     -0.52589785     -0.06804972
    -0.00305343     -0.00178891      0.00030055
     0.00098852      0.00471668     -0.00721540
     0.00240922      0.00380967      0.00660385
     0.03617452      0.01234392     -0.00336206
vibration 75
     0.00129827      0.00215557      0.00000929
    -0.00004079      0.00036100      0.00002118
     0.00041445     -0.00041617     -0.00016166
     0.00008670      0.00018775     -0.00000368
    -0.00017748      0.00006275     -0.00008437
    -0.00020059      0.00010018      0.00020372
    -0.00008549     -0.00005474      0.00000639
     0.00000868     -0.00010178     -0.00000314
     0.00012985      0.00003025     -0.00000863
     0.00002630     -0.00002592      0.00004247
     0.03727851     -0.04812692     -0.00650214
    -0.02537089     -0.05224513     -0.00033186
    -0.03111447     -0.00060714      0.00306453
     0.00021783      0.00141527      0.00004124
     0.00005306     -0.00019275      0.00013070
    -0.00020337      0.00010122      0.00009878
     0.33929439      0.02903974     -0.03223564
     0.00002278     -0.00024862     -0.00023044
    -0.00144641      0.00030074      0.00019397
    -0.00035474      0.00002508     -0.00074787
     0.00005456      0.00015231     -0.00005610
     0.26970832      0.57875466      0.00485216
    -0.39776418      0.55094563      0.07184039
    -0.00119983     -0.00054497      0.00012150
     0.00031755      0.00050119     -0.00144352
     0.00058456      0.00023871      0.00115126
     0.01453776      0.00495799     -0.00135178
[INT]
    1.650458
    0.366725
    2.195348
    2.170394
    3.255925
    0.389514
    0.267303
    2.031763
    0.820943
    1.218997
    0.105708
    1.605915
    1.337046
    8.345052
   13.436018
    0.695390
    9.016221
    4.462530
    3.274728
    6.591400
    1.414278
    1.263123
   16.249549
   14.399697
   14.526887
   37.508952
    8.531944
    6.693301
   12.272265
    6.932391
    0.239047
   12.575572
    0.226240
   12.499895
   14.888817
    3.621541
   60.883993
   60.117281
    2.605520
    0.598926
  111.335438
   12.285985
   24.257307
  127.029155
   78.704225
  293.961149
  341.160812
   17.794580
    7.339163
   21.235491
   15.913506
   45.174773
    6.878033
    7.525253
    8.632826
    1.575939
   11.295252
    7.619191
    6.087073
    5.547099
   22.207342
  315.832032
  264.715616
   23.673799
   30.860066
   40.345748
    8.263191
   16.587609
   20.104317
   16.076669
   15.976005
   10.084861
    2.311298
   13.038194
   12.282031

======= END OF MOLDEN-FORMATTED INPUT FILE =======


        *************************************************************
        *                                                           *
        *  Thank you very much for using Q-Chem.  Have a nice day.  *
        *                                                           *
        *************************************************************


