r0173.ten.osc.edu 10.25.155
Q-Chem Developer Version! Running on 10.25.155.*
                  Welcome to Q-Chem
     A Quantum Leap Into The Future Of Chemistry


 Q-Chem 5.0, Q-Chem, Inc., Pleasanton, CA (2017)

 Yihan Shao,  Zhengting Gan,  E. Epifanovsky,  A. T. B. Gilbert,  M. Wormit,  
 J. Kussmann,  A. W. Lange,  A. Behn,  Jia Deng,  Xintian Feng,  D. Ghosh,  
 M. Goldey,  P. R. Horn,  L. D. Jacobson,  I. Kaliman,  T. Kus,  A. Landau,  
 Jie Liu,  E. I. Proynov,  R. M. Richard,  R. P. Steele,  E. J. Sundstrom,  
 H. L. Woodcock III,  P. M. Zimmerman,  D. Zuev,  B. Albrecht,  E. Alguire,  
 S. A. Baeppler,  Z. Benda,  Y. A. Bernard,  E. J. Berquist,  K. B. Bravaya,  
 D. Casanova,  Chun-Min Chang,  Yunqing Chen,  A. Chien,  K. D. Closser,  
 M. P. Coons,  S. Dasgupta,  M. Diedenhofen,  Hainam Do,  R. G. Edgar,  
 Po-Tung Fang,  S. Fatehi,  Qingguo Feng,  Qinghui Ge,  A. Ghysels,  
 J. Gomes,  J. Gonthier,  A. Gunina,  M. W. D. Hanson-Heine,  
 P. H. P. Harbach,  A. W. Hauser,  J. E. Herr,  E. G. Hohenstein,  
 Z. C. Holden,  Kerwin Hui,  T.-C. Jagau,  Hyunjun Ji,  B. Kaduk,  
 K. Khistyaev,  Jaehoon Kim,  P. Klunzinger,  K. Koh,  D. Kosenkov,  
 T. Kowalczyk,  C. M. Krauter,  A. Kunitsa,  Ka Un Lao,  A. Laurent,  
 K. V. Lawler,  Joonho Lee,  D. Lefrancois,  S. Lehtola,  D. S. Levine,  
 Yi-Pei Li,  You-Sheng Lin,  Fenglai Liu,  E. Livshits,  A. Luenser,  
 P. Manohar,  E. Mansoor,  S. F. Manzer,  Shan-Ping Mao,  Yuezhi Mao,  
 N. Mardirossian,  A. V. Marenich,  L. A. Martinez-Martinez,  S. A. Maurer,  
 N. J. Mayhall,  S. C. McKenzie,  J.-M. Mewes,  A. F. Morrison,  K. Nanda,  
 T. S. Nguyen-Beck,  R. Olivares-Amaya,  J. A. Parkhill,  T. M. Perrine,  
 F. Plasser,  S. Prager,  A. Prociuk,  D. R. Rehn,  F. Rob,  M. Schneider,  
 N. Sergueev,  S. M. Sharada,  S. Sharma,  D. W. Small,  T. Stauch,  
 T. Stein,  Yu-Chuan Su,  A. J. W. Thom,  T. Tsuchimochi,  L. Vogt,  
 O. Vydrov,  M. A. Watson,  J. Wenzel,  M. de Wergifosse,  T. A. Wesolowski,  
 A. White,  J. Witte,  A. Yamada,  Jun Yang,  K. Yao,  S. Yeganeh,  
 S. R. Yost,  Zhi-Qiang You,  A. Zech,  Igor Ying Zhang,  Xing Zhang,  
 Yan Zhao,  Ying Zhu,  B. R. Brooks,  G. K. L. Chan,  C. J. Cramer,  
 M. S. Gordon,  W. J. Hehre,  A. Klamt,  M. W. Schmidt,  C. D. Sherrill,  
 D. G. Truhlar,  A. Aspuru-Guzik,  R. Baer,  A. T. Bell,  N. A. Besley,  
 Jeng-Da Chai,  A. Dreuw,  B. D. Dunietz,  T. R. Furlani,  Chao-Ping Hsu,  
 Yousung Jung,  Jing Kong,  D. S. Lambrecht,  WanZhen Liang,  C. Ochsenfeld,  
 V. A. Rassolov,  L. V. Slipchenko,  J. E. Subotnik,  T. Van Voorhis,  
 J. M. Herbert,  A. I. Krylov,  P. M. W. Gill,  M. Head-Gordon

 Contributors to earlier versions of Q-Chem not listed above: 
 R. D. Adamson,  B. Austin,  J. Baker,  G. J. O. Beran,  K. Brandhorst,  
 S. T. Brown,  E. F. C. Byrd,  A. K. Chakraborty,  C.-L. Cheng,  
 Siu Hung Chien,  D. M. Chipman,  D. L. Crittenden,  H. Dachsel,  
 R. A. DiStasio Jr.,  R. J. Doerksen,  A. D. Dutoi,  L. Fusti-Molnar,  
 W. A. Goddard III,  A. Golubeva-Zadorozhnaya,  S. R. Gwaltney,  G. Hawkins,  
 A. Heyden,  S. Hirata,  G. Kedziora,  F. J. Keil,  C. Kelley,  Jihan Kim,  
 R. A. King,  R. Z. Khaliullin,  P. P. Korambath,  W. Kurlancheek,  
 A. M. Lee,  M. S. Lee,  S. V. Levchenko,  Ching Yeh Lin,  D. Liotard,  
 R. C. Lochan,  I. Lotan,  P. E. Maslen,  N. Nair,  D. P. O'Neill,  
 D. Neuhauser,  E. Neuscamman,  C. M. Oana,  R. Olson,  B. Peters,  
 R. Peverati,  P. A. Pieniazek,  Y. M. Rhee,  J. Ritchie,  M. A. Rohrdanz,  
 E. Rosta,  N. J. Russ,  H. F. Schaefer III,  N. E. Schultz,  N. Shenvi,  
 A. C. Simmonett,  A. Sodt,  D. Stuck,  K. S. Thanthiriwatte,  V. Vanovschi,  
 Tao Wang,  A. Warshel,  C. F. Williams,  Q. Wu,  X. Xu,  W. Zhang

 Please cite Q-Chem as follows:
 Y. Shao et al., Mol. Phys. 113, 184-215 (2015)
 DOI: 10.1080/00268976.2014.952696

 Q-Chem 5.0.1 for Intel X86 EM64T Linux

 Parts of Q-Chem use Armadillo 5.200.1 (Boston Tea Smuggler).
 http://arma.sourceforge.net/

 Q-Chem begins on Sun Oct 15 23:12:55 2017  

Host: r0173.ten.osc.edu
0

     Scratch files written to /tmp/pbstmp.1310589/03//
Processing $rem in /users/PAS0291/osu6415/.qchemrc.
molden_format             true

Checking the input file for inconsistencies... 	...done.

--------------------------------------------------------------
User input:
--------------------------------------------------------------
$molecule
0 1
C 0.63634353 -0.90620612 0.12936925
C -0.64338922 -0.32216299 0.02285556
C 1.89825804 -0.10653714 0.32543437
C -0.69001832 1.17123677 0.08060161
O 2.42535998 0.25833525 -0.85539540
O 2.42201547 0.07026852 1.39620300
O -1.93248101 1.68808369 0.00682406
O 0.29142532 1.87239602 0.18991060
C -2.01966445 3.12304895 0.07378614
C 3.60622622 1.07819856 -0.78228284
C 0.79683817 -2.28854641 0.09980408
C -0.31396373 -3.10985322 -0.04545346
C -1.57781242 -2.54445750 -0.15415366
C -1.77981377 -1.15986273 -0.12006746
H -1.60344308 3.48584340 1.01446145
H 3.37260390 2.01499221 -0.27396680
H -2.44116365 -3.19108390 -0.26499702
H -1.47793020 3.57671946 -0.75723596
H -3.08191322 3.34905086 0.00983813
H 3.89512231 1.26232106 -1.81464044
H 4.40193099 0.55984823 -0.24512418
H -0.19673834 -4.18735371 -0.07335193
H 1.78892243 -2.71352736 0.19282059
C -3.20672031 -0.67380687 -0.24180745
H -3.33630605 -0.00967142 -1.09745989
H -3.51846702 -0.11293103 0.64073780
H -3.87506142 -1.52826316 -0.36163683
$end

$rem
sym_ignore      true
jobtype         ts
method          b3lyp
basis           6-311++G(d,p)
dft_d           d3_op
mem_total       62000
MEM_STATIC      4000
ao2mo_disk      350000
max_scf_cycles  200
geom_opt_max_cycles 1000
geom_opt_tol_displacement 1
GEOM_OPT_TOL_GRADIENT       1
GEOM_OPT_TOL_ENERGY         1
$end

--------------------------------------------------------------
 Adding empirical dispersion correction 
 ----------------------------------------------------------------
 Doing -D3(op) with
 s6 =   1.00000
 s8 =   0.78311
 a1 =   0.30000
 a2 =   4.25000
 n  =  10.00000
 -D3 energy without 3body term =     -0.0278240508 hartrees
 ----------------------------------------------------------------
             Standard Nuclear Orientation (Angstroms)
    I     Atom           X                Y                Z
 ----------------------------------------------------------------
    1      C       0.6363435300    -0.9062061200     0.1293692500
    2      C      -0.6433892200    -0.3221629900     0.0228555600
    3      C       1.8982580400    -0.1065371400     0.3254343700
    4      C      -0.6900183200     1.1712367700     0.0806016100
    5      O       2.4253599800     0.2583352500    -0.8553954000
    6      O       2.4220154700     0.0702685200     1.3962030000
    7      O      -1.9324810100     1.6880836900     0.0068240600
    8      O       0.2914253200     1.8723960200     0.1899106000
    9      C      -2.0196644500     3.1230489500     0.0737861400
   10      C       3.6062262200     1.0781985600    -0.7822828400
   11      C       0.7968381700    -2.2885464100     0.0998040800
   12      C      -0.3139637300    -3.1098532200    -0.0454534600
   13      C      -1.5778124200    -2.5444575000    -0.1541536600
   14      C      -1.7798137700    -1.1598627300    -0.1200674600
   15      H      -1.6034430800     3.4858434000     1.0144614500
   16      H       3.3726039000     2.0149922100    -0.2739668000
   17      H      -2.4411636500    -3.1910839000    -0.2649970200
   18      H      -1.4779302000     3.5767194600    -0.7572359600
   19      H      -3.0819132200     3.3490508600     0.0098381300
   20      H       3.8951223100     1.2623210600    -1.8146404400
   21      H       4.4019309900     0.5598482300    -0.2451241800
   22      H      -0.1967383400    -4.1873537100    -0.0733519300
   23      H       1.7889224300    -2.7135273600     0.1928205900
   24      C      -3.2067203100    -0.6738068700    -0.2418074500
   25      H      -3.3363060500    -0.0096714200    -1.0974598900
   26      H      -3.5184670200    -0.1129310300     0.6407378000
   27      H      -3.8750614200    -1.5282631600    -0.3616368300
 ----------------------------------------------------------------
 Nuclear Repulsion Energy =  1007.7088764587 hartrees
 There are       55 alpha and       55 beta electrons
 Requested basis set is 6-311++G(d,p)
 There are 150 shells and 414 basis functions

 Total QAlloc Memory Limit  62000 MB
 Mega-Array Size      3911 MB
 MEM_STATIC part      4000 MB
 A cutoff of  1.0D-11 yielded   8989 shell pairs
 There are     70702 function pairs (     75634 Cartesian)
 
 -------------------------------------------------------
 OpenMP Integral Computing Module                       
 Release: version 1.0, May 2013, Q-Chem Inc. Pittsburgh 
 -------------------------------------------------------
 Integral Job Info:
 Integral job number is                      11
 Integral operator is                         1
 short-range coefficients                     0
 long-range coefficients              100000000
 Omega coefficients                           0
 if combine SR and LR in K                    0
 Integral screening is                        0
 Integral computing path is                   2
 max size of driver memory is            800000
 size of driver memory is                593474
 size of scratch memory is              2361544
 max col of scratch BK array               1296
 max len of scratch array in speh3          155
 max len of scratch index in speh4           18
 max int batch size is                      520
 min int batch size is                       52
 fixed nKL is                                52
 max L of basis functions is                  2
 order of int derivative is                   0
 number of shells is                        150
 number of basis is                         429
 number of cartesian basis is               429
 number of contracted shell pairs          8989
 number of primitive shell pairs          20728
 maxK2 (contraction) of shell pair           36
 max number of K2 of shell pair               1
 max number of CS2 of shell pair           1665
 max number of PS2 of shell pair           3390
 mem total for path MDJ                  141640
 -------------------------------------------------------
 Smallest overlap matrix eigenvalue = 1.26E-07

 Q-Chem warning in module /fs/scratch/osu6415/qchem-kaunlao-vdw/stvman/mkSTV.C, line 281:

 Overlap eigenvalue is smaller than square root of threshold

 Linear dependence detected in AO basis
 Number of orthogonalized atomic orbitals = 412
 Maximum deviation from orthogonality = 5.704E-10

 Scale SEOQF with 1.000000e-01/1.000000e-01/1.000000e-01

 Standard Electronic Orientation quadrupole field applied
 Nucleus-field energy     =     0.0000000379 hartrees
 Guess from superposition of atomic densities
 Warning:  Energy on first SCF cycle will be non-variational
 A restricted hybrid HF-DFT SCF calculation will be
 performed using Pulay DIIS extrapolation
 Exchange:     0.2000 Hartree-Fock + 0.0800 Slater + 0.7200 B88
 Correlation:  0.1900 VWN1RPA + 0.8100 LYP
 Using SG-1 standard quadrature grid
 Dispersion:   Grimme D3
 SCF converges when DIIS error is below 1.0E-08
 using 20 threads for integral computing
 -------------------------------------------------------
 OpenMP Integral computing Module                
 Release: version 1.0, May 2013, Q-Chem Inc. Pittsburgh 
 -------------------------------------------------------
 -------------------------------------------------------
 OpenMP BLAS3 based DFT computing Module                
 Release: version 1.0, May 2013, Q-Chem Inc. Pittsburgh 
 -------------------------------------------------------
 ---------------------------------------
  Cycle       Energy         DIIS Error
 ---------------------------------------
    1    -730.6717197593      3.18E-02
    2    -727.2424536854      4.09E-03
    3    -726.7673060204      6.92E-03
    4    -727.4954016199      1.59E-03
    5    -727.5382082458      4.05E-04
    6    -727.5402815966      1.74E-04
    7    -727.5407527737      3.85E-05
    8    -727.5407749166      1.64E-05
    9    -727.5407805282      3.94E-06
   10    -727.5407808286      1.39E-06
   11    -727.5407808599      7.23E-07
   12    -727.5407808680      1.81E-07
   13    -727.5407808681      5.49E-08
   14    -727.5407808678      1.36E-08
   15    -727.5407808684      7.36E-09 Convergence criterion met
 ---------------------------------------
 SCF time:  CPU 673.12 s  wall 40.06 s
 SCF   energy in the final basis set = -727.54078087
 Total energy in the final basis set = -727.54078087
 
 --------------------------------------------------------------
 
                    Orbital Energies (a.u.)
 --------------------------------------------------------------
 
 Alpha MOs
 -- Occupied --
-19.179 -19.165 -19.118 -19.108 -10.313 -10.303 -10.234 -10.219
-10.210 -10.210 -10.208 -10.195 -10.191 -10.188 -10.174  -1.122
 -1.107  -1.032  -1.020  -0.885  -0.800  -0.791  -0.746  -0.726
 -0.704  -0.648  -0.625  -0.586  -0.566  -0.541  -0.521  -0.501
 -0.498  -0.491  -0.480  -0.474  -0.460  -0.442  -0.434  -0.429
 -0.423  -0.411  -0.407  -0.391  -0.385  -0.373  -0.371  -0.356
 -0.354  -0.322  -0.304  -0.293  -0.289  -0.272  -0.260
 -- Virtual --
 -0.065  -0.028  -0.012  -0.004   0.003   0.010   0.012   0.020
  0.025   0.028   0.034   0.036   0.040   0.046   0.049   0.054
  0.061   0.064   0.067   0.081   0.085   0.088   0.092   0.103
  0.107   0.109   0.111   0.113   0.116   0.119   0.123   0.124
  0.128   0.130   0.134   0.138   0.142   0.146   0.151   0.154
  0.155   0.156   0.160   0.170   0.171   0.176   0.180   0.181
  0.184   0.187   0.188   0.199   0.204   0.208   0.210   0.218
  0.219   0.230   0.236   0.241   0.249   0.254   0.255   0.261
  0.264   0.268   0.275   0.279   0.285   0.292   0.296   0.303
  0.304   0.308   0.316   0.319   0.322   0.326   0.328   0.338
  0.340   0.344   0.355   0.361   0.365   0.370   0.379   0.385
  0.393   0.397   0.401   0.404   0.413   0.423   0.430   0.443
  0.446   0.450   0.476   0.482   0.488   0.502   0.512   0.526
  0.539   0.540   0.557   0.567   0.570   0.585   0.589   0.592
  0.596   0.609   0.611   0.615   0.632   0.641   0.644   0.647
  0.657   0.659   0.668   0.670   0.676   0.686   0.691   0.698
  0.708   0.723   0.728   0.731   0.739   0.744   0.756   0.768
  0.781   0.787   0.796   0.829   0.843   0.859   0.868   0.886
  0.898   0.919   0.936   0.953   0.956   0.970   0.977   0.989
  0.995   1.004   1.014   1.032   1.041   1.055   1.062   1.074
  1.081   1.086   1.099   1.125   1.133   1.153   1.163   1.180
  1.211   1.233   1.258   1.271   1.291   1.309   1.331   1.355
  1.362   1.368   1.374   1.407   1.412   1.417   1.432   1.440
  1.449   1.459   1.472   1.482   1.500   1.514   1.516   1.536
  1.541   1.554   1.563   1.569   1.574   1.589   1.595   1.601
  1.623   1.650   1.663   1.667   1.684   1.695   1.701   1.713
  1.722   1.733   1.738   1.747   1.750   1.770   1.775   1.787
  1.813   1.830   1.846   1.867   1.888   1.891   1.916   1.924
  1.927   1.942   1.959   1.974   1.995   2.018   2.020   2.047
  2.061   2.084   2.103   2.112   2.134   2.138   2.165   2.191
  2.195   2.216   2.246   2.274   2.301   2.313   2.368   2.415
  2.436   2.447   2.456   2.487   2.487   2.506   2.513   2.529
  2.534   2.544   2.554   2.572   2.577   2.582   2.607   2.639
  2.653   2.671   2.681   2.702   2.707   2.724   2.759   2.771
  2.785   2.796   2.807   2.823   2.828   2.851   2.857   2.867
  2.873   2.901   2.916   2.930   2.939   2.991   3.007   3.033
  3.045   3.068   3.088   3.108   3.117   3.129   3.167   3.204
  3.213   3.233   3.246   3.277   3.302   3.318   3.373   3.389
  3.397   3.408   3.530   3.550   3.604   3.619   3.638   3.677
  3.766   3.785   3.788   3.792   3.832   3.861   3.879   3.916
  4.041   4.049   4.084   4.091   4.131   4.172   4.247   4.343
  4.387   4.843   5.005   5.026   5.083   5.165   5.239   5.319
  5.398   5.426   5.630   5.671   5.867   5.921  23.564  23.838
 23.864  23.917  23.926  23.932  23.941  23.985  24.044  24.088
 24.176  49.912  49.923  50.014  50.053
 --------------------------------------------------------------
 
          Ground-State Mulliken Net Atomic Charges

     Atom                 Charge (a.u.)
  ----------------------------------------
      1 C                     0.156158
      2 C                     0.661827
      3 C                    -0.894183
      4 C                    -0.214495
      5 O                     0.068833
      6 O                    -0.129718
      7 O                    -0.133449
      8 O                    -0.202553
      9 C                    -0.222126
     10 C                    -0.212497
     11 C                    -0.218648
     12 C                     0.014524
     13 C                    -0.649672
     14 C                     0.456048
     15 H                     0.191374
     16 H                     0.185290
     17 H                     0.111050
     18 H                     0.186780
     19 H                     0.151533
     20 H                     0.151067
     21 H                     0.163621
     22 H                     0.182024
     23 H                     0.163044
     24 C                    -0.477644
     25 H                     0.179280
     26 H                     0.179860
     27 H                     0.152669
  ----------------------------------------
  Sum of atomic charges =     0.000000

 -----------------------------------------------------------------
                    Cartesian Multipole Moments
 -----------------------------------------------------------------
    Charge (ESU x 10^10)
                 0.0000
    Dipole Moment (Debye)
         X      -2.5552      Y      -0.2742      Z      -1.9704
       Tot       3.2383
    Quadrupole Moments (Debye-Ang)
        XX     -78.1786     XY      -2.7327     YY     -74.5181
        XZ      -5.9764     YZ      -1.1362     ZZ     -94.1875
    Octopole Moments (Debye-Ang^2)
       XXX      23.2695    XXY      20.2197    XYY     -13.0763
       YYY      18.0396    XXZ     -19.6019    XYZ      -6.9315
       YYZ      -0.8524    XZZ      -5.9621    YZZ      17.3072
       ZZZ      -3.7887
    Hexadecapole Moments (Debye-Ang^3)
      XXXX   -2095.3722   XXXY      -1.7053   XXYY    -586.9913
      XYYY     -88.8612   YYYY   -1558.7394   XXXZ     -58.3329
      XXYZ     -12.4465   XYYZ       0.5378   YYYZ       2.5950
      XXZZ    -440.6214   XYZZ     -12.8807   YYZZ    -346.8305
      XZZZ     -20.6955   YZZZ      -4.4351   ZZZZ    -250.9547
 -----------------------------------------------------------------
 Calculating analytic gradient of the SCF energy
 Gradient of SCF Energy
            1           2           3           4           5           6
    1  -0.0000242  -0.0000613   0.0001916   0.0000741   0.0000517  -0.0001640
    2   0.0001622  -0.0000394  -0.0003779   0.0000249   0.0000348   0.0002117
    3  -0.0005115   0.0004904   0.0001675  -0.0003101  -0.0000198  -0.0000030
            7           8           9          10          11          12
    1  -0.0000137  -0.0000149   0.0000181  -0.0000606  -0.0000180  -0.0000072
    2   0.0000568  -0.0000301  -0.0000702  -0.0000570  -0.0000198  -0.0000025
    3   0.0000058   0.0001996  -0.0000001  -0.0000033  -0.0000040   0.0000102
           13          14          15          16          17          18
    1  -0.0000108   0.0000032   0.0000137   0.0000202  -0.0000186   0.0000211
    2   0.0000166  -0.0000147   0.0000115  -0.0000116   0.0000096   0.0000166
    3  -0.0000358   0.0000105   0.0000146   0.0000164   0.0000007   0.0000098
           19          20          21          22          23          24
    1   0.0000154   0.0000216   0.0000128  -0.0000203  -0.0000130  -0.0000049
    2   0.0000225  -0.0000055  -0.0000188   0.0000008  -0.0000100   0.0000942
    3   0.0000068   0.0000116   0.0000087  -0.0000365   0.0000018   0.0000049
           25          26          27
    1   0.0000023   0.0000006  -0.0000152
    2  -0.0000107  -0.0000059   0.0000119
    3  -0.0000228  -0.0000033  -0.0000090
 Max gradient component =       5.115E-04
 RMS gradient           =       1.109E-04
 Gradient time:  CPU 211.82 s  wall 18.49 s
 Geometry Optimization Parameters
   NAtoms,    NIC,     NZ,  NCons,   NDum,   NFix, NCnnct, MaxDiis
       27     173       0       0       0       0       0       0


** GEOMETRY OPTIMIZATION IN DELOCALIZED INTERNAL COORDINATES **
   Searching for a Transition State

   Optimization Cycle:   1

                       Coordinates (Angstroms)
     ATOM                X               Y               Z
      1  C         0.6363435300   -0.9062061200    0.1293692500
      2  C        -0.6433892200   -0.3221629900    0.0228555600
      3  C         1.8982580400   -0.1065371400    0.3254343700
      4  C        -0.6900183200    1.1712367700    0.0806016100
      5  O         2.4253599800    0.2583352500   -0.8553954000
      6  O         2.4220154700    0.0702685200    1.3962030000
      7  O        -1.9324810100    1.6880836900    0.0068240600
      8  O         0.2914253200    1.8723960200    0.1899106000
      9  C        -2.0196644500    3.1230489500    0.0737861400
     10  C         3.6062262200    1.0781985600   -0.7822828400
     11  C         0.7968381700   -2.2885464100    0.0998040800
     12  C        -0.3139637300   -3.1098532200   -0.0454534600
     13  C        -1.5778124200   -2.5444575000   -0.1541536600
     14  C        -1.7798137700   -1.1598627300   -0.1200674600
     15  H        -1.6034430800    3.4858434000    1.0144614500
     16  H         3.3726039000    2.0149922100   -0.2739668000
     17  H        -2.4411636500   -3.1910839000   -0.2649970200
     18  H        -1.4779302000    3.5767194600   -0.7572359600
     19  H        -3.0819132200    3.3490508600    0.0098381300
     20  H         3.8951223100    1.2623210600   -1.8146404400
     21  H         4.4019309900    0.5598482300   -0.2451241800
     22  H        -0.1967383400   -4.1873537100   -0.0733519300
     23  H         1.7889224300   -2.7135273600    0.1928205900
     24  C        -3.2067203100   -0.6738068700   -0.2418074500
     25  H        -3.3363060500   -0.0096714200   -1.0974598900
     26  H        -3.5184670200   -0.1129310300    0.6407378000
     27  H        -3.8750614200   -1.5282631600   -0.3616368300
   Point Group: c1    Number of degrees of freedom:    75


   Energy is   -727.540780868


 Attempting to Generate Delocalized Internal Coordinates

 75 Hessian modes will be used to form the next step
  Hessian Eigenvalues:
     0.007548    0.008284    0.009808    0.010429    0.010464    0.013865
     0.013947    0.015526    0.017254    0.018013    0.020784    0.022526
     0.022564    0.023103    0.023133    0.023651    0.023665    0.023870
     0.071428    0.073096    0.101303    0.101608    0.106111    0.106212
     0.159998    0.160000    0.160000    0.160000    0.160000    0.160000
     0.160000    0.160000    0.160000    0.160000    0.160000    0.160000
     0.220838    0.234512    0.249066    0.249102    0.249847    0.249994
     0.249998    0.250000    0.250000    0.250000    0.250000    0.250000
     0.311177    0.316779    0.328816    0.346524    0.346777    0.346833
     0.346925    0.347117    0.347179    0.347264    0.350558    0.350780
     0.354753    0.354895    0.356011    0.396634    0.396995    0.405596
     0.415610    0.442636    0.461867    0.464056    0.473733    0.555143
     0.564004    0.994298    1.023296
**WARNING** Hessian does not have the Desired Local Structure

 Transition State Search - Taking P-RFO Step
 Searching for Lamda that Maximizes Along the Lowest mode
 Value Taken    Lamda =   0.00754816
 Searching for Lamda that Minimizes Along All other modes
 Value Taken    Lamda =  -0.00001809
 Calculated Step too Large.  Step scaled by  0.000652
 Step Taken.  Stepsize is  0.300000

                             Maximum     Tolerance    Cnvgd?
         Gradient           0.000157      0.000001      NO
         Displacement       0.225139      0.000001      NO
         Energy change     *********      0.000000      NO


 New Cartesian Coordinates Obtained by Inverse Iteration

 Displacement from previous Coordinates is:  0.403393
 Adding empirical dispersion correction 
 ----------------------------------------------------------------
 Doing -D3(op) with
 s6 =   1.00000
 s8 =   0.78311
 a1 =   0.30000
 a2 =   4.25000
 n  =  10.00000
 -D3 energy without 3body term =     -0.0278245462 hartrees
 ----------------------------------------------------------------
             Standard Nuclear Orientation (Angstroms)
    I     Atom           X                Y                Z
 ----------------------------------------------------------------
    1      C       0.6362447208    -0.9068082368     0.1273596774
    2      C      -0.6434527599    -0.3225471174     0.0216203099
    3      C       1.8979905352    -0.1076062669     0.3263922573
    4      C      -0.6902017500     1.1706878347     0.0833914428
    5      O       2.4258147271     0.2605033903    -0.8531093713
    6      O       2.4210683964     0.0663092255     1.3979661154
    7      O      -1.9326466328     1.6876658225     0.0102351209
    8      O       0.2911340841     1.8716012038     0.1952163583
    9      C      -2.0199521750     3.1224394742     0.0810349358
   10      C       3.6065917191     1.0802249204    -0.7770253223
   11      C       0.7968351706    -2.2890544592     0.0941426745
   12      C      -0.3138287692    -3.1100238799    -0.0540474525
   13      C      -1.5776399146    -2.5444034092    -0.1620123515
   14      C      -1.7797399613    -1.1599171846    -0.1242954184
   15      H      -1.6043422119     3.4827031503     1.0229524009
   16      H       3.3726008296     2.0156206767    -0.2663101752
   17      H      -2.4408847573    -3.1907731307    -0.2751574757
   18      H      -1.4777211412     3.5783920177    -0.7484127309
   19      H      -3.0821731621     3.3485565535     0.0170326274
   20      H       3.8961264683     1.2671692248    -1.8086966392
   21      H       4.4019861580     0.5604560034    -0.2407786251
   22      H      -0.1965256845    -4.1874383244    -0.0847968389
   23      H       1.7888840592    -2.7142327810     0.1866329572
   24      C      -3.2065962621    -0.6736097812    -0.2456187933
   25      H      -3.3645846790    -0.1083406297    -1.1651403616
   26      H      -3.4792478955    -0.0134209819     0.5792846511
   27      H      -3.8855789621    -1.5280738948    -0.2427866531
 ----------------------------------------------------------------
 Nuclear Repulsion Energy =  1007.7173159324 hartrees
 There are       55 alpha and       55 beta electrons
 Applying Cartesian multipole field
    Component          Value
    ---------          -----
     (2,0,0)        1.00000E-11
     (0,2,0)        2.00000E-11
     (0,0,2)       -3.00000E-11
 Nucleus-field energy     =     0.0000000379 hartrees
 Requested basis set is 6-311++G(d,p)
 There are 150 shells and 414 basis functions
 A cutoff of  1.0D-11 yielded   8991 shell pairs
 There are     70722 function pairs (     75654 Cartesian)
 Smallest overlap matrix eigenvalue = 1.26E-07

 Q-Chem warning in module /fs/scratch/osu6415/qchem-kaunlao-vdw/stvman/mkSTV.C, line 281:

 Overlap eigenvalue is smaller than square root of threshold

 Linear dependence detected in AO basis
 Number of orthogonalized atomic orbitals = 412
 Maximum deviation from orthogonality = 6.315E-10
 Guess MOs from SCF MO coefficient file
 Reading MOs from coefficient file
 Reading MOs from coefficient file
 A restricted hybrid HF-DFT SCF calculation will be
 performed using Pulay DIIS extrapolation
 Exchange:     0.2000 Hartree-Fock + 0.0800 Slater + 0.7200 B88
 Correlation:  0.1900 VWN1RPA + 0.8100 LYP
 Using SG-1 standard quadrature grid
 Dispersion:   Grimme D3
 SCF converges when DIIS error is below 1.0E-08
 Geometry optimization detected.  Setting ReadMinima to 0
 Setting SaveMinima to 0
 using 20 threads for integral computing
 -------------------------------------------------------
 OpenMP Integral computing Module                
 Release: version 1.0, May 2013, Q-Chem Inc. Pittsburgh 
 -------------------------------------------------------
 -------------------------------------------------------
 OpenMP BLAS3 based DFT computing Module                
 Release: version 1.0, May 2013, Q-Chem Inc. Pittsburgh 
 -------------------------------------------------------
 ---------------------------------------
  Cycle       Energy         DIIS Error
 ---------------------------------------
    1    -727.5340585725      3.17E-04
    2    -727.5405024391      5.57E-05
    3    -727.5404086130      9.10E-05
    4    -727.5405916702      1.99E-05
    5    -727.5405983652      6.43E-06
    6    -727.5405988857      3.28E-06
    7    -727.5405990613      7.40E-07
    8    -727.5405990724      2.36E-07
    9    -727.5405990735      5.82E-08
   10    -727.5405990733      3.12E-08
   11    -727.5405990720      7.20E-09 Convergence criterion met
 ---------------------------------------
 SCF time:  CPU 504.95 s  wall 29.25 s
 SCF   energy in the final basis set = -727.54059907
 Total energy in the final basis set = -727.54059907
 
 --------------------------------------------------------------
 
                    Orbital Energies (a.u.)
 --------------------------------------------------------------
 
 Alpha MOs
 -- Occupied --
-19.179 -19.165 -19.119 -19.108 -10.313 -10.303 -10.234 -10.219
-10.210 -10.210 -10.208 -10.195 -10.191 -10.188 -10.174  -1.122
 -1.107  -1.032  -1.020  -0.885  -0.800  -0.791  -0.746  -0.726
 -0.704  -0.648  -0.625  -0.586  -0.566  -0.541  -0.521  -0.501
 -0.498  -0.491  -0.480  -0.474  -0.460  -0.442  -0.434  -0.429
 -0.423  -0.412  -0.407  -0.391  -0.385  -0.373  -0.371  -0.356
 -0.354  -0.322  -0.304  -0.293  -0.289  -0.272  -0.260
 -- Virtual --
 -0.065  -0.029  -0.012  -0.004   0.003   0.010   0.012   0.020
  0.025   0.028   0.034   0.036   0.040   0.046   0.049   0.054
  0.061   0.065   0.067   0.082   0.083   0.087   0.093   0.104
  0.107   0.109   0.110   0.113   0.117   0.119   0.123   0.125
  0.127   0.130   0.133   0.137   0.142   0.147   0.151   0.155
  0.155   0.155   0.160   0.170   0.171   0.177   0.179   0.181
  0.184   0.186   0.188   0.199   0.205   0.208   0.209   0.218
  0.220   0.230   0.236   0.241   0.248   0.253   0.255   0.262
  0.263   0.268   0.276   0.279   0.285   0.292   0.297   0.303
  0.303   0.308   0.315   0.319   0.323   0.325   0.326   0.338
  0.341   0.344   0.355   0.359   0.366   0.370   0.378   0.385
  0.393   0.397   0.401   0.404   0.412   0.423   0.429   0.442
  0.450   0.450   0.476   0.483   0.488   0.502   0.511   0.526
  0.538   0.540   0.557   0.565   0.570   0.584   0.588   0.592
  0.595   0.609   0.611   0.614   0.633   0.643   0.644   0.647
  0.656   0.660   0.667   0.671   0.674   0.685   0.691   0.699
  0.707   0.724   0.729   0.730   0.739   0.743   0.758   0.768
  0.780   0.787   0.796   0.827   0.842   0.858   0.868   0.885
  0.898   0.918   0.937   0.952   0.959   0.968   0.978   0.989
  0.995   1.006   1.012   1.038   1.039   1.056   1.061   1.074
  1.082   1.086   1.099   1.124   1.134   1.153   1.163   1.178
  1.211   1.233   1.258   1.270   1.291   1.309   1.327   1.351
  1.364   1.370   1.374   1.396   1.408   1.417   1.431   1.433
  1.448   1.459   1.480   1.487   1.506   1.513   1.517   1.538
  1.541   1.555   1.563   1.565   1.576   1.589   1.597   1.600
  1.624   1.649   1.663   1.668   1.678   1.696   1.702   1.714
  1.721   1.733   1.737   1.746   1.750   1.767   1.775   1.791
  1.814   1.830   1.846   1.866   1.886   1.894   1.918   1.923
  1.927   1.941   1.959   1.973   1.995   2.019   2.020   2.048
  2.060   2.084   2.103   2.112   2.133   2.138   2.163   2.191
  2.195   2.213   2.247   2.271   2.301   2.313   2.369   2.415
  2.436   2.447   2.456   2.486   2.487   2.506   2.512   2.529
  2.534   2.544   2.558   2.572   2.580   2.582   2.606   2.639
  2.653   2.671   2.681   2.703   2.706   2.724   2.759   2.771
  2.784   2.796   2.808   2.819   2.830   2.850   2.857   2.868
  2.871   2.900   2.917   2.929   2.940   2.991   3.005   3.033
  3.043   3.068   3.087   3.108   3.111   3.125   3.167   3.204
  3.213   3.232   3.246   3.277   3.295   3.317   3.373   3.389
  3.397   3.407   3.530   3.549   3.604   3.620   3.638   3.677
  3.766   3.785   3.790   3.792   3.832   3.861   3.879   3.916
  4.041   4.049   4.084   4.090   4.131   4.171   4.247   4.343
  4.387   4.842   5.006   5.027   5.083   5.165   5.239   5.319
  5.397   5.423   5.630   5.671   5.867   5.920  23.564  23.838
 23.864  23.917  23.926  23.932  23.941  23.985  24.045  24.088
 24.175  49.912  49.923  50.014  50.053
 --------------------------------------------------------------
 
          Ground-State Mulliken Net Atomic Charges

     Atom                 Charge (a.u.)
  ----------------------------------------
      1 C                     0.167782
      2 C                     0.665733
      3 C                    -0.892014
      4 C                    -0.217659
      5 O                     0.069175
      6 O                    -0.129857
      7 O                    -0.133697
      8 O                    -0.202026
      9 C                    -0.223528
     10 C                    -0.212123
     11 C                    -0.224234
     12 C                     0.014308
     13 C                    -0.637416
     14 C                     0.434662
     15 H                     0.192451
     16 H                     0.185190
     17 H                     0.113116
     18 H                     0.185769
     19 H                     0.151198
     20 H                     0.151050
     21 H                     0.163648
     22 H                     0.181398
     23 H                     0.163109
     24 C                    -0.478012
     25 H                     0.182249
     26 H                     0.177604
     27 H                     0.152124
  ----------------------------------------
  Sum of atomic charges =     0.000000

 -----------------------------------------------------------------
                    Cartesian Multipole Moments
 -----------------------------------------------------------------
    Charge (ESU x 10^10)
                 0.0000
    Dipole Moment (Debye)
         X      -2.5519      Y      -0.2659      Z      -1.9827
       Tot       3.2425
    Quadrupole Moments (Debye-Ang)
        XX     -78.1857     XY      -2.7228     YY     -74.5091
        XZ      -5.9433     YZ      -1.0719     ZZ     -94.1963
    Octopole Moments (Debye-Ang^2)
       XXX      23.3856    XXY      20.3286    XYY     -13.0478
       YYY      18.1206    XXZ     -19.6221    XYZ      -6.9218
       YYZ      -0.7431    XZZ      -6.0131    YZZ      17.3369
       ZZZ      -3.9110
    Hexadecapole Moments (Debye-Ang^3)
      XXXX   -2095.5329   XXXY      -1.5596   XXYY    -586.7880
      XYYY     -88.8430   YYYY   -1558.7574   XXXZ     -58.5982
      XXYZ     -13.1800   XYYZ      -0.5307   YYYZ       0.8672
      XXZZ    -440.8547   XYZZ     -12.9169   YYZZ    -346.9196
      XZZZ     -20.6393   YZZZ      -6.4550   ZZZZ    -250.8064
 -----------------------------------------------------------------
 Calculating analytic gradient of the SCF energy
 Gradient of SCF Energy
            1           2           3           4           5           6
    1  -0.0000610  -0.0000337   0.0001998  -0.0000109   0.0000544  -0.0001741
    2   0.0001907  -0.0000088  -0.0003695   0.0000429   0.0000353   0.0002036
    3  -0.0004736   0.0006704   0.0001303  -0.0002808  -0.0000147  -0.0000045
            7           8           9          10          11          12
    1  -0.0001548   0.0000235  -0.0000056  -0.0000602  -0.0000376   0.0000222
    2  -0.0001471  -0.0000193  -0.0001000  -0.0000539  -0.0000590  -0.0000065
    3   0.0004788   0.0001659   0.0000170  -0.0000050   0.0000175   0.0001853
           13          14          15          16          17          18
    1  -0.0000549  -0.0000385   0.0000106   0.0000194   0.0000069   0.0000311
    2   0.0000230  -0.0000900   0.0000058  -0.0000127   0.0000310   0.0000232
    3  -0.0000024  -0.0001103   0.0000167   0.0000171  -0.0000905   0.0000115
           19          20          21          22          23          24
    1   0.0000189   0.0000214   0.0000132  -0.0000180  -0.0000093   0.0002919
    2   0.0000196  -0.0000058  -0.0000188   0.0000028  -0.0000110   0.0000017
    3   0.0000176   0.0000120   0.0000075  -0.0000593  -0.0000331  -0.0028148
           25          26          27
    1  -0.0001814   0.0002151  -0.0000884
    2  -0.0006701   0.0008462   0.0001467
    3   0.0006842   0.0006880   0.0007691
 Max gradient component =       2.815E-03
 RMS gradient           =       3.895E-04
 Gradient time:  CPU 212.25 s  wall 16.54 s
 Geometry Optimization Parameters
   NAtoms,    NIC,     NZ,  NCons,   NDum,   NFix, NCnnct, MaxDiis
       27     173       0       0       0       0       0       0

 Cartesian Hessian Update
 Hessian Updated using Powell/Murtagh-Sargent Update
  Mixing factors:     0.000065 Powell
                      0.999935 Murtagh-Sargent


** GEOMETRY OPTIMIZATION IN DELOCALIZED INTERNAL COORDINATES **
   Searching for a Transition State

   Optimization Cycle:   2

                       Coordinates (Angstroms)
     ATOM                X               Y               Z
      1  C         0.6362447208   -0.9068082368    0.1273596774
      2  C        -0.6434527599   -0.3225471174    0.0216203099
      3  C         1.8979905352   -0.1076062669    0.3263922573
      4  C        -0.6902017500    1.1706878347    0.0833914428
      5  O         2.4258147271    0.2605033903   -0.8531093713
      6  O         2.4210683964    0.0663092255    1.3979661154
      7  O        -1.9326466328    1.6876658225    0.0102351209
      8  O         0.2911340841    1.8716012038    0.1952163583
      9  C        -2.0199521750    3.1224394742    0.0810349358
     10  C         3.6065917191    1.0802249204   -0.7770253223
     11  C         0.7968351706   -2.2890544592    0.0941426745
     12  C        -0.3138287692   -3.1100238799   -0.0540474525
     13  C        -1.5776399146   -2.5444034092   -0.1620123515
     14  C        -1.7797399613   -1.1599171846   -0.1242954184
     15  H        -1.6043422119    3.4827031503    1.0229524009
     16  H         3.3726008296    2.0156206767   -0.2663101752
     17  H        -2.4408847573   -3.1907731307   -0.2751574757
     18  H        -1.4777211412    3.5783920177   -0.7484127309
     19  H        -3.0821731621    3.3485565535    0.0170326274
     20  H         3.8961264683    1.2671692248   -1.8086966392
     21  H         4.4019861580    0.5604560034   -0.2407786251
     22  H        -0.1965256845   -4.1874383244   -0.0847968389
     23  H         1.7888840592   -2.7142327810    0.1866329572
     24  C        -3.2065962621   -0.6736097812   -0.2456187933
     25  H        -3.3645846790   -0.1083406297   -1.1651403616
     26  H        -3.4792478955   -0.0134209819    0.5792846511
     27  H        -3.8855789621   -1.5280738948   -0.2427866531
   Point Group: c1    Number of degrees of freedom:    75


   Energy is   -727.540599072

 Hessian Updated using Powell/Murtagh-Sargent Update
  Mixing factors:     0.835415 Powell
                      0.164585 Murtagh-Sargent

 75 Hessian modes will be used to form the next step
  Hessian Eigenvalues:
     0.001924    0.008284    0.010212    0.010429    0.010464    0.013865
     0.014084    0.015528    0.017318    0.018045    0.020892    0.022527
     0.022564    0.023103    0.023135    0.023652    0.023666    0.023870
     0.071418    0.072951    0.101303    0.101608    0.106111    0.106212
     0.159705    0.159998    0.160000    0.160000    0.160000    0.160000
     0.160000    0.160000    0.160000    0.160000    0.160000    0.160000
     0.220834    0.234492    0.249038    0.249102    0.249296    0.249848
     0.249996    0.249998    0.250000    0.250000    0.250000    0.250000
     0.311171    0.316779    0.328800    0.346100    0.346525    0.346833
     0.346925    0.346993    0.347179    0.347264    0.350558    0.350780
     0.354753    0.354895    0.356011    0.396634    0.396995    0.405537
     0.415609    0.442636    0.461867    0.464056    0.473732    0.555142
     0.564003    0.994298    1.023296
**WARNING** Hessian does not have the Desired Local Structure

 Transition State Search - Taking P-RFO Step
 Searching for Lamda that Maximizes Along the Lowest mode
 Value Taken    Lamda =   0.00209079
 Searching for Lamda that Minimizes Along All other modes
 Value Taken    Lamda =  -0.00018365
 Calculated Step too Large.  Step scaled by  0.084736
 Step Taken.  Stepsize is  0.300000

                             Maximum     Tolerance    Cnvgd?
         Gradient           0.000950      0.000001      NO
         Displacement       0.213933      0.000001      NO
         Energy change      0.000182      0.000000      NO


 New Cartesian Coordinates Obtained by Inverse Iteration

 Displacement from previous Coordinates is:  0.571177
 Adding empirical dispersion correction 
 ----------------------------------------------------------------
 Doing -D3(op) with
 s6 =   1.00000
 s8 =   0.78311
 a1 =   0.30000
 a2 =   4.25000
 n  =  10.00000
 -D3 energy without 3body term =     -0.0278177891 hartrees
 ----------------------------------------------------------------
             Standard Nuclear Orientation (Angstroms)
    I     Atom           X                Y                Z
 ----------------------------------------------------------------
    1      C       0.6337940100    -0.9119049875     0.1326389559
    2      C      -0.6474567643    -0.3270890110     0.0493557923
    3      C       1.8962581867    -0.1153392464     0.3376251568
    4      C      -0.6897930042     1.1663239811     0.1175215251
    5      O       2.4125764873     0.2797460299    -0.8382190233
    6      O       2.4303221441     0.0334710745     1.4075662539
    7      O      -1.9227878507     1.6927604297    -0.0195455278
    8      O       0.2928336662     1.8619612622     0.2490204456
    9      C      -1.9999330867     3.1290962581     0.0289405365
   10      C       3.5942972361     1.0973790932    -0.7546056281
   11      C       0.7970054827    -2.2923768820     0.0625062624
   12      C      -0.3126249237    -3.1113083808    -0.1027806257
   13      C      -1.5784434801    -2.5458652125    -0.1831128449
   14      C      -1.7841853980    -1.1637666701    -0.1010868701
   15      H      -1.6247451171     3.4981308246     0.9843406586
   16      H       3.3655366949     2.0207596547    -0.2202046548
   17      H      -2.4414987933    -3.1913339075    -0.3030242038
   18      H      -1.4159247199     3.5693225954    -0.7803795163
   19      H      -3.0559276392     3.3636095399    -0.0869413829
   20      H       3.8740082163     1.3080347743    -1.7844116231
   21      H       4.3945992577     0.5652681601    -0.2381203665
   22      H      -0.1933961656    -4.1872188058    -0.1638710417
   23      H       1.7905768770    -2.7176019377     0.1365658588
   24      C      -3.2153556575    -0.6823186623    -0.1890828834
   25      H      -3.4151171062    -0.1936754168    -1.1454537222
   26      H      -3.4520402500     0.0426038404     0.5890883691
   27      H      -3.8924181524    -1.5325889775    -0.0892565801
 ----------------------------------------------------------------
 Nuclear Repulsion Energy =  1007.8073449453 hartrees
 There are       55 alpha and       55 beta electrons
 Applying Cartesian multipole field
    Component          Value
    ---------          -----
     (2,0,0)        1.00000E-11
     (0,2,0)        2.00000E-11
     (0,0,2)       -3.00000E-11
 Nucleus-field energy     =     0.0000000380 hartrees
 Requested basis set is 6-311++G(d,p)
 There are 150 shells and 414 basis functions
 A cutoff of  1.0D-11 yielded   8996 shell pairs
 There are     70747 function pairs (     75681 Cartesian)
 Smallest overlap matrix eigenvalue = 1.27E-07

 Q-Chem warning in module /fs/scratch/osu6415/qchem-kaunlao-vdw/stvman/mkSTV.C, line 281:

 Overlap eigenvalue is smaller than square root of threshold

 Linear dependence detected in AO basis
 Number of orthogonalized atomic orbitals = 412
 Maximum deviation from orthogonality = 2.540E-10
 Guess MOs from SCF MO coefficient file
 Reading MOs from coefficient file
 Reading MOs from coefficient file
 A restricted hybrid HF-DFT SCF calculation will be
 performed using Pulay DIIS extrapolation
 Exchange:     0.2000 Hartree-Fock + 0.0800 Slater + 0.7200 B88
 Correlation:  0.1900 VWN1RPA + 0.8100 LYP
 Using SG-1 standard quadrature grid
 Dispersion:   Grimme D3
 SCF converges when DIIS error is below 1.0E-08
 Geometry optimization detected.  Setting ReadMinima to 0
 Setting SaveMinima to 0
 using 20 threads for integral computing
 -------------------------------------------------------
 OpenMP Integral computing Module                
 Release: version 1.0, May 2013, Q-Chem Inc. Pittsburgh 
 -------------------------------------------------------
 -------------------------------------------------------
 OpenMP BLAS3 based DFT computing Module                
 Release: version 1.0, May 2013, Q-Chem Inc. Pittsburgh 
 -------------------------------------------------------
 ---------------------------------------
  Cycle       Energy         DIIS Error
 ---------------------------------------
    1    -727.5319722658      8.12E-04
    2    -727.5401893551      7.15E-05
    3    -727.5402058493      8.32E-05
    4    -727.5403260017      3.32E-05
    5    -727.5403452305      8.01E-06
    6    -727.5403458050      5.42E-06
    7    -727.5403463028      1.73E-06
    8    -727.5403463617      3.30E-07
    9    -727.5403463633      1.25E-07
   10    -727.5403463639      4.38E-08
   11    -727.5403463631      2.05E-08
   12    -727.5403463622      6.34E-09 Convergence criterion met
 ---------------------------------------
 SCF time:  CPU 552.05 s  wall 32.21 s
 SCF   energy in the final basis set = -727.54034636
 Total energy in the final basis set = -727.54034636
 
 --------------------------------------------------------------
 
                    Orbital Energies (a.u.)
 --------------------------------------------------------------
 
 Alpha MOs
 -- Occupied --
-19.179 -19.165 -19.119 -19.108 -10.313 -10.303 -10.234 -10.219
-10.211 -10.210 -10.208 -10.195 -10.191 -10.188 -10.174  -1.122
 -1.107  -1.032  -1.020  -0.885  -0.800  -0.791  -0.746  -0.726
 -0.704  -0.648  -0.625  -0.586  -0.566  -0.541  -0.521  -0.501
 -0.498  -0.491  -0.480  -0.474  -0.460  -0.442  -0.434  -0.429
 -0.423  -0.412  -0.407  -0.391  -0.385  -0.372  -0.371  -0.356
 -0.354  -0.322  -0.304  -0.293  -0.289  -0.272  -0.260
 -- Virtual --
 -0.065  -0.029  -0.012  -0.004   0.003   0.010   0.012   0.020
  0.025   0.028   0.034   0.037   0.040   0.045   0.050   0.054
  0.061   0.065   0.068   0.080   0.084   0.089   0.092   0.104
  0.107   0.109   0.110   0.113   0.117   0.119   0.124   0.125
  0.127   0.130   0.132   0.137   0.142   0.148   0.151   0.154
  0.155   0.156   0.159   0.170   0.172   0.177   0.178   0.181
  0.185   0.186   0.187   0.199   0.205   0.207   0.209   0.217
  0.220   0.230   0.237   0.241   0.247   0.251   0.256   0.261
  0.263   0.269   0.276   0.279   0.286   0.292   0.296   0.301
  0.303   0.307   0.314   0.319   0.322   0.323   0.325   0.338
  0.340   0.345   0.355   0.358   0.365   0.370   0.378   0.385
  0.393   0.395   0.401   0.404   0.415   0.422   0.427   0.440
  0.450   0.455   0.476   0.484   0.494   0.500   0.510   0.526
  0.537   0.539   0.557   0.563   0.570   0.581   0.588   0.591
  0.595   0.609   0.612   0.613   0.633   0.642   0.646   0.648
  0.655   0.659   0.666   0.670   0.674   0.683   0.695   0.698
  0.707   0.725   0.729   0.731   0.740   0.744   0.758   0.767
  0.780   0.785   0.797   0.825   0.842   0.857   0.867   0.884
  0.896   0.915   0.937   0.947   0.961   0.968   0.980   0.981
  0.999   1.005   1.016   1.039   1.043   1.056   1.064   1.071
  1.079   1.085   1.099   1.126   1.134   1.153   1.163   1.180
  1.209   1.233   1.258   1.269   1.291   1.308   1.324   1.347
  1.364   1.366   1.374   1.381   1.408   1.417   1.432   1.435
  1.449   1.458   1.481   1.492   1.509   1.514   1.520   1.538
  1.541   1.556   1.560   1.564   1.577   1.589   1.600   1.603
  1.625   1.648   1.663   1.666   1.675   1.696   1.704   1.707
  1.719   1.734   1.736   1.747   1.750   1.763   1.774   1.794
  1.816   1.830   1.845   1.864   1.882   1.894   1.917   1.922
  1.929   1.941   1.960   1.973   1.994   2.019   2.023   2.048
  2.059   2.084   2.103   2.113   2.133   2.137   2.158   2.188
  2.197   2.209   2.248   2.264   2.300   2.317   2.368   2.416
  2.435   2.447   2.456   2.484   2.487   2.506   2.512   2.530
  2.533   2.544   2.563   2.571   2.581   2.587   2.608   2.641
  2.652   2.670   2.683   2.704   2.705   2.726   2.759   2.769
  2.782   2.796   2.809   2.816   2.832   2.847   2.856   2.867
  2.871   2.900   2.918   2.928   2.942   2.991   3.004   3.029
  3.045   3.067   3.082   3.097   3.110   3.126   3.168   3.201
  3.214   3.232   3.245   3.277   3.284   3.316   3.372   3.389
  3.397   3.407   3.530   3.548   3.604   3.619   3.638   3.676
  3.767   3.785   3.791   3.792   3.832   3.860   3.877   3.916
  4.041   4.050   4.084   4.090   4.131   4.169   4.246   4.342
  4.387   4.841   5.005   5.027   5.085   5.165   5.239   5.320
  5.396   5.420   5.630   5.669   5.868   5.918  23.563  23.838
 23.864  23.917  23.925  23.931  23.941  23.983  24.044  24.088
 24.176  49.911  49.922  50.015  50.052
 --------------------------------------------------------------
 
          Ground-State Mulliken Net Atomic Charges

     Atom                 Charge (a.u.)
  ----------------------------------------
      1 C                     0.171287
      2 C                     0.613029
      3 C                    -0.881074
      4 C                    -0.207071
      5 O                     0.066031
      6 O                    -0.130586
      7 O                    -0.130171
      8 O                    -0.203178
      9 C                    -0.224021
     10 C                    -0.212825
     11 C                    -0.207515
     12 C                     0.009922
     13 C                    -0.569380
     14 C                     0.391440
     15 H                     0.193273
     16 H                     0.185086
     17 H                     0.119490
     18 H                     0.184969
     19 H                     0.150874
     20 H                     0.150905
     21 H                     0.163758
     22 H                     0.179908
     23 H                     0.163835
     24 C                    -0.489911
     25 H                     0.186125
     26 H                     0.176198
     27 H                     0.149603
  ----------------------------------------
  Sum of atomic charges =     0.000000

 -----------------------------------------------------------------
                    Cartesian Multipole Moments
 -----------------------------------------------------------------
    Charge (ESU x 10^10)
                 0.0000
    Dipole Moment (Debye)
         X      -2.5662      Y      -0.2185      Z      -2.0664
       Tot       3.3020
    Quadrupole Moments (Debye-Ang)
        XX     -78.3282     XY      -2.5148     YY     -74.3702
        XZ      -6.0597     YZ      -0.9747     ZZ     -94.2961
    Octopole Moments (Debye-Ang^2)
       XXX      22.7793    XXY      20.5151    XYY     -12.6844
       YYY      19.1122    XXZ     -20.1159    XYZ      -6.3207
       YYZ      -2.6823    XZZ      -6.3075    YZZ      17.4653
       ZZZ      -5.0207
    Hexadecapole Moments (Debye-Ang^3)
      XXXX   -2092.7951   XXXY      -2.2383   XXYY    -586.4624
      XYYY     -91.1999   YYYY   -1562.7969   XXXZ     -59.7244
      XXYZ     -13.4140   XYYZ      -1.0903   YYYZ       1.1639
      XXZZ    -440.5410   XYZZ     -13.1728   YYZZ    -347.5486
      XZZZ     -22.7568   YZZZ      -7.4974   ZZZZ    -249.9664
 -----------------------------------------------------------------
 Calculating analytic gradient of the SCF energy
 Gradient of SCF Energy
            1           2           3           4           5           6
    1  -0.0000856   0.0003111   0.0000978  -0.0003399  -0.0000709  -0.0001282
    2   0.0001914   0.0001159  -0.0001738  -0.0001384   0.0000119   0.0001985
    3  -0.0003607   0.0003150  -0.0001056   0.0034453   0.0001235   0.0000198
            7           8           9          10          11          12
    1   0.0002229   0.0001869   0.0000003  -0.0000230  -0.0001422   0.0001358
    2   0.0002189   0.0000220  -0.0001122  -0.0000536  -0.0001385   0.0000276
    3  -0.0005329  -0.0017068   0.0000629  -0.0000017   0.0001018   0.0000984
           13          14          15          16          17          18
    1  -0.0000211  -0.0004412   0.0000374   0.0000057   0.0000377   0.0000505
    2   0.0001441  -0.0003464  -0.0000414  -0.0000262   0.0000073   0.0000641
    3  -0.0007500   0.0001161   0.0000097   0.0000236  -0.0000943  -0.0000034
           19          20          21          22          23          24
    1   0.0000168   0.0000189   0.0000257  -0.0000191  -0.0000170   0.0000945
    2   0.0000388  -0.0000066  -0.0000232   0.0000012  -0.0000349  -0.0003438
    3  -0.0000061   0.0000257  -0.0000010   0.0000675  -0.0000794  -0.0022709
           25          26          27
    1  -0.0002300   0.0002303   0.0000461
    2  -0.0005699   0.0008609   0.0001063
    3   0.0003523   0.0002206   0.0009306
 Max gradient component =       3.445E-03
 RMS gradient           =       5.489E-04
 Gradient time:  CPU 211.39 s  wall 17.64 s
 Geometry Optimization Parameters
   NAtoms,    NIC,     NZ,  NCons,   NDum,   NFix, NCnnct, MaxDiis
       27     173       0       0       0       0       0       0

 Cartesian Hessian Update
 Hessian Updated using Powell/Murtagh-Sargent Update
  Mixing factors:     0.283283 Powell
                      0.716717 Murtagh-Sargent


** GEOMETRY OPTIMIZATION IN DELOCALIZED INTERNAL COORDINATES **
   Searching for a Transition State

   Optimization Cycle:   3

                       Coordinates (Angstroms)
     ATOM                X               Y               Z
      1  C         0.6337940100   -0.9119049875    0.1326389559
      2  C        -0.6474567643   -0.3270890110    0.0493557923
      3  C         1.8962581867   -0.1153392464    0.3376251568
      4  C        -0.6897930042    1.1663239811    0.1175215251
      5  O         2.4125764873    0.2797460299   -0.8382190233
      6  O         2.4303221441    0.0334710745    1.4075662539
      7  O        -1.9227878507    1.6927604297   -0.0195455278
      8  O         0.2928336662    1.8619612622    0.2490204456
      9  C        -1.9999330867    3.1290962581    0.0289405365
     10  C         3.5942972361    1.0973790932   -0.7546056281
     11  C         0.7970054827   -2.2923768820    0.0625062624
     12  C        -0.3126249237   -3.1113083808   -0.1027806257
     13  C        -1.5784434801   -2.5458652125   -0.1831128449
     14  C        -1.7841853980   -1.1637666701   -0.1010868701
     15  H        -1.6247451171    3.4981308246    0.9843406586
     16  H         3.3655366949    2.0207596547   -0.2202046548
     17  H        -2.4414987933   -3.1913339075   -0.3030242038
     18  H        -1.4159247199    3.5693225954   -0.7803795163
     19  H        -3.0559276392    3.3636095399   -0.0869413829
     20  H         3.8740082163    1.3080347743   -1.7844116231
     21  H         4.3945992577    0.5652681601   -0.2381203665
     22  H        -0.1933961656   -4.1872188058   -0.1638710417
     23  H         1.7905768770   -2.7176019377    0.1365658588
     24  C        -3.2153556575   -0.6823186623   -0.1890828834
     25  H        -3.4151171062   -0.1936754168   -1.1454537222
     26  H        -3.4520402500    0.0426038404    0.5890883691
     27  H        -3.8924181524   -1.5325889775   -0.0892565801
   Point Group: c1    Number of degrees of freedom:    75


   Energy is   -727.540346362

 Hessian Updated using Powell/Murtagh-Sargent Update
  Mixing factors:     0.998438 Powell
                      0.001562 Murtagh-Sargent

 68 Hessian modes will be used to form the next step
  Hessian Eigenvalues:
    -0.002262    0.008286    0.010429    0.010464    0.010544    0.013864
     0.015488    0.017051    0.017979    0.018696    0.020890    0.022549
     0.022576    0.023104    0.023137    0.023652    0.023667    0.023880
     0.071419    0.072951    0.101303    0.101608    0.106111    0.106212
     0.159713    0.159998    0.160000    0.160000    0.160000    0.160009
     0.220834    0.234503    0.249055    0.249102    0.249549    0.249874
     0.249998    0.249998    0.250000    0.250000    0.250069    0.311171
     0.316779    0.328804    0.346109    0.346525    0.346833    0.346925
     0.346995    0.347179    0.347264    0.350558    0.350780    0.354753
     0.354895    0.356011    0.396634    0.396995    0.405564    0.415619
     0.442641    0.461867    0.464056    0.473732    0.555144    0.564005
     0.994298    1.023296

 Transition State Search - Taking P-RFO Step
 Searching for Lamda that Maximizes Along the Lowest mode
 Value Taken    Lamda =   0.00001270
 Searching for Lamda that Minimizes Along All other modes
 Value Taken    Lamda =  -0.00045177
 Step Taken.  Stepsize is  0.183907

                             Maximum     Tolerance    Cnvgd?
         Gradient           0.001200      0.000001      NO
         Displacement       0.071251      0.000001      NO
         Energy change      0.000253      0.000000      NO


 New Cartesian Coordinates Obtained by Inverse Iteration

 Displacement from previous Coordinates is:  0.270415
 Adding empirical dispersion correction 
 ----------------------------------------------------------------
 Doing -D3(op) with
 s6 =   1.00000
 s8 =   0.78311
 a1 =   0.30000
 a2 =   4.25000
 n  =  10.00000
 -D3 energy without 3body term =     -0.0278030082 hartrees
 ----------------------------------------------------------------
             Standard Nuclear Orientation (Angstroms)
    I     Atom           X                Y                Z
 ----------------------------------------------------------------
    1      C       0.6357838085    -0.9083954163     0.1315031911
    2      C      -0.6451204701    -0.3228641002     0.0420381260
    3      C       1.8996094633    -0.1137842863     0.3364025347
    4      C      -0.6893399032     1.1710725005     0.0930492467
    5      O       2.4156622708     0.2812355162    -0.8397084044
    6      O       2.4416849442     0.0210673589     1.4041720399
    7      O      -1.9210437499     1.6927027940    -0.0722389402
    8      O       0.2745035696     1.8656229082     0.3284237144
    9      C      -2.0117916283     3.1266684829     0.0126845505
   10      C       3.6035632606     1.0899703445    -0.7566017739
   11      C       0.7986083737    -2.2887033656     0.0581961811
   12      C      -0.3110895831    -3.1070959104    -0.1106099141
   13      C      -1.5771144849    -2.5415508867    -0.1848788603
   14      C      -1.7821816052    -1.1595002460    -0.1004750363
   15      H      -1.6723535363     3.4726874462     0.9898394896
   16      H       3.3826535299     2.0140786580    -0.2201562569
   17      H      -2.4411862769    -3.1867737933    -0.2990819058
   18      H      -1.4046498277     3.5929071306    -0.7642962792
   19      H      -3.0652421934     3.3560976283    -0.1326566173
   20      H       3.8830564415     1.3003322699    -1.7865354103
   21      H       4.4006267552     0.5508885032    -0.2423676907
   22      H      -0.1921246797    -4.1828860520    -0.1744175065
   23      H       1.7919862811    -2.7142370023     0.1330040920
   24      C      -3.2148255190    -0.6787381565    -0.1692817914
   25      H      -3.4204435271    -0.1801424973    -1.1201368914
   26      H      -3.4486915855     0.0366074999     0.6171992554
   27      H      -3.8903799781    -1.5311879083    -0.0779958226
 ----------------------------------------------------------------
 Nuclear Repulsion Energy =  1007.3348631399 hartrees
 There are       55 alpha and       55 beta electrons
 Applying Cartesian multipole field
    Component          Value
    ---------          -----
     (2,0,0)        1.00000E-11
     (0,2,0)        2.00000E-11
     (0,0,2)       -3.00000E-11
 Nucleus-field energy     =     0.0000000379 hartrees
 Requested basis set is 6-311++G(d,p)
 There are 150 shells and 414 basis functions
 A cutoff of  1.0D-11 yielded   8992 shell pairs
 There are     70728 function pairs (     75658 Cartesian)
 Smallest overlap matrix eigenvalue = 1.28E-07

 Q-Chem warning in module /fs/scratch/osu6415/qchem-kaunlao-vdw/stvman/mkSTV.C, line 281:

 Overlap eigenvalue is smaller than square root of threshold

 Linear dependence detected in AO basis
 Number of orthogonalized atomic orbitals = 412
 Maximum deviation from orthogonality = 5.244E-10
 Guess MOs from SCF MO coefficient file
 Reading MOs from coefficient file
 Reading MOs from coefficient file
 A restricted hybrid HF-DFT SCF calculation will be
 performed using Pulay DIIS extrapolation
 Exchange:     0.2000 Hartree-Fock + 0.0800 Slater + 0.7200 B88
 Correlation:  0.1900 VWN1RPA + 0.8100 LYP
 Using SG-1 standard quadrature grid
 Dispersion:   Grimme D3
 SCF converges when DIIS error is below 1.0E-08
 Geometry optimization detected.  Setting ReadMinima to 0
 Setting SaveMinima to 0
 using 20 threads for integral computing
 -------------------------------------------------------
 OpenMP Integral computing Module                
 Release: version 1.0, May 2013, Q-Chem Inc. Pittsburgh 
 -------------------------------------------------------
 -------------------------------------------------------
 OpenMP BLAS3 based DFT computing Module                
 Release: version 1.0, May 2013, Q-Chem Inc. Pittsburgh 
 -------------------------------------------------------
 ---------------------------------------
  Cycle       Energy         DIIS Error
 ---------------------------------------
    1    -727.5300215909      8.63E-04
    2    -727.5399766370      9.12E-05
    3    -727.5398008032      1.52E-04
    4    -727.5401758431      3.55E-05
    5    -727.5401933138      1.23E-05
    6    -727.5401956824      4.57E-06
    7    -727.5401960352      2.11E-06
    8    -727.5401961271      6.36E-07
    9    -727.5401961355      1.21E-07
   10    -727.5401961362      7.41E-08
   11    -727.5401961370      2.66E-08
   12    -727.5401961364      9.39E-09 Convergence criterion met
 ---------------------------------------
 SCF time:  CPU 551.49 s  wall 31.99 s
 SCF   energy in the final basis set = -727.54019614
 Total energy in the final basis set = -727.54019614
 
 --------------------------------------------------------------
 
                    Orbital Energies (a.u.)
 --------------------------------------------------------------
 
 Alpha MOs
 -- Occupied --
-19.179 -19.166 -19.119 -19.108 -10.313 -10.304 -10.234 -10.220
-10.210 -10.210 -10.208 -10.195 -10.191 -10.188 -10.174  -1.122
 -1.107  -1.032  -1.020  -0.885  -0.800  -0.791  -0.746  -0.726
 -0.704  -0.648  -0.625  -0.586  -0.566  -0.541  -0.521  -0.502
 -0.497  -0.491  -0.480  -0.474  -0.460  -0.442  -0.434  -0.429
 -0.423  -0.412  -0.407  -0.391  -0.385  -0.373  -0.371  -0.357
 -0.354  -0.322  -0.304  -0.293  -0.288  -0.272  -0.260
 -- Virtual --
 -0.065  -0.029  -0.012  -0.004   0.003   0.010   0.012   0.020
  0.024   0.028   0.034   0.037   0.040   0.044   0.050   0.054
  0.061   0.064   0.068   0.080   0.084   0.089   0.092   0.103
  0.107   0.109   0.110   0.113   0.117   0.119   0.123   0.124
  0.128   0.129   0.132   0.136   0.142   0.148   0.151   0.154
  0.155   0.156   0.159   0.170   0.172   0.177   0.178   0.181
  0.185   0.186   0.187   0.199   0.205   0.208   0.209   0.217
  0.221   0.230   0.237   0.241   0.247   0.250   0.255   0.261
  0.263   0.268   0.276   0.279   0.284   0.293   0.297   0.300
  0.303   0.308   0.314   0.319   0.322   0.323   0.326   0.338
  0.341   0.346   0.353   0.359   0.364   0.370   0.378   0.384
  0.393   0.395   0.401   0.405   0.415   0.422   0.426   0.438
  0.450   0.457   0.475   0.485   0.493   0.498   0.509   0.524
  0.535   0.538   0.556   0.565   0.570   0.581   0.588   0.591
  0.594   0.608   0.611   0.612   0.630   0.644   0.645   0.648
  0.655   0.660   0.666   0.671   0.673   0.686   0.692   0.696
  0.708   0.725   0.728   0.731   0.739   0.746   0.755   0.767
  0.781   0.785   0.796   0.824   0.841   0.857   0.867   0.882
  0.895   0.912   0.937   0.945   0.957   0.966   0.971   0.978
  0.999   1.004   1.020   1.038   1.040   1.056   1.059   1.069
  1.073   1.086   1.099   1.126   1.138   1.156   1.167   1.181
  1.215   1.234   1.255   1.266   1.291   1.306   1.325   1.351
  1.363   1.369   1.372   1.380   1.408   1.417   1.432   1.438
  1.447   1.458   1.480   1.490   1.504   1.513   1.520   1.538
  1.541   1.555   1.559   1.564   1.579   1.590   1.601   1.601
  1.624   1.644   1.661   1.665   1.681   1.697   1.699   1.707
  1.721   1.731   1.737   1.746   1.750   1.763   1.772   1.796
  1.816   1.830   1.844   1.864   1.881   1.890   1.915   1.923
  1.928   1.942   1.956   1.974   1.993   2.018   2.022   2.046
  2.058   2.083   2.103   2.112   2.132   2.136   2.159   2.187
  2.194   2.211   2.247   2.264   2.301   2.318   2.369   2.414
  2.435   2.447   2.456   2.483   2.486   2.504   2.511   2.529
  2.534   2.546   2.564   2.570   2.580   2.588   2.605   2.640
  2.652   2.671   2.685   2.702   2.704   2.725   2.759   2.769
  2.782   2.797   2.806   2.817   2.832   2.846   2.855   2.867
  2.873   2.900   2.918   2.928   2.940   2.989   3.004   3.028
  3.047   3.067   3.083   3.099   3.112   3.126   3.166   3.199
  3.214   3.231   3.244   3.277   3.286   3.316   3.373   3.389
  3.398   3.407   3.530   3.548   3.604   3.619   3.636   3.676
  3.767   3.783   3.791   3.793   3.831   3.859   3.876   3.917
  4.041   4.050   4.085   4.089   4.131   4.165   4.247   4.340
  4.386   4.841   5.008   5.028   5.086   5.162   5.239   5.314
  5.394   5.421   5.629   5.667   5.869   5.915  23.563  23.837
 23.863  23.917  23.925  23.931  23.940  23.983  24.044  24.088
 24.175  49.909  49.921  50.016  50.048
 --------------------------------------------------------------
 
          Ground-State Mulliken Net Atomic Charges

     Atom                 Charge (a.u.)
  ----------------------------------------
      1 C                     0.128619
      2 C                     0.624433
      3 C                    -0.881730
      4 C                    -0.218243
      5 O                     0.064060
      6 O                    -0.133110
      7 O                    -0.126486
      8 O                    -0.204107
      9 C                    -0.224249
     10 C                    -0.211480
     11 C                    -0.163112
     12 C                     0.003349
     13 C                    -0.566488
     14 C                     0.391483
     15 H                     0.192587
     16 H                     0.184493
     17 H                     0.118769
     18 H                     0.185048
     19 H                     0.150750
     20 H                     0.150755
     21 H                     0.164608
     22 H                     0.180272
     23 H                     0.165082
     24 C                    -0.486710
     25 H                     0.186044
     26 H                     0.176025
     27 H                     0.149336
  ----------------------------------------
  Sum of atomic charges =     0.000000

 -----------------------------------------------------------------
                    Cartesian Multipole Moments
 -----------------------------------------------------------------
    Charge (ESU x 10^10)
                 0.0000
    Dipole Moment (Debye)
         X      -2.5485      Y      -0.2114      Z      -2.1577
       Tot       3.3459
    Quadrupole Moments (Debye-Ang)
        XX     -78.1636     XY      -2.4702     YY     -74.4309
        XZ      -6.3008     YZ      -1.2078     ZZ     -94.4012
    Octopole Moments (Debye-Ang^2)
       XXX      22.6910    XXY      20.8287    XYY     -12.7364
       YYY      18.8018    XXZ     -19.7907    XYZ      -6.4025
       YYZ      -3.3013    XZZ      -6.3204    YZZ      17.1838
       ZZZ      -4.5308
    Hexadecapole Moments (Debye-Ang^3)
      XXXX   -2097.1520   XXXY       0.4177   XXYY    -586.4456
      XYYY     -88.3802   YYYY   -1559.9965   XXXZ     -62.2468
      XXYZ     -12.7891   XYYZ      -1.6696   YYYZ      -0.1587
      XXZZ    -441.7658   XYZZ     -12.2140   YYZZ    -347.5127
      XZZZ     -24.1069   YZZZ      -7.0838   ZZZZ    -250.9544
 -----------------------------------------------------------------
 Calculating analytic gradient of the SCF energy
 Gradient of SCF Energy
            1           2           3           4           5           6
    1   0.0004166  -0.0006222  -0.0005551   0.0018479   0.0007896   0.0001906
    2  -0.0005238  -0.0000068   0.0016770   0.0006707  -0.0013187  -0.0002573
    3   0.0003939   0.0039362  -0.0008911  -0.0104688   0.0002818   0.0003337
            7           8           9          10          11          12
    1  -0.0004754  -0.0013449   0.0000037  -0.0002084  -0.0001122   0.0000367
    2  -0.0000666  -0.0000493   0.0000217  -0.0001215  -0.0000231  -0.0000023
    3   0.0035509   0.0040111  -0.0000125   0.0000496  -0.0002719  -0.0000937
           13          14          15          16          17          18
    1   0.0000662  -0.0000137  -0.0000281  -0.0000719  -0.0000156   0.0000888
    2   0.0001596  -0.0001396   0.0000983  -0.0000235   0.0000097  -0.0000787
    3  -0.0011791   0.0000554  -0.0000135  -0.0000048  -0.0000808   0.0000139
           19          20          21          22          23          24
    1   0.0000110   0.0000003   0.0000495  -0.0000554  -0.0000057  -0.0000044
    2  -0.0000032  -0.0000192  -0.0000267  -0.0000197  -0.0000174   0.0000749
    3   0.0001059   0.0000180   0.0000005   0.0001587  -0.0001000   0.0003849
           25          26          27
    1  -0.0000093   0.0000488  -0.0000275
    2  -0.0004622   0.0003435   0.0001040
    3  -0.0002773  -0.0004145   0.0005133
 Max gradient component =       1.047E-02
 RMS gradient           =       1.449E-03
 Gradient time:  CPU 214.01 s  wall 16.88 s
 Geometry Optimization Parameters
   NAtoms,    NIC,     NZ,  NCons,   NDum,   NFix, NCnnct, MaxDiis
       27     173       0       0       0       0       0       0

 Cartesian Hessian Update
 Hessian Updated using Powell/Murtagh-Sargent Update
  Mixing factors:     0.188032 Powell
                      0.811968 Murtagh-Sargent


** GEOMETRY OPTIMIZATION IN DELOCALIZED INTERNAL COORDINATES **
   Searching for a Transition State

   Optimization Cycle:   4

                       Coordinates (Angstroms)
     ATOM                X               Y               Z
      1  C         0.6357838085   -0.9083954163    0.1315031911
      2  C        -0.6451204701   -0.3228641002    0.0420381260
      3  C         1.8996094633   -0.1137842863    0.3364025347
      4  C        -0.6893399032    1.1710725005    0.0930492467
      5  O         2.4156622708    0.2812355162   -0.8397084044
      6  O         2.4416849442    0.0210673589    1.4041720399
      7  O        -1.9210437499    1.6927027940   -0.0722389402
      8  O         0.2745035696    1.8656229082    0.3284237144
      9  C        -2.0117916283    3.1266684829    0.0126845505
     10  C         3.6035632606    1.0899703445   -0.7566017739
     11  C         0.7986083737   -2.2887033656    0.0581961811
     12  C        -0.3110895831   -3.1070959104   -0.1106099141
     13  C        -1.5771144849   -2.5415508867   -0.1848788603
     14  C        -1.7821816052   -1.1595002460   -0.1004750363
     15  H        -1.6723535363    3.4726874462    0.9898394896
     16  H         3.3826535299    2.0140786580   -0.2201562569
     17  H        -2.4411862769   -3.1867737933   -0.2990819058
     18  H        -1.4046498277    3.5929071306   -0.7642962792
     19  H        -3.0652421934    3.3560976283   -0.1326566173
     20  H         3.8830564415    1.3003322699   -1.7865354103
     21  H         4.4006267552    0.5508885032   -0.2423676907
     22  H        -0.1921246797   -4.1828860520   -0.1744175065
     23  H         1.7919862811   -2.7142370023    0.1330040920
     24  C        -3.2148255190   -0.6787381565   -0.1692817914
     25  H        -3.4204435271   -0.1801424973   -1.1201368914
     26  H        -3.4486915855    0.0366074999    0.6171992554
     27  H        -3.8903799781   -1.5311879083   -0.0779958226
   Point Group: c1    Number of degrees of freedom:    75


   Energy is   -727.540196136

 Hessian Updated using Powell/Murtagh-Sargent Update
  Mixing factors:     0.735820 Powell
                      0.264180 Murtagh-Sargent

 70 Hessian modes will be used to form the next step
  Hessian Eigenvalues:
    -0.005204    0.001211    0.008704    0.010429    0.010464    0.014032
     0.015537    0.017363    0.017969    0.020191    0.022525    0.022557
     0.023092    0.023133    0.023640    0.023653    0.023871    0.063728
     0.071420    0.073082    0.101303    0.101609    0.106112    0.106216
     0.159791    0.159998    0.160000    0.160000    0.160000    0.160004
     0.160135    0.220858    0.234594    0.249063    0.249105    0.249581
     0.249903    0.249998    0.250000    0.250000    0.250000    0.250015
     0.252736    0.311171    0.316787    0.328902    0.346119    0.346525
     0.346833    0.346925    0.346995    0.347179    0.347264    0.350558
     0.350780    0.354753    0.354895    0.356011    0.396669    0.396995
     0.405669    0.415920    0.442686    0.461871    0.464057    0.473732
     0.555144    0.564096    0.994340    1.023347

 Transition State Search - Taking P-RFO Step
 Searching for Lamda that Maximizes Along the Lowest mode
 Value Taken    Lamda =   0.00049695
 Searching for Lamda that Minimizes Along All other modes
 Value Taken    Lamda =  -0.00136109
 Calculated Step too Large.  Step scaled by  0.506834
 Step Taken.  Stepsize is  0.300000

                             Maximum     Tolerance    Cnvgd?
         Gradient           0.003577      0.000001      NO
         Displacement       0.206780      0.000001      NO
         Energy change      0.000150      0.000000      NO


 New Cartesian Coordinates Obtained by Inverse Iteration

 Displacement from previous Coordinates is:  0.577287
 Adding empirical dispersion correction 
 ----------------------------------------------------------------
 Doing -D3(op) with
 s6 =   1.00000
 s8 =   0.78311
 a1 =   0.30000
 a2 =   4.25000
 n  =  10.00000
 -D3 energy without 3body term =     -0.0277868683 hartrees
 ----------------------------------------------------------------
             Standard Nuclear Orientation (Angstroms)
    I     Atom           X                Y                Z
 ----------------------------------------------------------------
    1      C       0.6334687653    -0.8990054770     0.1347176480
    2      C      -0.6482260354    -0.3177735012     0.0319735550
    3      C       1.8939888503    -0.0976098548     0.3330801300
    4      C      -0.6960371569     1.1762897084     0.0816049685
    5      O       2.4264531094     0.2602082407    -0.8473879214
    6      O       2.4252894739     0.0630504134     1.4027343651
    7      O      -1.9369811815     1.6940296755    -0.0089389397
    8      O       0.2813793674     1.8769136646     0.2248030242
    9      C      -2.0243720845     3.1288578999     0.0630689652
   10      C       3.6158395188     1.0675643276    -0.7732388868
   11      C       0.7995125313    -2.2800759760     0.0860795707
   12      C      -0.3073960410    -3.1035385989    -0.0749208843
   13      C      -1.5735196807    -2.5417394875    -0.1732870111
   14      C      -1.7821966535    -1.1589655158    -0.1135090978
   15      H      -1.6219790842     3.4874963875     1.0113220194
   16      H       3.3911187313     2.0074090331    -0.2665524355
   17      H      -2.4345442987    -3.1904864492    -0.2900725271
   18      H      -1.4700976129     3.5855599387    -0.7579282333
   19      H      -3.0854401146     3.3557178200    -0.0156900521
   20      H       3.9083896839     1.2472262261    -1.8053419654
   21      H       4.4050300634     0.5414860642    -0.2339809594
   22      H      -0.1858489526    -4.1800395518    -0.1186058040
   23      H       1.7933240946    -2.7022780349     0.1730722234
   24      C      -3.2134931246    -0.6814613811    -0.2187828042
   25      H      -3.3788753630    -0.1126387791    -1.1365644842
   26      H      -3.4892185373    -0.0285300616     0.6087451891
   27      H      -3.8854081182    -1.5415873107    -0.2213263324
 ----------------------------------------------------------------
 Nuclear Repulsion Energy =  1007.2716028114 hartrees
 There are       55 alpha and       55 beta electrons
 Applying Cartesian multipole field
    Component          Value
    ---------          -----
     (2,0,0)        1.00000E-11
     (0,2,0)        2.00000E-11
     (0,0,2)       -3.00000E-11
 Nucleus-field energy     =     0.0000000380 hartrees
 Requested basis set is 6-311++G(d,p)
 There are 150 shells and 414 basis functions
 A cutoff of  1.0D-11 yielded   8984 shell pairs
 There are     70675 function pairs (     75606 Cartesian)
 Smallest overlap matrix eigenvalue = 1.27E-07

 Q-Chem warning in module /fs/scratch/osu6415/qchem-kaunlao-vdw/stvman/mkSTV.C, line 281:

 Overlap eigenvalue is smaller than square root of threshold

 Linear dependence detected in AO basis
 Number of orthogonalized atomic orbitals = 412
 Maximum deviation from orthogonality = 1.811E-10
 Guess MOs from SCF MO coefficient file
 Reading MOs from coefficient file
 Reading MOs from coefficient file
 A restricted hybrid HF-DFT SCF calculation will be
 performed using Pulay DIIS extrapolation
 Exchange:     0.2000 Hartree-Fock + 0.0800 Slater + 0.7200 B88
 Correlation:  0.1900 VWN1RPA + 0.8100 LYP
 Using SG-1 standard quadrature grid
 Dispersion:   Grimme D3
 SCF converges when DIIS error is below 1.0E-08
 Geometry optimization detected.  Setting ReadMinima to 0
 Setting SaveMinima to 0
 using 20 threads for integral computing
 -------------------------------------------------------
 OpenMP Integral computing Module                
 Release: version 1.0, May 2013, Q-Chem Inc. Pittsburgh 
 -------------------------------------------------------
 -------------------------------------------------------
 OpenMP BLAS3 based DFT computing Module                
 Release: version 1.0, May 2013, Q-Chem Inc. Pittsburgh 
 -------------------------------------------------------
 ---------------------------------------
  Cycle       Energy         DIIS Error
 ---------------------------------------
    1    -727.5280775556      1.04E-03
    2    -727.5402827212      9.13E-05
    3    -727.5402882964      1.11E-04
    4    -727.5405004087      3.67E-05
    5    -727.5405209724      1.34E-05
    6    -727.5405234416      5.67E-06
    7    -727.5405239153      2.64E-06
    8    -727.5405240620      5.02E-07
    9    -727.5405240668      1.52E-07
   10    -727.5405240678      8.16E-08
   11    -727.5405240679      3.17E-08
   12    -727.5405240662      1.07E-08
   13    -727.5405240675      2.57E-09 Convergence criterion met
 ---------------------------------------
 SCF time:  CPU 580.68 s  wall 33.15 s
 SCF   energy in the final basis set = -727.54052407
 Total energy in the final basis set = -727.54052407
 
 --------------------------------------------------------------
 
                    Orbital Energies (a.u.)
 --------------------------------------------------------------
 
 Alpha MOs
 -- Occupied --
[...]
    -0.25359401     -0.41029263     -0.03994411
    -0.01421609      0.01623752     -0.00119436
    -0.08462142      0.09345602      0.07011032
    -0.06187622      0.10164102     -0.07340452
     0.11985879     -0.08588594      0.00824188
vibration 62
     0.05594521     -0.00111806      0.00666619
    -0.09168817     -0.05991642     -0.01117516
    -0.01689239      0.01561548     -0.02847312
     0.61727807      0.46690598      0.06814003
     0.00009063     -0.00657428      0.00364911
     0.00761293     -0.00360512      0.01629633
    -0.05296784     -0.01767772     -0.00472188
    -0.39589802     -0.28912786     -0.04257902
     0.00525820      0.03441105      0.00243479
    -0.00188391      0.00029278      0.00162080
    -0.02178972      0.00123744     -0.00273092
     0.02764100     -0.00454944      0.00301551
    -0.02877028      0.03095899     -0.00233354
     0.03311516     -0.02457051      0.00273456
     0.11879482     -0.10587399      0.02545125
    -0.02386623     -0.00164199     -0.00607735
     0.02209204     -0.03745359      0.00079237
     0.12011352     -0.10142760     -0.02232008
    -0.04681103     -0.25698769     -0.01892062
     0.00931504     -0.00402999      0.00503094
     0.00223100     -0.00583086     -0.01824237
    -0.02591603     -0.01070368     -0.00339608
    -0.00012950      0.05085452      0.00159878
     0.00049118      0.00406781      0.00028978
    -0.02580363     -0.01056249     -0.00201628
    -0.02572761     -0.01062206     -0.00552000
    -0.01326266      0.00821032     -0.00075209
vibration 63
    -0.07364270     -0.04029954     -0.02806899
     0.00675006     -0.00439733      0.00060778
     0.39365378      0.14902549      0.66898416
     0.02091729      0.02568846      0.00268877
    -0.01032653     -0.00056482     -0.05135535
    -0.23698037     -0.08206085     -0.44695055
    -0.00080809     -0.00279423      0.00025324
    -0.01695214     -0.01467431     -0.00513714
     0.00039847      0.00233271      0.00046601
     0.02568108      0.01528245      0.00840395
     0.00727760      0.00313093      0.00298689
    -0.00799455      0.00520989      0.00127072
     0.00390246     -0.00220686     -0.00003358
     0.00357289      0.00002959      0.00277642
     0.00555595     -0.00660976      0.00302746
    -0.10466674     -0.04085302      0.09198121
     0.00023471      0.00346041     -0.00181168
     0.00328524     -0.00544018     -0.00238645
    -0.00200180     -0.01008695     -0.00218190
    -0.18736632     -0.11705918     -0.06638025
    -0.07466122     -0.08420014      0.10508999
     0.02362718      0.00723649      0.00263705
     0.01486146      0.00246082     -0.00461997
    -0.00076782      0.00090954      0.00009485
     0.00062397      0.00011248     -0.00132891
     0.00274843      0.00053803      0.00275235
     0.00296587     -0.00304032     -0.00140870
vibration 64
    -0.00024783     -0.00002839     -0.00002076
     0.00050600      0.00050467      0.00007614
     0.00014292      0.00015054     -0.00013518
    -0.00012133      0.00008662      0.00000100
    -0.00015569     -0.00011421      0.00006822
    -0.00002495     -0.00002372      0.00000983
     0.00034821      0.00017909      0.00004211
     0.00007219     -0.00002705      0.00000917
    -0.00013980     -0.00009801     -0.00000539
    -0.00170251     -0.00114337     -0.00067596
    -0.00002042     -0.00002205     -0.00000518
    -0.00019827      0.00015954     -0.00001543
     0.00232640      0.00068383      0.00030172
     0.00006784     -0.00069018      0.00000005
     0.00091403      0.00066657      0.00200051
    -0.00717854      0.02656601      0.01428598
    -0.02053892     -0.01401890     -0.00271718
     0.00115147      0.00086712     -0.00177934
    -0.00039780     -0.00010895     -0.00004644
     0.00555556      0.00370098     -0.02141754
     0.02313553     -0.01570155      0.01543043
    -0.00055520      0.00144464     -0.00005222
     0.00096324     -0.00029266      0.00008979
    -0.04901869      0.00914888     -0.00227966
     0.04077068     -0.32214946      0.40993734
     0.15457968     -0.28869426     -0.46289981
     0.37415055      0.50328757      0.07796237
vibration 65
    -0.00006880      0.00000301      0.00011673
    -0.00002301     -0.00003475      0.00000515
     0.00068115      0.00056814     -0.00283233
     0.00034355     -0.00006169      0.00002601
    -0.00219403     -0.00163843      0.00089034
     0.00042388      0.00015498      0.00085124
    -0.00015384      0.00019895     -0.00000406
    -0.00013611     -0.00000081      0.00001439
     0.00050909      0.00265879      0.00015916
    -0.03440248     -0.02317017     -0.01407799
    -0.00004777      0.00000074     -0.00001937
     0.00005125     -0.00006295     -0.00000360
    -0.00017568     -0.00004104     -0.00002596
     0.00000785      0.00001463     -0.00000952
    -0.01515260     -0.01212742     -0.03414897
    -0.14277581      0.53258493      0.28621545
     0.00129507      0.00091274      0.00018588
    -0.01941887     -0.01587874      0.03072523
     0.02846554     -0.00574808      0.00141745
     0.11037050      0.07350165     -0.42305004
     0.46378896     -0.31386166      0.30910803
    -0.00011154      0.00062288      0.00000514
     0.00008591      0.00006869      0.00004655
     0.00242411     -0.00042670      0.00010868
    -0.00204276      0.01579225     -0.02012488
    -0.00765970      0.01419876      0.02277952
    -0.01860290     -0.02495999     -0.00387026
vibration 66
    -0.00007731     -0.00001530     -0.00000367
     0.00023033     -0.00018656      0.00001108
    -0.00004553      0.00002352     -0.00017334
    -0.00274510      0.00063551     -0.00016169
    -0.00009366     -0.00008252      0.00003440
     0.00006295      0.00001961      0.00007240
     0.00103994     -0.00250563     -0.00007776
     0.00070994      0.00049655      0.00007035
    -0.00843306     -0.04284796     -0.00256227
    -0.00218742     -0.00148280     -0.00091795
     0.00005608     -0.00004095      0.00000573
     0.00002037     -0.00004389     -0.00000006
    -0.00001521     -0.00003049     -0.00000240
    -0.00000153      0.00008307     -0.00000057
     0.24096810      0.19323871      0.54212318
    -0.00903031      0.03366690      0.01811287
     0.00027641      0.00019204      0.00003947
     0.30814065      0.25285589     -0.48741005
    -0.44672981      0.09049746     -0.02233582
     0.00688723      0.00457632     -0.02631762
     0.02924131     -0.01972794      0.01946743
    -0.00003584      0.00048997      0.00001158
    -0.00042443      0.00009175     -0.00004190
     0.00005765     -0.00092899     -0.00011127
    -0.00029338      0.00450259     -0.00526336
    -0.00186598      0.00420676      0.00628941
     0.00204525      0.00213139      0.00037945
vibration 67
     0.00006603     -0.00005237     -0.00002028
    -0.00001451     -0.00004847      0.00022901
     0.00000846     -0.00001324     -0.00002863
     0.00023577     -0.00003608      0.00001612
    -0.00000690      0.00000420      0.00001078
    -0.00000082      0.00000464      0.00000887
    -0.00013993     -0.00005346      0.00028589
    -0.00008877     -0.00001988     -0.00005264
     0.00009366      0.00017659      0.00091181
    -0.00002391      0.00005350      0.00002973
     0.00002778      0.00001714     -0.00000197
    -0.00000163     -0.00019534     -0.00000257
     0.00172275      0.00125598     -0.00001760
     0.00022236     -0.00049454     -0.00061152
    -0.00371856     -0.00310501     -0.00801465
     0.00015384     -0.00053220     -0.00029560
    -0.01826558     -0.01284553     -0.00285299
     0.00188073      0.00135050     -0.00271021
     0.00027743      0.00000682      0.00008097
     0.00003218      0.00004088     -0.00015665
     0.00013768     -0.00008890      0.00010852
    -0.00037788      0.00347427      0.00019914
    -0.00022479      0.00021717     -0.00012865
     0.00030071     -0.02539452     -0.08807396
     0.05078805     -0.33697289      0.39074785
    -0.23337117      0.41517170      0.64183901
     0.17503627      0.22877735      0.01984370
vibration 68
     0.00020081     -0.00014334      0.00002720
     0.00004812     -0.00009511     -0.00010874
    -0.00000089     -0.00005089      0.00001655
     0.00065395     -0.00008924      0.00004518
    -0.00000092      0.00001638     -0.00000461
    -0.00000044      0.00002104     -0.00000697
    -0.00035604     -0.00020213     -0.00016181
    -0.00026498     -0.00007043     -0.00000517
     0.00036368      0.00055737     -0.00042969
    -0.00025414      0.00039398     -0.00001100
     0.00009364      0.00008872      0.00001631
    -0.00006230     -0.00064559     -0.00001824
     0.00456997      0.00339984      0.00074358
     0.00010025     -0.00136378      0.00017945
    -0.00115326     -0.00136522     -0.00273988
     0.00084457     -0.00308533     -0.00174948
    -0.04969463     -0.03476495     -0.00653520
    -0.00497834     -0.00444543      0.00765288
     0.00057296      0.00005175      0.00000942
    -0.00009067      0.00004596      0.00019205
     0.00233842     -0.00153613      0.00164305
    -0.00101800      0.01048890      0.00012997
    -0.00064744      0.00058857     -0.00005055
    -0.02534247     -0.08591786      0.02379646
    -0.07031249      0.40704228     -0.53265191
    -0.05743986      0.07143376      0.15489161
     0.42517879      0.55784978      0.09321853
vibration 69
     0.00013491     -0.00021617     -0.00000925
     0.00002195      0.00007097     -0.00000690
     0.00002379      0.00016770      0.00013798
    -0.00013561     -0.00011603     -0.00000648
    -0.00017771      0.00023562     -0.00003257
    -0.00019565      0.00003251     -0.00001157
     0.00002904      0.00000561      0.00000761
     0.00006358      0.00009474     -0.00000465
     0.00022597      0.00007569     -0.00118251
     0.05429093     -0.07798882      0.00322488
    -0.00006765      0.00001564     -0.00000057
     0.00001903     -0.00001906      0.00000324
     0.00002895      0.00004698      0.00000446
    -0.00001287     -0.00003217      0.00000173
     0.00340456      0.00263895      0.00712903
    -0.15407846      0.59756416      0.34046349
    -0.00047898     -0.00031515     -0.00006882
    -0.00484900     -0.00382680      0.00719009
    -0.00135296      0.00032613     -0.00031316
     0.01756858     -0.00991834     -0.02675195
    -0.50549391      0.33604188     -0.35279293
    -0.00004362      0.00031756     -0.00001634
     0.00052774     -0.00011009      0.00000100
    -0.00011834     -0.00042767      0.00005601
    -0.00032515      0.00172090     -0.00231766
    -0.00046244      0.00061926      0.00120242
     0.00217917      0.00285739      0.00046464
vibration 70
    -0.00000633      0.00000170      0.00001635
     0.00001667      0.00000398     -0.00022464
     0.00000338      0.00000019     -0.00006436
     0.00001111     -0.00000604      0.00016715
     0.00000127     -0.00001319      0.00002429
     0.00000165      0.00000978      0.00003006
    -0.00004498     -0.00001248      0.00039796
    -0.00002129     -0.00000800      0.00015812
     0.00662168      0.00509630     -0.09465451
    -0.00069108      0.00098051      0.00006695
    -0.00000080      0.00000145      0.00000497
    -0.00000071     -0.00000022      0.00000374
    -0.00000367     -0.00000378      0.00000603
    -0.00000076     -0.00000012      0.00001759
     0.28725952      0.22250461      0.60291335
     0.00201300     -0.00786592     -0.00449099
     0.00003976      0.00002316     -0.00001430
    -0.35771422     -0.28568949      0.53402238
    -0.00760291      0.00289328     -0.01856212
     0.00001138      0.00030351     -0.00059634
     0.00614230     -0.00409072      0.00431638
     0.00000059     -0.00000569      0.00000114
     0.00001047     -0.00000712      0.00000593
     0.00013306      0.00019603     -0.00096886
     0.00087466     -0.00504245      0.00632497
    -0.00193409      0.00338226      0.00517822
    -0.00051868     -0.00068177     -0.00014707
vibration 71
    -0.00000654     -0.00000350     -0.00002942
     0.00009747      0.00004983      0.00000982
     0.00037366      0.00014529      0.00021227
    -0.00046446     -0.00113159     -0.00008533
    -0.00001267      0.00002724     -0.00011460
    -0.00013185     -0.00004933     -0.00013603
     0.00032631      0.00001486      0.00001801
     0.00027483      0.00042812      0.00003218
    -0.08789527     -0.00326483     -0.00631370
    -0.00274936     -0.00055762      0.03475203
    -0.00009892      0.00005019     -0.00000997
     0.00000884     -0.00023020     -0.00000456
     0.00034727      0.00024665      0.00004474
    -0.00005070     -0.00000292     -0.00000224
     0.10231525      0.09139480      0.26447221
     0.02839557     -0.10359329     -0.04977780
    -0.00387076     -0.00282349     -0.00051533
     0.12879163      0.11550193     -0.23056565
     0.81001392     -0.16314713      0.04122565
     0.08237833      0.05399954     -0.31521952
    -0.07982120      0.05480802     -0.04698119
    -0.00027786      0.00287085      0.00004754
     0.00133722     -0.00054976      0.00015320
     0.00001603     -0.00029963     -0.00003349
    -0.00026104      0.00151743     -0.00153351
    -0.00069457      0.00145482      0.00183533
     0.00108040      0.00140056      0.00021900
vibration 72
    -0.00000397      0.00000064      0.00007682
     0.00004857      0.00002001      0.00000031
    -0.00086543     -0.00049729     -0.00051914
    -0.00026320     -0.00044390     -0.00004216
     0.00000213     -0.00003373      0.00029896
     0.00030981      0.00016144      0.00032301
     0.00016248     -0.00001222      0.00000827
     0.00014840      0.00017442      0.00003897
    -0.03482774     -0.00125416     -0.00261831
     0.00720942      0.00111209     -0.08763162
     0.00006180      0.00000993      0.00000475
    -0.00003574      0.00007206     -0.00000652
     0.00019542      0.00011605      0.00002745
    -0.00002223      0.00000745     -0.00001016
     0.04077744      0.03638904      0.10533266
    -0.07194770      0.26314453      0.12667171
    -0.00193072     -0.00141285     -0.00026326
     0.05050247      0.04531402     -0.09057600
     0.32122778     -0.06470242      0.01633456
    -0.20778799     -0.13628646      0.79530168
     0.19878651     -0.13648548      0.11678375
     0.00012059     -0.00076601     -0.00000591
    -0.00041930      0.00008568     -0.00007772
    -0.00000885     -0.00012711     -0.00004193
    -0.00005554      0.00040425     -0.00038790
    -0.00029974      0.00062263      0.00080792
     0.00062676      0.00081110      0.00012235
vibration 73
     0.00028680      0.00030583      0.00003693
     0.00043313      0.00007059      0.00003627
     0.00004327     -0.00008171      0.00005996
    -0.00009753      0.00026985      0.00000442
    -0.00001473      0.00001321      0.00000708
    -0.00002628      0.00002310     -0.00004502
     0.00006307     -0.00005520      0.00000108
    -0.00004118     -0.00008968     -0.00000826
    -0.00053035      0.00002231     -0.00004344
     0.00000922     -0.00004320      0.00008207
     0.01482770     -0.00745917      0.00153645
    -0.00370169      0.04859855      0.00093241
    -0.05262474     -0.04120483     -0.00711153
    -0.00134160      0.00163329     -0.00010479
     0.00051397      0.00039594      0.00137038
     0.00000966      0.00011789      0.00008531
     0.62422768      0.46685070      0.08380866
     0.00060492      0.00047936     -0.00113925
     0.00508431     -0.00107566      0.00025270
     0.00020911      0.00013613     -0.00079096
    -0.00037036      0.00025014     -0.00022199
     0.05919497     -0.57438299     -0.00945841
    -0.18425657      0.08086785     -0.01938628
    -0.00244493     -0.00471668     -0.00050712
    -0.00087290      0.00880324     -0.01186805
    -0.00339111      0.00613566      0.01103554
     0.03682982      0.04416383      0.00749550
vibration 74
    -0.00016031     -0.00140213     -0.00002526
     0.00079653      0.00012032      0.00008021
    -0.00025861      0.00014749     -0.00013875
    -0.00009733      0.00003594     -0.00000623
     0.00006106     -0.00000351     -0.00002316
     0.00011170     -0.00002709      0.00012549
     0.00002992     -0.00000829      0.00000059
    -0.00000557     -0.00003254     -0.00000302
    -0.00008918      0.00002538     -0.00000824
     0.00004794      0.00006377     -0.00017571
    -0.04424609      0.02114317     -0.00461090
     0.00862150     -0.05004345     -0.00040855
    -0.04119051     -0.02907796     -0.00550153
    -0.00085926      0.00182703     -0.00004167
    -0.00000997     -0.00001512      0.00005865
    -0.00004062     -0.00010543     -0.00007567
     0.45556038      0.33688326      0.06101511
    -0.00001781     -0.00002266     -0.00004293
     0.00097434     -0.00018882      0.00004793
    -0.00046845     -0.00030266      0.00188073
     0.00020372     -0.00011600      0.00009090
    -0.06601510      0.57475129      0.00867456
     0.52535648     -0.22941945      0.05529818
    -0.00144743     -0.00268085     -0.00032050
     0.00026848      0.00413887     -0.00551583
    -0.00103215      0.00297479      0.00548816
     0.02133126      0.02507214      0.00434031
vibration 75
     0.00001517     -0.00282671     -0.00002912
     0.00035281     -0.00027888      0.00002132
    -0.00061684      0.00013619     -0.00021718
    -0.00000167     -0.00017649     -0.00000723
     0.00018368      0.00005935     -0.00008090
     0.00024664      0.00000546      0.00023439
    -0.00004567      0.00007416      0.00000013
     0.00003465      0.00008109      0.00000459
     0.00006072     -0.00006614      0.00000210
    -0.00004466      0.00000606      0.00000486
    -0.06507903      0.02586440     -0.00689888
    -0.00381166      0.05175684      0.00102292
     0.01729995      0.01010289      0.00223994
     0.00036424     -0.00095344      0.00001535
     0.00010721      0.00013610      0.00017109
     0.00002240     -0.00009820     -0.00004234
    -0.17336938     -0.12530244     -0.02317518
     0.00014338      0.00016958     -0.00016872
    -0.00095184      0.00024910     -0.00004571
     0.00023808      0.00017146     -0.00048246
     0.00037338     -0.00009583      0.00018868
     0.05864661     -0.56570734     -0.00919358
     0.72187720     -0.30837738      0.07616002
     0.00047197      0.00060425      0.00009706
    -0.00033218      0.00008357      0.00020489
    -0.00024615      0.00015442     -0.00025920
    -0.00604897     -0.00705624     -0.00123157
[INT]
    1.395129
    0.507173
    2.488916
    3.798428
    1.393719
    0.500037
    0.210991
    1.744238
    0.518679
    1.193056
    1.726218
    0.151801
    4.345436
    6.147509
   16.642723
    7.360158
   11.456633
    7.321812
    3.026016
    1.752969
    1.777609
    1.024232
   11.730572
   18.771994
   28.037198
   39.930972
    9.008429
    6.907399
    3.548090
    5.377106
    0.317040
   25.693921
    0.201508
    7.917531
   14.008198
    2.270604
   54.494898
  132.757525
   52.046175
   61.890779
    0.963163
   19.867678
   38.894101
   79.483678
   90.264541
  338.473461
  216.754364
   54.734447
    4.468068
   15.170427
   20.541600
   28.039731
   10.449018
   11.293049
    7.992851
   31.409898
    7.460973
    7.975203
    6.393291
    3.827424
   26.974922
  298.968654
  291.035108
   25.366025
   35.444171
   36.534842
   10.591303
   17.194348
   15.305318
   15.837470
   15.428042
   12.853981
    4.914408
   12.724025
   10.260514

======= END OF MOLDEN-FORMATTED INPUT FILE =======


        *************************************************************
        *                                                           *
        *  Thank you very much for using Q-Chem.  Have a nice day.  *
        *                                                           *
        *************************************************************


