r0142.ten.osc.edu 10.25.154
Q-Chem Developer Version! Running on 10.25.154.*
                  Welcome to Q-Chem
     A Quantum Leap Into The Future Of Chemistry


 Q-Chem 5.0, Q-Chem, Inc., Pleasanton, CA (2017)

 Yihan Shao,  Zhengting Gan,  E. Epifanovsky,  A. T. B. Gilbert,  M. Wormit,  
 J. Kussmann,  A. W. Lange,  A. Behn,  Jia Deng,  Xintian Feng,  D. Ghosh,  
 M. Goldey,  P. R. Horn,  L. D. Jacobson,  I. Kaliman,  T. Kus,  A. Landau,  
 Jie Liu,  E. I. Proynov,  R. M. Richard,  R. P. Steele,  E. J. Sundstrom,  
 H. L. Woodcock III,  P. M. Zimmerman,  D. Zuev,  B. Albrecht,  E. Alguire,  
 S. A. Baeppler,  Z. Benda,  Y. A. Bernard,  E. J. Berquist,  K. B. Bravaya,  
 D. Casanova,  Chun-Min Chang,  Yunqing Chen,  A. Chien,  K. D. Closser,  
 M. P. Coons,  S. Dasgupta,  M. Diedenhofen,  Hainam Do,  R. G. Edgar,  
 Po-Tung Fang,  S. Fatehi,  Qingguo Feng,  Qinghui Ge,  A. Ghysels,  
 J. Gomes,  J. Gonthier,  A. Gunina,  M. W. D. Hanson-Heine,  
 P. H. P. Harbach,  A. W. Hauser,  J. E. Herr,  E. G. Hohenstein,  
 Z. C. Holden,  Kerwin Hui,  T.-C. Jagau,  Hyunjun Ji,  B. Kaduk,  
 K. Khistyaev,  Jaehoon Kim,  P. Klunzinger,  K. Koh,  D. Kosenkov,  
 T. Kowalczyk,  C. M. Krauter,  A. Kunitsa,  Ka Un Lao,  A. Laurent,  
 K. V. Lawler,  Joonho Lee,  D. Lefrancois,  S. Lehtola,  D. S. Levine,  
 Yi-Pei Li,  You-Sheng Lin,  Fenglai Liu,  E. Livshits,  A. Luenser,  
 P. Manohar,  E. Mansoor,  S. F. Manzer,  Shan-Ping Mao,  Yuezhi Mao,  
 N. Mardirossian,  A. V. Marenich,  L. A. Martinez-Martinez,  S. A. Maurer,  
 N. J. Mayhall,  S. C. McKenzie,  J.-M. Mewes,  A. F. Morrison,  K. Nanda,  
 T. S. Nguyen-Beck,  R. Olivares-Amaya,  J. A. Parkhill,  T. M. Perrine,  
 F. Plasser,  S. Prager,  A. Prociuk,  D. R. Rehn,  F. Rob,  M. Schneider,  
 N. Sergueev,  S. M. Sharada,  S. Sharma,  D. W. Small,  T. Stauch,  
 T. Stein,  Yu-Chuan Su,  A. J. W. Thom,  T. Tsuchimochi,  L. Vogt,  
 O. Vydrov,  M. A. Watson,  J. Wenzel,  M. de Wergifosse,  T. A. Wesolowski,  
 A. White,  J. Witte,  A. Yamada,  Jun Yang,  K. Yao,  S. Yeganeh,  
 S. R. Yost,  Zhi-Qiang You,  A. Zech,  Igor Ying Zhang,  Xing Zhang,  
 Yan Zhao,  Ying Zhu,  B. R. Brooks,  G. K. L. Chan,  C. J. Cramer,  
 M. S. Gordon,  W. J. Hehre,  A. Klamt,  M. W. Schmidt,  C. D. Sherrill,  
 D. G. Truhlar,  A. Aspuru-Guzik,  R. Baer,  A. T. Bell,  N. A. Besley,  
 Jeng-Da Chai,  A. Dreuw,  B. D. Dunietz,  T. R. Furlani,  Chao-Ping Hsu,  
 Yousung Jung,  Jing Kong,  D. S. Lambrecht,  WanZhen Liang,  C. Ochsenfeld,  
 V. A. Rassolov,  L. V. Slipchenko,  J. E. Subotnik,  T. Van Voorhis,  
 J. M. Herbert,  A. I. Krylov,  P. M. W. Gill,  M. Head-Gordon

 Contributors to earlier versions of Q-Chem not listed above: 
 R. D. Adamson,  B. Austin,  J. Baker,  G. J. O. Beran,  K. Brandhorst,  
 S. T. Brown,  E. F. C. Byrd,  A. K. Chakraborty,  C.-L. Cheng,  
 Siu Hung Chien,  D. M. Chipman,  D. L. Crittenden,  H. Dachsel,  
 R. A. DiStasio Jr.,  R. J. Doerksen,  A. D. Dutoi,  L. Fusti-Molnar,  
 W. A. Goddard III,  A. Golubeva-Zadorozhnaya,  S. R. Gwaltney,  G. Hawkins,  
 A. Heyden,  S. Hirata,  G. Kedziora,  F. J. Keil,  C. Kelley,  Jihan Kim,  
 R. A. King,  R. Z. Khaliullin,  P. P. Korambath,  W. Kurlancheek,  
 A. M. Lee,  M. S. Lee,  S. V. Levchenko,  Ching Yeh Lin,  D. Liotard,  
 R. C. Lochan,  I. Lotan,  P. E. Maslen,  N. Nair,  D. P. O'Neill,  
 D. Neuhauser,  E. Neuscamman,  C. M. Oana,  R. Olson,  B. Peters,  
 R. Peverati,  P. A. Pieniazek,  Y. M. Rhee,  J. Ritchie,  M. A. Rohrdanz,  
 E. Rosta,  N. J. Russ,  H. F. Schaefer III,  N. E. Schultz,  N. Shenvi,  
 A. C. Simmonett,  A. Sodt,  D. Stuck,  K. S. Thanthiriwatte,  V. Vanovschi,  
 Tao Wang,  A. Warshel,  C. F. Williams,  Q. Wu,  X. Xu,  W. Zhang

 Please cite Q-Chem as follows:
 Y. Shao et al., Mol. Phys. 113, 184-215 (2015)
 DOI: 10.1080/00268976.2014.952696

 Q-Chem 5.0.1 for Intel X86 EM64T Linux

 Parts of Q-Chem use Armadillo 5.200.1 (Boston Tea Smuggler).
 http://arma.sourceforge.net/

 Q-Chem begins on Sat Oct 14 17:07:36 2017  

Host: r0142.ten.osc.edu
0

     Scratch files written to /tmp/pbstmp.1310449/08//
Processing $rem in /users/PAS0291/osu6415/.qchemrc.
molden_format             true

Checking the input file for inconsistencies... 	...done.

--------------------------------------------------------------
User input:
--------------------------------------------------------------
$molecule
0 1
C 0.56469195 -0.78442467 -0.53276881
C 0.55326908 0.80131860 -0.50458701
C -0.62904462 -1.45021100 0.12851623
C -0.66373112 1.42124762 0.15695304
O -1.67525998 -1.49832407 -0.72613014
O -0.66430724 -1.89185961 1.24801175
O -1.66762536 1.55896028 -0.73744328
O -0.74582176 1.76632991 1.30789830
C -2.90754823 2.07392865 -0.21972855
C -2.89143311 -2.06335160 -0.20252384
C 1.88404077 -1.06921125 0.22819450
C 3.08426669 -0.74210202 -0.68883951
C 3.07102851 0.81799212 -0.64983095
C 1.86246811 1.07813126 0.27750195
O 1.92616084 -0.01629197 1.19673776
H 0.59504183 -1.12619373 -1.56788313
H 0.59219803 1.17795626 -1.52695747
H -3.29328670 1.42006946 0.56438306
H -3.22718219 -1.50221196 0.67105560
H 1.90745713 -2.03060441 0.73368344
H 4.00445090 -1.14373064 -0.26284086
H 2.97027315 -1.14882686 -1.69601193
H 3.98236531 1.21287767 -0.19920312
H 2.95386760 1.27352717 -1.63543475
H 1.86531606 2.01634027 0.82559740
H -2.76746552 3.07581062 0.18883649
H -3.58859946 2.09729427 -1.06757959
H -2.73877801 -3.10578145 0.08142946
H -3.61676655 -1.98907412 -1.00977343
$end

$rem
sym_ignore      true
jobtype         opt
method          b3lyp
basis           6-311++G(d,p)
dft_d           d3_op
mem_total       62000
MEM_STATIC      4000
ao2mo_disk      350000
max_scf_cycles  200
geom_opt_max_cycles 1000
geom_opt_tol_displacement 1
GEOM_OPT_TOL_GRADIENT       1
GEOM_OPT_TOL_ENERGY         1
$end

--------------------------------------------------------------
 Adding empirical dispersion correction 
 ----------------------------------------------------------------
 Doing -D3(op) with
 s6 =   1.00000
 s8 =   0.78311
 a1 =   0.30000
 a2 =   4.25000
 n  =  10.00000
 -D3 energy without 3body term =     -0.0308217358 hartrees
 ----------------------------------------------------------------
             Standard Nuclear Orientation (Angstroms)
    I     Atom           X                Y                Z
 ----------------------------------------------------------------
    1      C       0.5646919500    -0.7844246700    -0.5327688100
    2      C       0.5532690800     0.8013186000    -0.5045870100
    3      C      -0.6290446200    -1.4502110000     0.1285162300
    4      C      -0.6637311200     1.4212476200     0.1569530400
    5      O      -1.6752599800    -1.4983240700    -0.7261301400
    6      O      -0.6643072400    -1.8918596100     1.2480117500
    7      O      -1.6676253600     1.5589602800    -0.7374432800
    8      O      -0.7458217600     1.7663299100     1.3078983000
    9      C      -2.9075482300     2.0739286500    -0.2197285500
   10      C      -2.8914331100    -2.0633516000    -0.2025238400
   11      C       1.8840407700    -1.0692112500     0.2281945000
   12      C       3.0842666900    -0.7421020200    -0.6888395100
   13      C       3.0710285100     0.8179921200    -0.6498309500
   14      C       1.8624681100     1.0781312600     0.2775019500
   15      O       1.9261608400    -0.0162919700     1.1967377600
   16      H       0.5950418300    -1.1261937300    -1.5678831300
   17      H       0.5921980300     1.1779562600    -1.5269574700
   18      H      -3.2932867000     1.4200694600     0.5643830600
   19      H      -3.2271821900    -1.5022119600     0.6710556000
   20      H       1.9074571300    -2.0306044100     0.7336834400
   21      H       4.0044509000    -1.1437306400    -0.2628408600
   22      H       2.9702731500    -1.1488268600    -1.6960119300
   23      H       3.9823653100     1.2128776700    -0.1992031200
   24      H       2.9538676000     1.2735271700    -1.6354347500
   25      H       1.8653160600     2.0163402700     0.8255974000
   26      H      -2.7674655200     3.0758106200     0.1888364900
   27      H      -3.5885994600     2.0972942700    -1.0675795900
   28      H      -2.7387780100    -3.1057814500     0.0814294600
   29      H      -3.6167665500    -1.9890741200    -1.0097734300
 ----------------------------------------------------------------
 Nuclear Repulsion Energy =  1114.3491398468 hartrees
 There are       57 alpha and       57 beta electrons
 Requested basis set is 6-311++G(d,p)
 There are 160 shells and 428 basis functions

 Total QAlloc Memory Limit  62000 MB
 Mega-Array Size      3911 MB
 MEM_STATIC part      4000 MB
 A cutoff of  1.0D-11 yielded  10585 shell pairs
 There are     77356 function pairs (     82604 Cartesian)
 
 -------------------------------------------------------
 OpenMP Integral Computing Module                       
 Release: version 1.0, May 2013, Q-Chem Inc. Pittsburgh 
 -------------------------------------------------------
 Integral Job Info:
 Integral job number is                      11
 Integral operator is                         1
 short-range coefficients                     0
 long-range coefficients              100000000
 Omega coefficients                           0
 if combine SR and LR in K                    0
 Integral screening is                        0
 Integral computing path is                   2
 max size of driver memory is            800000
 size of driver memory is                593474
 size of scratch memory is              2361544
 max col of scratch BK array               1296
 max len of scratch array in speh3          155
 max len of scratch index in speh4           18
 max int batch size is                      520
 min int batch size is                       52
 fixed nKL is                                52
 max L of basis functions is                  2
 order of int derivative is                   0
 number of shells is                        160
 number of basis is                         443
 number of cartesian basis is               443
 number of contracted shell pairs         10585
 number of primitive shell pairs          23977
 maxK2 (contraction) of shell pair           36
 max number of K2 of shell pair               1
 max number of CS2 of shell pair           1960
 max number of PS2 of shell pair           3426
 mem total for path MDJ                  141224
 -------------------------------------------------------
 Smallest overlap matrix eigenvalue = 7.72E-07

 Q-Chem warning in module /fs/scratch/osu6415/qchem-kaunlao-vdw/stvman/mkSTV.C, line 281:

 Overlap eigenvalue is smaller than square root of threshold

 Linear dependence detected in AO basis
 Number of orthogonalized atomic orbitals = 427
 Maximum deviation from orthogonality = 1.122E-10

 Scale SEOQF with 1.000000e-01/1.000000e-01/1.000000e-01

 Standard Electronic Orientation quadrupole field applied
 Nucleus-field energy     =     0.0000000265 hartrees
 Guess from superposition of atomic densities
 Warning:  Energy on first SCF cycle will be non-variational
 A restricted hybrid HF-DFT SCF calculation will be
 performed using Pulay DIIS extrapolation
 Exchange:     0.2000 Hartree-Fock + 0.0800 Slater + 0.7200 B88
 Correlation:  0.1900 VWN1RPA + 0.8100 LYP
 Using SG-1 standard quadrature grid
 Dispersion:   Grimme D3
 SCF converges when DIIS error is below 1.0E-08
 using 20 threads for integral computing
 -------------------------------------------------------
 OpenMP Integral computing Module                
 Release: version 1.0, May 2013, Q-Chem Inc. Pittsburgh 
 -------------------------------------------------------
 -------------------------------------------------------
 OpenMP BLAS3 based DFT computing Module                
 Release: version 1.0, May 2013, Q-Chem Inc. Pittsburgh 
 -------------------------------------------------------
 ---------------------------------------
  Cycle       Energy         DIIS Error
 ---------------------------------------
    1    -768.9187630351      3.08E-02
    2    -765.5661218772      3.97E-03
    3    -764.9930367723      7.10E-03
    4    -765.8119273897      1.59E-03
    5    -765.8549506532      4.72E-04
    6    -765.8582001027      1.50E-04
    7    -765.8585603008      4.73E-05
    8    -765.8585989603      1.06E-05
    9    -765.8586011414      2.42E-06
   10    -765.8586012423      9.90E-07
   11    -765.8586012567      3.46E-07
   12    -765.8586012589      1.06E-07
   13    -765.8586012584      4.61E-08
   14    -765.8586012571      1.70E-08
   15    -765.8586012610      4.58E-09 Convergence criterion met
 ---------------------------------------
 SCF time:  CPU 740.31 s  wall 39.14 s
 SCF   energy in the final basis set = -765.85860126
 Total energy in the final basis set = -765.85860126
 
 --------------------------------------------------------------
 
                    Orbital Energies (a.u.)
 --------------------------------------------------------------
 
 Alpha MOs
 -- Occupied --
-19.176 -19.176 -19.127 -19.119 -19.119 -10.308 -10.308 -10.232
-10.232 -10.231 -10.231 -10.209 -10.209 -10.180 -10.180  -1.119
 -1.115  -1.062  -1.030  -1.029  -0.832  -0.783  -0.776  -0.740
 -0.730  -0.656  -0.609  -0.596  -0.571  -0.563  -0.549  -0.524
 -0.500  -0.494  -0.492  -0.485  -0.480  -0.474  -0.461  -0.429
 -0.426  -0.424  -0.413  -0.402  -0.384  -0.375  -0.370  -0.365
 -0.359  -0.358  -0.337  -0.332  -0.324  -0.310  -0.294  -0.280
 -0.272
 -- Virtual --
 -0.021  -0.012  -0.009  -0.005   0.003   0.008   0.013   0.020
  0.023   0.034   0.038   0.040   0.041   0.046   0.049   0.061
  0.066   0.081   0.083   0.087   0.089   0.093   0.096   0.098
  0.103   0.111   0.114   0.115   0.118   0.120   0.121   0.130
  0.130   0.134   0.136   0.138   0.141   0.147   0.149   0.151
  0.154   0.155   0.158   0.165   0.168   0.172   0.173   0.176
  0.180   0.182   0.187   0.191   0.194   0.205   0.207   0.214
  0.216   0.223   0.224   0.227   0.237   0.241   0.241   0.258
  0.261   0.263   0.274   0.277   0.282   0.285   0.289   0.296
  0.300   0.306   0.310   0.310   0.314   0.323   0.324   0.331
  0.332   0.341   0.343   0.345   0.353   0.359   0.361   0.367
  0.374   0.377   0.381   0.386   0.387   0.394   0.396   0.410
  0.421   0.429   0.445   0.452   0.460   0.469   0.473   0.479
  0.501   0.503   0.508   0.525   0.535   0.548   0.550   0.559
  0.564   0.579   0.585   0.589   0.607   0.618   0.622   0.626
  0.633   0.641   0.646   0.659   0.661   0.666   0.672   0.675
  0.687   0.700   0.702   0.711   0.721   0.732   0.743   0.745
  0.755   0.762   0.765   0.772   0.789   0.790   0.806   0.820
  0.837   0.849   0.866   0.888   0.915   0.937   0.950   0.971
  0.976   0.998   1.007   1.028   1.061   1.069   1.088   1.092
  1.119   1.122   1.135   1.153   1.179   1.192   1.200   1.213
  1.219   1.228   1.245   1.248   1.270   1.290   1.297   1.308
  1.327   1.339   1.344   1.353   1.364   1.392   1.399   1.419
  1.431   1.444   1.447   1.461   1.473   1.494   1.500   1.505
  1.519   1.533   1.536   1.554   1.567   1.571   1.586   1.586
  1.602   1.608   1.615   1.628   1.643   1.657   1.670   1.676
  1.699   1.716   1.721   1.725   1.728   1.744   1.753   1.772
  1.782   1.804   1.808   1.813   1.825   1.827   1.851   1.865
  1.875   1.884   1.894   1.921   1.939   1.957   1.965   1.975
  1.988   2.000   2.034   2.049   2.061   2.089   2.091   2.108
  2.109   2.123   2.140   2.160   2.166   2.180   2.197   2.201
  2.227   2.231   2.271   2.313   2.327   2.410   2.434   2.440
  2.465   2.469   2.476   2.485   2.497   2.498   2.517   2.518
  2.535   2.561   2.563   2.579   2.590   2.633   2.643   2.664
  2.677   2.698   2.721   2.729   2.765   2.781   2.791   2.800
  2.821   2.842   2.852   2.867   2.873   2.882   2.901   2.903
  2.943   2.951   2.963   3.008   3.023   3.026   3.033   3.065
  3.070   3.087   3.089   3.108   3.115   3.139   3.161   3.170
  3.219   3.219   3.222   3.247   3.270   3.278   3.317   3.334
  3.378   3.391   3.417   3.451   3.592   3.610   3.622   3.663
  3.767   3.774   3.781   3.832   3.853   3.897   3.938   4.004
  4.041   4.056   4.070   4.109   4.110   4.132   4.150   4.171
  4.204   4.252   4.386   4.492   5.016   5.107   5.116   5.139
  5.182   5.266   5.283   5.386   5.426   5.496   5.606   5.616
  5.664   5.863   5.891  23.816  23.832  23.841  23.888  23.888
 23.922  23.937  23.943  23.982  24.051  49.892  49.934  49.969
 50.012  50.069
 --------------------------------------------------------------
 
          Ground-State Mulliken Net Atomic Charges

     Atom                 Charge (a.u.)
  ----------------------------------------
      1 C                    -0.025051
      2 C                     0.021246
      3 C                    -0.345633
      4 C                    -0.375384
      5 O                    -0.005151
      6 O                    -0.185386
      7 O                     0.001282
      8 O                    -0.179755
      9 C                    -0.200865
     10 C                    -0.214386
     11 C                    -0.080583
     12 C                    -0.444732
     13 C                    -0.460925
     14 C                    -0.088193
     15 O                    -0.135120
     16 H                     0.266937
     17 H                     0.271289
     18 H                     0.177141
     19 H                     0.186044
     20 H                     0.274323
     21 H                     0.185710
     22 H                     0.119209
     23 H                     0.187029
     24 H                     0.118020
     25 H                     0.272726
     26 H                     0.172648
     27 H                     0.158702
     28 H                     0.171953
     29 H                     0.156907
  ----------------------------------------
  Sum of atomic charges =    -0.000000

 -----------------------------------------------------------------
                    Cartesian Multipole Moments
 -----------------------------------------------------------------
    Charge (ESU x 10^10)
                -0.0000
    Dipole Moment (Debye)
         X      -1.0126      Y       0.1329      Z      -4.5322
       Tot       4.6459
    Quadrupole Moments (Debye-Ang)
        XX     -73.0232     XY       0.1988     YY     -84.6764
        XZ      -2.4059     YZ       0.4272     ZZ     -99.0055
    Octopole Moments (Debye-Ang^2)
       XXX     -54.6946    XXY      -0.2086    XYY     -13.2605
       YYY       1.1679    XXZ      -3.5263    XYZ       0.6009
       YYZ      -8.9236    XZZ      -3.4662    YZZ      -0.0318
       ZZZ     -10.8903
    Hexadecapole Moments (Debye-Ang^3)
      XXXX   -2113.4313   XXXY      -0.9131   XXYY    -506.1106
      XYYY      -0.6255   YYYY   -1163.4778   XXXZ      29.0208
      XXYZ      -0.3575   XYYZ      22.4598   YYYZ       6.5892
      XXZZ    -463.3384   XYZZ       0.9609   YYZZ    -292.9730
      XZZZ       7.1424   YZZZ       1.0221   ZZZZ    -419.3257
 -----------------------------------------------------------------
 Calculating analytic gradient of the SCF energy
 Gradient of SCF Energy
            1           2           3           4           5           6
    1  -0.0004947   0.0004759   0.0003133  -0.0003006  -0.0000483  -0.0001295
    2   0.0001211   0.0002970  -0.0005995  -0.0007977   0.0000323   0.0003901
    3  -0.0005621   0.0007005  -0.0001749   0.0001001   0.0000257   0.0001476
            7           8           9          10          11          12
    1  -0.0000370   0.0001833   0.0000253   0.0000533  -0.0000340   0.0000048
    2   0.0000302   0.0005075  -0.0000204  -0.0000314  -0.0000040  -0.0000337
    3   0.0000049  -0.0001467   0.0000544   0.0000276  -0.0000442  -0.0000266
           13          14          15          16          17          18
    1   0.0000129  -0.0000500   0.0000253   0.0000420  -0.0000250  -0.0000023
    2   0.0000288   0.0000007   0.0000032   0.0000442   0.0000048  -0.0000103
    3   0.0000054  -0.0000402   0.0000354  -0.0000178   0.0000007   0.0000117
           19          20          21          22          23          24
    1  -0.0000110   0.0000144  -0.0000038   0.0000098  -0.0000030  -0.0000196
    2   0.0000100   0.0000068   0.0000168   0.0000080   0.0000164   0.0000022
    3  -0.0000123  -0.0000157  -0.0000136  -0.0000210  -0.0000325  -0.0000177
           25          26          27          28          29
    1   0.0000315  -0.0000109  -0.0000214   0.0000068  -0.0000076
    2   0.0000058  -0.0000025  -0.0000083   0.0000002  -0.0000185
    3  -0.0000203   0.0000009   0.0000219   0.0000034   0.0000053
 Max gradient component =       7.977E-04
 RMS gradient           =       1.902E-04
 Gradient time:  CPU 244.70 s  wall 18.19 s
 Geometry Optimization Parameters
   NAtoms,    NIC,     NZ,  NCons,   NDum,   NFix, NCnnct, MaxDiis
       29     227       0       0       0       0       0       0


** GEOMETRY OPTIMIZATION IN DELOCALIZED INTERNAL COORDINATES **
   Searching for a Minimum

   Optimization Cycle:   1

                       Coordinates (Angstroms)
     ATOM                X               Y               Z
      1  C         0.5646919500   -0.7844246700   -0.5327688100
      2  C         0.5532690800    0.8013186000   -0.5045870100
      3  C        -0.6290446200   -1.4502110000    0.1285162300
      4  C        -0.6637311200    1.4212476200    0.1569530400
      5  O        -1.6752599800   -1.4983240700   -0.7261301400
      6  O        -0.6643072400   -1.8918596100    1.2480117500
      7  O        -1.6676253600    1.5589602800   -0.7374432800
      8  O        -0.7458217600    1.7663299100    1.3078983000
      9  C        -2.9075482300    2.0739286500   -0.2197285500
     10  C        -2.8914331100   -2.0633516000   -0.2025238400
     11  C         1.8840407700   -1.0692112500    0.2281945000
     12  C         3.0842666900   -0.7421020200   -0.6888395100
     13  C         3.0710285100    0.8179921200   -0.6498309500
     14  C         1.8624681100    1.0781312600    0.2775019500
     15  O         1.9261608400   -0.0162919700    1.1967377600
     16  H         0.5950418300   -1.1261937300   -1.5678831300
     17  H         0.5921980300    1.1779562600   -1.5269574700
     18  H        -3.2932867000    1.4200694600    0.5643830600
     19  H        -3.2271821900   -1.5022119600    0.6710556000
     20  H         1.9074571300   -2.0306044100    0.7336834400
     21  H         4.0044509000   -1.1437306400   -0.2628408600
     22  H         2.9702731500   -1.1488268600   -1.6960119300
     23  H         3.9823653100    1.2128776700   -0.1992031200
     24  H         2.9538676000    1.2735271700   -1.6354347500
     25  H         1.8653160600    2.0163402700    0.8255974000
     26  H        -2.7674655200    3.0758106200    0.1888364900
     27  H        -3.5885994600    2.0972942700   -1.0675795900
     28  H        -2.7387780100   -3.1057814500    0.0814294600
     29  H        -3.6167665500   -1.9890741200   -1.0097734300
   Point Group: c1    Number of degrees of freedom:    81


   Energy is   -765.858601261


 Attempting to Generate Delocalized Internal Coordinates

 81 Hessian modes will be used to form the next step
  Hessian Eigenvalues:
     0.003251    0.006743    0.006854    0.007435    0.010392    0.010405
     0.010491    0.010492    0.022024    0.022053    0.022151    0.026937
     0.030838    0.036693    0.041028    0.041176    0.047165    0.048953
     0.051521    0.054495    0.055159    0.056160    0.059144    0.062407
     0.064355    0.064587    0.074002    0.075090    0.093036    0.093598
     0.096612    0.101113    0.101140    0.105821    0.105846    0.112955
     0.122245    0.158726    0.160000    0.160000    0.160000    0.160000
     0.160000    0.160000    0.166666    0.228303    0.239949    0.246857
     0.249982    0.249991    0.250000    0.250000    0.250000    0.250000
     0.258069    0.275706    0.279796    0.305200    0.306012    0.341277
     0.345641    0.345726    0.346512    0.346728    0.346809    0.346955
     0.347367    0.347375    0.347550    0.347855    0.350559    0.350698
     0.350725    0.352110    0.352277    0.396380    0.397273    0.546450
     0.546909    1.026599    1.028485

 Minimum Search - Taking Simple RFO Step
 Searching for Lamda that Minimizes Along All modes
 Value Taken    Lamda =  -0.00006956
 Step Taken.  Stepsize is  0.093185

                             Maximum     Tolerance    Cnvgd?
         Gradient           0.000411      0.000001      NO
         Displacement       0.057734      0.000001      NO
         Energy change     *********      0.000000      NO


 New Cartesian Coordinates Obtained by Inverse Iteration

 Displacement from previous Coordinates is:  0.138965
 Adding empirical dispersion correction 
 ----------------------------------------------------------------
 Doing -D3(op) with
 s6 =   1.00000
 s8 =   0.78311
 a1 =   0.30000
 a2 =   4.25000
 n  =  10.00000
 -D3 energy without 3body term =     -0.0308333046 hartrees
 ----------------------------------------------------------------
             Standard Nuclear Orientation (Angstroms)
    I     Atom           X                Y                Z
 ----------------------------------------------------------------
    1      C       0.5648981531    -0.7849583629    -0.5307246645
    2      C       0.5532235337     0.8008389809    -0.5075145301
    3      C      -0.6285176688    -1.4488857847     0.1331529584
    4      C      -0.6639304193     1.4223064233     0.1523999063
    5      O      -1.6796366710    -1.4861971893    -0.7159744768
    6      O      -0.6539664647    -1.9142669226     1.2432619723
    7      O      -1.6617152354     1.5738337412    -0.7465509544
    8      O      -0.7589442203     1.7357293379     1.3113872415
    9      C      -2.9063813485     2.0770702821    -0.2286334241
   10      C      -2.8922525744    -2.0595330523    -0.1930855132
   11      C       1.8851403542    -1.0685655097     0.2287380742
   12      C       3.0843878952    -0.7405178351    -0.6893279357
   13      C       3.0710916197     0.8195051708    -0.6493378587
   14      C       1.8613344650     1.0787303576     0.2765459848
   15      O       1.9259175703    -0.0150448173     1.1965150043
   16      H       0.5927673636    -1.1286902498    -1.5652585803
   17      H       0.5944364046     1.1764634916    -1.5301693966
   18      H      -3.2968491016     1.4079841985     0.5401542985
   19      H      -3.2216038694    -1.5127429347     0.6919596278
   20      H       1.9097364173    -2.0296774878     0.7347203393
   21      H       4.0050843787    -1.1423223224    -0.2645883495
   22      H       2.9693789433    -1.1466150772    -1.6966348271
   23      H       3.9817878776     1.2141131521    -0.1971592240
   24      H       2.9551845892     1.2757670509    -1.6347480201
   25      H       1.8625512069     2.0171371237     0.8243221665
   26      H      -2.7710059199     3.0712481192     0.1998700795
   27      H      -3.5810608023     2.1153626637    -1.0810049055
   28      H      -2.7377779080    -3.1064573179     0.0728189248
   29      H      -3.6232324586    -1.9720304299    -0.9938713075
 ----------------------------------------------------------------
 Nuclear Repulsion Energy =  1114.4435069957 hartrees
 There are       57 alpha and       57 beta electrons
 Applying Cartesian multipole field
    Component          Value
    ---------          -----
     (2,0,0)        1.00000E-11
     (0,2,0)        2.00000E-11
     (0,0,2)       -3.00000E-11
 Nucleus-field energy     =     0.0000000265 hartrees
 Requested basis set is 6-311++G(d,p)
 There are 160 shells and 428 basis functions
 A cutoff of  1.0D-11 yielded  10587 shell pairs
 There are     77385 function pairs (     82637 Cartesian)
 Smallest overlap matrix eigenvalue = 7.74E-07

 Q-Chem warning in module /fs/scratch/osu6415/qchem-kaunlao-vdw/stvman/mkSTV.C, line 281:

 Overlap eigenvalue is smaller than square root of threshold

 Linear dependence detected in AO basis
 Number of orthogonalized atomic orbitals = 427
 Maximum deviation from orthogonality = 9.444E-11
 Guess MOs from SCF MO coefficient file
 Reading MOs from coefficient file
 Reading MOs from coefficient file
 A restricted hybrid HF-DFT SCF calculation will be
 performed using Pulay DIIS extrapolation
 Exchange:     0.2000 Hartree-Fock + 0.0800 Slater + 0.7200 B88
 Correlation:  0.1900 VWN1RPA + 0.8100 LYP
 Using SG-1 standard quadrature grid
 Dispersion:   Grimme D3
 SCF converges when DIIS error is below 1.0E-08
 Geometry optimization detected.  Setting ReadMinima to 0
 Setting SaveMinima to 0
 using 20 threads for integral computing
 -------------------------------------------------------
 OpenMP Integral computing Module                
 Release: version 1.0, May 2013, Q-Chem Inc. Pittsburgh 
 -------------------------------------------------------
 -------------------------------------------------------
 OpenMP BLAS3 based DFT computing Module                
 Release: version 1.0, May 2013, Q-Chem Inc. Pittsburgh 
 -------------------------------------------------------
 ---------------------------------------
  Cycle       Energy         DIIS Error
 ---------------------------------------
    1    -765.8564704997      3.65E-04
    2    -765.8586073241      2.61E-05
    3    -765.8586145007      3.15E-05
    4    -765.8586304073      1.16E-05
    5    -765.8586321646      4.90E-06
    6    -765.8586325768      1.53E-06
    7    -765.8586326108      7.70E-07
    8    -765.8586326194      2.27E-07
    9    -765.8586326204      6.40E-08
   10    -765.8586326206      2.49E-08
   11    -765.8586326216      4.70E-09 Convergence criterion met
 ---------------------------------------
 SCF time:  CPU 540.74 s  wall 28.64 s
 SCF   energy in the final basis set = -765.85863262
 Total energy in the final basis set = -765.85863262
 
 --------------------------------------------------------------
 
                    Orbital Energies (a.u.)
 --------------------------------------------------------------
 
 Alpha MOs
 -- Occupied --
-19.176 -19.176 -19.127 -19.119 -19.119 -10.308 -10.308 -10.232
-10.232 -10.231 -10.231 -10.209 -10.209 -10.180 -10.180  -1.119
 -1.115  -1.062  -1.030  -1.029  -0.831  -0.783  -0.776  -0.740
 -0.730  -0.655  -0.609  -0.596  -0.571  -0.563  -0.549  -0.524
 -0.500  -0.494  -0.492  -0.485  -0.480  -0.474  -0.461  -0.429
 -0.426  -0.424  -0.413  -0.402  -0.384  -0.375  -0.371  -0.365
 -0.359  -0.358  -0.337  -0.332  -0.324  -0.310  -0.294  -0.280
 -0.272
 -- Virtual --
 -0.020  -0.012  -0.009  -0.004   0.003   0.008   0.013   0.020
  0.023   0.034   0.038   0.040   0.041   0.045   0.049   0.061
  0.066   0.080   0.083   0.087   0.090   0.092   0.096   0.098
  0.103   0.111   0.114   0.115   0.118   0.120   0.121   0.130
  0.131   0.134   0.136   0.139   0.141   0.147   0.149   0.151
  0.154   0.156   0.158   0.165   0.168   0.172   0.173   0.176
  0.180   0.182   0.187   0.191   0.194   0.205   0.207   0.213
  0.216   0.223   0.224   0.228   0.237   0.241   0.241   0.258
  0.261   0.263   0.275   0.277   0.282   0.285   0.289   0.296
  0.300   0.306   0.309   0.311   0.315   0.323   0.324   0.331
  0.332   0.341   0.343   0.345   0.353   0.359   0.361   0.367
  0.374   0.377   0.381   0.386   0.387   0.394   0.397   0.410
  0.421   0.428   0.444   0.451   0.461   0.468   0.473   0.479
  0.498   0.503   0.507   0.525   0.535   0.547   0.550   0.557
  0.565   0.579   0.587   0.589   0.606   0.618   0.622   0.626
  0.634   0.641   0.648   0.659   0.661   0.667   0.672   0.675
  0.688   0.699   0.702   0.711   0.721   0.733   0.743   0.745
  0.755   0.762   0.766   0.771   0.788   0.790   0.806   0.820
  0.836   0.850   0.866   0.888   0.915   0.936   0.950   0.969
  0.977   0.995   1.010   1.028   1.059   1.070   1.088   1.093
  1.118   1.123   1.136   1.153   1.179   1.192   1.200   1.212
  1.220   1.229   1.244   1.248   1.269   1.289   1.296   1.308
  1.327   1.339   1.344   1.351   1.365   1.389   1.402   1.418
  1.431   1.444   1.447   1.462   1.472   1.494   1.501   1.505
  1.519   1.533   1.535   1.554   1.567   1.571   1.586   1.586
  1.601   1.609   1.615   1.626   1.643   1.657   1.670   1.676
  1.700   1.715   1.722   1.725   1.728   1.744   1.754   1.773
  1.782   1.804   1.808   1.813   1.825   1.828   1.851   1.866
  1.875   1.884   1.895   1.921   1.938   1.956   1.965   1.975
  1.988   2.001   2.034   2.048   2.061   2.088   2.092   2.108
  2.110   2.124   2.140   2.160   2.166   2.180   2.196   2.202
  2.226   2.232   2.271   2.312   2.327   2.410   2.434   2.441
  2.464   2.469   2.476   2.486   2.497   2.498   2.517   2.518
  2.536   2.561   2.563   2.579   2.590   2.633   2.643   2.664
  2.677   2.699   2.721   2.729   2.765   2.779   2.791   2.800
  2.821   2.842   2.851   2.867   2.874   2.884   2.901   2.903
  2.942   2.952   2.962   3.008   3.023   3.026   3.033   3.064
  3.070   3.087   3.089   3.109   3.114   3.139   3.160   3.169
  3.218   3.219   3.222   3.248   3.269   3.280   3.318   3.333
  3.379   3.391   3.417   3.452   3.592   3.610   3.623   3.663
  3.764   3.775   3.780   3.832   3.853   3.897   3.938   4.004
  4.041   4.057   4.070   4.108   4.112   4.132   4.149   4.171
  4.204   4.252   4.386   4.491   5.016   5.104   5.119   5.137
  5.182   5.266   5.283   5.386   5.425   5.496   5.606   5.616
  5.664   5.863   5.890  23.817  23.832  23.841  23.888  23.888
 23.922  23.937  23.943  23.982  24.051  49.892  49.933  49.969
 50.014  50.068
 --------------------------------------------------------------
 
          Ground-State Mulliken Net Atomic Charges

     Atom                 Charge (a.u.)
  ----------------------------------------
      1 C                    -0.038332
      2 C                     0.039160
      3 C                    -0.356206
      4 C                    -0.371595
      5 O                    -0.007673
      6 O                    -0.185966
      7 O                     0.004575
      8 O                    -0.178705
      9 C                    -0.196875
     10 C                    -0.217889
     11 C                    -0.074236
     12 C                    -0.442207
     13 C                    -0.463377
     14 C                    -0.094969
     15 O                    -0.135029
     16 H                     0.266145
     17 H                     0.272576
     18 H                     0.175879
     19 H                     0.187950
     20 H                     0.274891
     21 H                     0.185711
     22 H                     0.119481
     23 H                     0.187007
     24 H                     0.117776
     25 H                     0.271837
     26 H                     0.172708
     27 H                     0.159244
     28 H                     0.171912
     29 H                     0.156207
  ----------------------------------------
  Sum of atomic charges =    -0.000000

 -----------------------------------------------------------------
                    Cartesian Multipole Moments
 -----------------------------------------------------------------
    Charge (ESU x 10^10)
                -0.0000
    Dipole Moment (Debye)
         X      -1.0091      Y       0.1833      Z      -4.5290
       Tot       4.6437
    Quadrupole Moments (Debye-Ang)
        XX     -73.0327     XY       0.2198     YY     -84.6604
        XZ      -2.3940     YZ       0.5723     ZZ     -98.9943
    Octopole Moments (Debye-Ang^2)
       XXX     -54.6689    XXY      -0.2561    XYY     -13.2817
       YYY       2.2274    XXZ      -3.5446    XYZ       0.6838
       YYZ      -8.7973    XZZ      -3.4525    YZZ       0.0244
       ZZZ     -10.8565
    Hexadecapole Moments (Debye-Ang^3)
      XXXX   -2113.4849   XXXY      -0.4424   XXYY    -506.0129
      XYYY      -0.3511   YYYY   -1163.1912   XXXZ      29.2218
      XXYZ      -0.0472   XYYZ      22.4050   YYYZ      11.3542
      XXZZ    -463.3553   XYZZ       1.2247   YYZZ    -292.6644
      XZZZ       7.3267   YZZZ       3.9296   ZZZZ    -419.1739
 -----------------------------------------------------------------
 Calculating analytic gradient of the SCF energy
 Gradient of SCF Energy
            1           2           3           4           5           6
    1  -0.0000183  -0.0000169  -0.0005682   0.0008873   0.0002468   0.0001457
    2  -0.0006768  -0.0007107   0.0018018   0.0023984  -0.0007792  -0.0003923
    3  -0.0006818   0.0006620   0.0004201  -0.0003455  -0.0002397  -0.0000428
            7           8           9          10          11          12
    1  -0.0003337  -0.0002456  -0.0000575   0.0000820   0.0001596  -0.0000174
    2  -0.0009336  -0.0005949  -0.0000523  -0.0000382  -0.0000922  -0.0000253
    3   0.0002397   0.0000555   0.0000595  -0.0000380   0.0000023  -0.0000678
           13          14          15          16          17          18
    1   0.0000082  -0.0002306   0.0000097   0.0000808  -0.0000983  -0.0000052
    2  -0.0000184  -0.0000877  -0.0000975   0.0001362   0.0001503   0.0000224
    3   0.0000289  -0.0000568   0.0000156  -0.0000111   0.0000077   0.0000290
           19          20          21          22          23          24
    1   0.0000218   0.0000534   0.0000010   0.0000106  -0.0000071  -0.0000239
    2   0.0000206  -0.0000225   0.0000239   0.0000085   0.0000263   0.0000061
    3  -0.0000040   0.0000242   0.0000000  -0.0000142  -0.0000372  -0.0000202
           25          26          27          28          29
    1  -0.0000463   0.0000074  -0.0000203  -0.0000221  -0.0000029
    2  -0.0000318   0.0000004  -0.0000225  -0.0000008  -0.0000183
    3  -0.0000453   0.0000113   0.0000211   0.0000130   0.0000145
 Max gradient component =       2.398E-03
 RMS gradient           =       4.130E-04
 Gradient time:  CPU 249.13 s  wall 18.15 s
 Geometry Optimization Parameters
   NAtoms,    NIC,     NZ,  NCons,   NDum,   NFix, NCnnct, MaxDiis
       29     227       0       0       0       0       0       0

 Cartesian Hessian Update
 Hessian Updated using BFGS Update


** GEOMETRY OPTIMIZATION IN DELOCALIZED INTERNAL COORDINATES **
   Searching for a Minimum

   Optimization Cycle:   2

                       Coordinates (Angstroms)
     ATOM                X               Y               Z
      1  C         0.5648981531   -0.7849583629   -0.5307246645
      2  C         0.5532235337    0.8008389809   -0.5075145301
      3  C        -0.6285176688   -1.4488857847    0.1331529584
      4  C        -0.6639304193    1.4223064233    0.1523999063
      5  O        -1.6796366710   -1.4861971893   -0.7159744768
      6  O        -0.6539664647   -1.9142669226    1.2432619723
      7  O        -1.6617152354    1.5738337412   -0.7465509544
      8  O        -0.7589442203    1.7357293379    1.3113872415
      9  C        -2.9063813485    2.0770702821   -0.2286334241
     10  C        -2.8922525744   -2.0595330523   -0.1930855132
     11  C         1.8851403542   -1.0685655097    0.2287380742
     12  C         3.0843878952   -0.7405178351   -0.6893279357
     13  C         3.0710916197    0.8195051708   -0.6493378587
     14  C         1.8613344650    1.0787303576    0.2765459848
     15  O         1.9259175703   -0.0150448173    1.1965150043
     16  H         0.5927673636   -1.1286902498   -1.5652585803
     17  H         0.5944364046    1.1764634916   -1.5301693966
     18  H        -3.2968491016    1.4079841985    0.5401542985
     19  H        -3.2216038694   -1.5127429347    0.6919596278
     20  H         1.9097364173   -2.0296774878    0.7347203393
     21  H         4.0050843787   -1.1423223224   -0.2645883495
     22  H         2.9693789433   -1.1466150772   -1.6966348271
     23  H         3.9817878776    1.2141131521   -0.1971592240
     24  H         2.9551845892    1.2757670509   -1.6347480201
     25  H         1.8625512069    2.0171371237    0.8243221665
     26  H        -2.7710059199    3.0712481192    0.1998700795
     27  H        -3.5810608023    2.1153626637   -1.0810049055
     28  H        -2.7377779080   -3.1064573179    0.0728189248
     29  H        -3.6232324586   -1.9720304299   -0.9938713075
   Point Group: c1    Number of degrees of freedom:    81


   Energy is   -765.858632622

 Hessian Updated using BFGS Update

 75 Hessian modes will be used to form the next step
  Hessian Eigenvalues:
     0.001034    0.003365    0.006795    0.007437    0.010389    0.010429
     0.010486    0.022023    0.022053    0.022148    0.026921    0.030764
     0.036524    0.040667    0.041171    0.045809    0.048882    0.051412
     0.053790    0.055158    0.056159    0.059141    0.061053    0.064325
     0.064367    0.067693    0.074039    0.076013    0.093035    0.096612
     0.100997    0.101133    0.103083    0.105839    0.105926    0.113450
     0.122587    0.158725    0.159997    0.160143    0.170942    0.228426
     0.239869    0.246864    0.249980    0.249991    0.249995    0.250372
     0.258159    0.275732    0.279796    0.305289    0.306522    0.341319
     0.345641    0.345726    0.346512    0.346728    0.346808    0.346956
     0.347367    0.347376    0.347569    0.347885    0.350516    0.350698
     0.350724    0.352140    0.352322    0.396413    0.397352    0.546468
     0.546912    1.026669    1.028669

 Minimum Search - Taking Simple RFO Step
 Searching for Lamda that Minimizes Along All modes
 Value Taken    Lamda =  -0.00028153
 Calculated Step too Large.  Step scaled by  0.710328
 Step Taken.  Stepsize is  0.300000

                             Maximum     Tolerance    Cnvgd?
         Gradient           0.000809      0.000001      NO
         Displacement       0.179397      0.000001      NO
         Energy change     -0.000031      0.000000      NO


 New Cartesian Coordinates Obtained by Inverse Iteration

 Displacement from previous Coordinates is:  0.671778
 Adding empirical dispersion correction 
 ----------------------------------------------------------------
 Doing -D3(op) with
 s6 =   1.00000
 s8 =   0.78311
 a1 =   0.30000
 a2 =   4.25000
 n  =  10.00000
 -D3 energy without 3body term =     -0.0308527295 hartrees
 ----------------------------------------------------------------
             Standard Nuclear Orientation (Angstroms)
    I     Atom           X                Y                Z
 ----------------------------------------------------------------
    1      C       0.5726155582    -0.8052599699    -0.5290307933
    2      C       0.5436882657     0.7802151686    -0.5134659415
    3      C      -0.6110091993    -1.4804138002     0.1417543060
    4      C      -0.6830329007     1.3888373718     0.1406863135
    5      O      -1.6911894799    -1.4530527867    -0.6704257350
    6      O      -0.6035785289    -2.0164822620     1.2197501596
    7      O      -1.6418351507     1.6228551937    -0.7825665370
    8      O      -0.8218130666     1.6120612240     1.3160741604
    9      C      -2.8976837045     2.1116017850    -0.2779134688
   10      C      -2.8938927466    -2.0396909500    -0.1391413609
   11      C       1.8992253318    -1.0746475045     0.2228263427
   12      C       3.0914010815    -0.7233622291    -0.6962079066
   13      C       3.0611767692     0.8358262486    -0.6408491118
   14      C       1.8439237079     1.0716035327     0.2809578460
   15      O       1.9233974532    -0.0256453924     1.1955960318
   16      H       0.5944672892    -1.1495092891    -1.5635677496
   17      H       0.5910237387     1.1582990927    -1.5349161641
   18      H      -3.3313004414     1.3946029320     0.4214720840
   19      H      -3.1782599711    -1.5484105152     0.7928298443
   20      H       1.9387249487    -2.0379319829     0.7236758681
   21      H       4.0181308829    -1.1190064819    -0.2788303776
   22      H       2.9773148645    -1.1208495172    -1.7070415800
   23      H       3.9650612067     1.2357240330    -0.1796829640
   24      H       2.9452596017     1.3008451699    -1.6221325127
   25      H       1.8286379118     2.0067564155     0.8341822406
   26      H      -2.7623728404     3.0673396284     0.2306349255
   27      H      -3.5356586082     2.2283316450    -1.1510981607
   28      H      -2.7492353199    -3.1044926727     0.0505399344
   29      H      -3.6531405437    -1.8865592872    -0.9028470831
 ----------------------------------------------------------------
 Nuclear Repulsion Energy =  1114.6220735541 hartrees
 There are       57 alpha and       57 beta electrons
 Applying Cartesian multipole field
    Component          Value
    ---------          -----
     (2,0,0)        1.00000E-11
     (0,2,0)        2.00000E-11
     (0,0,2)       -3.00000E-11
 Nucleus-field energy     =     0.0000000266 hartrees
 Requested basis set is 6-311++G(d,p)
 There are 160 shells and 428 basis functions
 A cutoff of  1.0D-11 yielded  10585 shell pairs
 There are     77400 function pairs (     82658 Cartesian)
 Smallest overlap matrix eigenvalue = 7.88E-07

 Q-Chem warning in module /fs/scratch/osu6415/qchem-kaunlao-vdw/stvman/mkSTV.C, line 281:

 Overlap eigenvalue is smaller than square root of threshold

 Linear dependence detected in AO basis
 Number of orthogonalized atomic orbitals = 427
 Maximum deviation from orthogonality = 8.085E-11
 Guess MOs from SCF MO coefficient file
 Reading MOs from coefficient file
 Reading MOs from coefficient file
 A restricted hybrid HF-DFT SCF calculation will be
 performed using Pulay DIIS extrapolation
 Exchange:     0.2000 Hartree-Fock + 0.0800 Slater + 0.7200 B88
 Correlation:  0.1900 VWN1RPA + 0.8100 LYP
 Using SG-1 standard quadrature grid
 Dispersion:   Grimme D3
 SCF converges when DIIS error is below 1.0E-08
 Geometry optimization detected.  Setting ReadMinima to 0
 Setting SaveMinima to 0
 using 20 threads for integral computing
 -------------------------------------------------------
 OpenMP Integral computing Module                
 Release: version 1.0, May 2013, Q-Chem Inc. Pittsburgh 
 -------------------------------------------------------
 -------------------------------------------------------
 OpenMP BLAS3 based DFT computing Module                
 Release: version 1.0, May 2013, Q-Chem Inc. Pittsburgh 
 -------------------------------------------------------
 ---------------------------------------
  Cycle       Energy         DIIS Error
 ---------------------------------------
    1    -765.8355811972      1.31E-03
    2    -765.8585486699      1.13E-04
    3    -765.8586182726      1.31E-04
    4    -765.8589088514      4.49E-05
    5    -765.8589348559      2.12E-05
    6    -765.8589426171      4.44E-06
    7    -765.8589429416      1.93E-06
    8    -765.8589430068      4.55E-07
    9    -765.8589430100      1.59E-07
   10    -765.8589430107      6.01E-08
   11    -765.8589430104      3.06E-08
   12    -765.8589430091      5.89E-09 Convergence criterion met
 ---------------------------------------
 SCF time:  CPU 618.51 s  wall 33.65 s
 SCF   energy in the final basis set = -765.85894301
 Total energy in the final basis set = -765.85894301
 
 --------------------------------------------------------------
 
                    Orbital Energies (a.u.)
 --------------------------------------------------------------
 
 Alpha MOs
 -- Occupied --
-19.176 -19.176 -19.127 -19.119 -19.119 -10.308 -10.307 -10.232
-10.232 -10.232 -10.230 -10.209 -10.208 -10.180 -10.180  -1.119
 -1.115  -1.062  -1.030  -1.029  -0.831  -0.783  -0.776  -0.740
 -0.730  -0.655  -0.609  -0.596  -0.571  -0.563  -0.549  -0.524
 -0.500  -0.494  -0.492  -0.485  -0.480  -0.473  -0.461  -0.429
 -0.426  -0.424  -0.413  -0.401  -0.385  -0.375  -0.371  -0.365
 -0.359  -0.358  -0.337  -0.332  -0.323  -0.311  -0.293  -0.281
 -0.272
 -- Virtual --
 -0.020  -0.013  -0.009  -0.004   0.003   0.009   0.014   0.020
  0.023   0.034   0.038   0.039   0.042   0.045   0.049   0.061
  0.066   0.078   0.083   0.087   0.090   0.091   0.096   0.099
  0.102   0.111   0.114   0.116   0.117   0.121   0.122   0.129
  0.131   0.133   0.135   0.139   0.141   0.146   0.149   0.152
  0.153   0.156   0.158   0.165   0.169   0.171   0.173   0.177
  0.181   0.183   0.187   0.190   0.194   0.203   0.207   0.213
  0.216   0.221   0.223   0.230   0.238   0.240   0.242   0.256
  0.260   0.263   0.274   0.277   0.282   0.284   0.291   0.294
  0.300   0.305   0.310   0.313   0.317   0.323   0.324   0.331
  0.333   0.340   0.341   0.345   0.353   0.358   0.360   0.369
  0.374   0.376   0.381   0.385   0.387   0.394   0.398   0.409
  0.419   0.426   0.438   0.448   0.461   0.465   0.472   0.482
  0.486   0.502   0.508   0.522   0.533   0.541   0.550   0.556
  0.566   0.578   0.589   0.591   0.604   0.618   0.622   0.628
  0.635   0.643   0.652   0.658   0.660   0.669   0.671   0.678
  0.692   0.698   0.704   0.713   0.723   0.733   0.742   0.746
  0.753   0.761   0.767   0.771   0.785   0.792   0.805   0.820
  0.831   0.854   0.864   0.885   0.920   0.933   0.952   0.965
  0.975   0.989   1.021   1.030   1.051   1.073   1.083   1.096
  1.117   1.124   1.143   1.156   1.179   1.191   1.201   1.207
  1.225   1.231   1.243   1.246   1.267   1.283   1.295   1.306
  1.327   1.340   1.342   1.345   1.368   1.380   1.405   1.416
  1.433   1.443   1.446   1.463   1.468   1.492   1.503   1.507
  1.520   1.531   1.536   1.556   1.567   1.571   1.585   1.586
  1.593   1.611   1.614   1.620   1.643   1.658   1.671   1.676
  1.705   1.712   1.720   1.725   1.730   1.741   1.755   1.775
  1.781   1.801   1.808   1.814   1.825   1.832   1.849   1.868
  1.877   1.884   1.901   1.920   1.932   1.955   1.963   1.977
  1.992   2.001   2.031   2.047   2.057   2.085   2.093   2.107
  2.113   2.128   2.138   2.159   2.167   2.181   2.194   2.205
  2.225   2.232   2.272   2.310   2.326   2.406   2.435   2.441
  2.461   2.469   2.473   2.489   2.497   2.501   2.516   2.519
  2.537   2.559   2.563   2.580   2.593   2.632   2.647   2.664
  2.670   2.705   2.720   2.733   2.764   2.770   2.791   2.801
  2.822   2.842   2.850   2.866   2.877   2.889   2.897   2.906
  2.938   2.953   2.962   3.007   3.023   3.027   3.035   3.059
  3.069   3.086   3.092   3.110   3.113   3.134   3.157   3.170
  3.214   3.218   3.222   3.251   3.267   3.285   3.319   3.332
  3.384   3.390   3.416   3.452   3.593   3.609   3.629   3.665
  3.743   3.774   3.778   3.833   3.852   3.900   3.938   4.006
  4.038   4.058   4.071   4.104   4.116   4.134   4.145   4.170
  4.203   4.252   4.386   4.490   5.020   5.093   5.125   5.134
  5.183   5.267   5.280   5.390   5.419   5.497   5.605   5.619
  5.661   5.866   5.888  23.819  23.832  23.841  23.886  23.889
 23.923  23.935  23.943  23.979  24.051  49.895  49.928  49.969
 50.020  50.065
 --------------------------------------------------------------
 
          Ground-State Mulliken Net Atomic Charges

     Atom                 Charge (a.u.)
  ----------------------------------------
      1 C                    -0.072283
      2 C                     0.109528
      3 C                    -0.360166
      4 C                    -0.410468
      5 O                    -0.012716
      6 O                    -0.191388
      7 O                     0.009001
      8 O                    -0.173614
      9 C                    -0.188033
     10 C                    -0.228624
     11 C                    -0.070316
     12 C                    -0.423188
     13 C                    -0.481168
     14 C                    -0.094083
     15 O                    -0.135152
     16 H                     0.261233
     17 H                     0.279350
     18 H                     0.172725
     19 H                     0.195248
     20 H                     0.276164
     21 H                     0.185163
     22 H                     0.120962
     23 H                     0.187499
     24 H                     0.116655
     25 H                     0.269176
     26 H                     0.172926
     27 H                     0.159882
     28 H                     0.171461
     29 H                     0.154227
  ----------------------------------------
  Sum of atomic charges =    -0.000000

 -----------------------------------------------------------------
                    Cartesian Multipole Moments
 -----------------------------------------------------------------
    Charge (ESU x 10^10)
                -0.0000
    Dipole Moment (Debye)
         X      -0.9930      Y       0.3969      Z      -4.5036
       Tot       4.6288
    Quadrupole Moments (Debye-Ang)
        XX     -73.1072     XY       0.2529     YY     -84.6868
        XZ      -2.3483     YZ       1.1456     ZZ     -98.8478
    Octopole Moments (Debye-Ang^2)
       XXX     -54.2692    XXY       0.3653    XYY     -13.5921
       YYY       8.3271    XXZ      -3.5662    XYZ       1.5016
       YYZ      -8.4145    XZZ      -3.4077    YZZ       1.2501
       ZZZ     -10.4325
    Hexadecapole Moments (Debye-Ang^3)
      XXXX   -2111.4700   XXXY       3.7326   XXYY    -505.6177
      XYYY       2.3588   YYYY   -1170.1718   XXXZ      29.9164
      XXYZ       0.7892   XYYZ      22.3534   YYYZ      31.1127
      XXZZ    -462.9157   XYZZ       3.0355   YYZZ    -292.0325
      XZZZ       8.0649   YZZZ      16.8611   ZZZZ    -417.1977
 -----------------------------------------------------------------
 Calculating analytic gradient of the SCF energy
 Gradient of SCF Energy
            1           2           3           4           5           6
    1   0.0005272  -0.0004423  -0.0012738   0.0019425   0.0004806   0.0001769
    2  -0.0014622  -0.0013772   0.0034665   0.0049868  -0.0018220  -0.0007259
    3  -0.0004252  -0.0002030   0.0003229   0.0005876  -0.0005675   0.0001792
            7           8           9          10          11          12
    1  -0.0003692  -0.0005470  -0.0002727   0.0002521   0.0006754  -0.0001400
    2  -0.0018794  -0.0012367   0.0000003   0.0000405  -0.0001138   0.0000521
    3   0.0002665  -0.0001602  -0.0000106  -0.0002652   0.0003252  -0.0002781
           13          14          15          16          17          18
    1   0.0000910  -0.0007961   0.0000200  -0.0000577  -0.0000563   0.0000006
    2  -0.0000305  -0.0003052  -0.0004660   0.0005044   0.0005358   0.0000545
    3   0.0001787  -0.0002017  -0.0001051   0.0001379  -0.0001452   0.0000857
           19          20          21          22          23          24
    1   0.0000043   0.0001098  -0.0000038   0.0000195   0.0000124  -0.0000550
    2  -0.0000457  -0.0000800   0.0000387  -0.0000048   0.0000475  -0.0000052
    3   0.0000611   0.0000929   0.0000685  -0.0000078  -0.0000784  -0.0000112
           25          26          27          28          29
    1  -0.0002286  -0.0000038   0.0000184  -0.0000683  -0.0000160
    2  -0.0001294  -0.0000412  -0.0000304   0.0000074   0.0000211
    3  -0.0000676   0.0000537   0.0000184   0.0000766   0.0000720
 Max gradient component =       4.987E-03
 RMS gradient           =       8.317E-04
 Gradient time:  CPU 243.79 s  wall 18.30 s
 Geometry Optimization Parameters
   NAtoms,    NIC,     NZ,  NCons,   NDum,   NFix, NCnnct, MaxDiis
       29     227       0       0       0       0       0       0

 Cartesian Hessian Update
 Hessian Updated using BFGS Update
**WARNING** Hereditary positive definiteness endangered


** GEOMETRY OPTIMIZATION IN DELOCALIZED INTERNAL COORDINATES **
   Searching for a Minimum

   Optimization Cycle:   3

                       Coordinates (Angstroms)
     ATOM                X               Y               Z
      1  C         0.5726155582   -0.8052599699   -0.5290307933
      2  C         0.5436882657    0.7802151686   -0.5134659415
      3  C        -0.6110091993   -1.4804138002    0.1417543060
      4  C        -0.6830329007    1.3888373718    0.1406863135
      5  O        -1.6911894799   -1.4530527867   -0.6704257350
      6  O        -0.6035785289   -2.0164822620    1.2197501596
      7  O        -1.6418351507    1.6228551937   -0.7825665370
      8  O        -0.8218130666    1.6120612240    1.3160741604
      9  C        -2.8976837045    2.1116017850   -0.2779134688
     10  C        -2.8938927466   -2.0396909500   -0.1391413609
     11  C         1.8992253318   -1.0746475045    0.2228263427
     12  C         3.0914010815   -0.7233622291   -0.6962079066
     13  C         3.0611767692    0.8358262486   -0.6408491118
     14  C         1.8439237079    1.0716035327    0.2809578460
     15  O         1.9233974532   -0.0256453924    1.1955960318
     16  H         0.5944672892   -1.1495092891   -1.5635677496
     17  H         0.5910237387    1.1582990927   -1.5349161641
     18  H        -3.3313004414    1.3946029320    0.4214720840
     19  H        -3.1782599711   -1.5484105152    0.7928298443
     20  H         1.9387249487   -2.0379319829    0.7236758681
     21  H         4.0181308829   -1.1190064819   -0.2788303776
     22  H         2.9773148645   -1.1208495172   -1.7070415800
     23  H         3.9650612067    1.2357240330   -0.1796829640
     24  H         2.9452596017    1.3008451699   -1.6221325127
     25  H         1.8286379118    2.0067564155    0.8341822406
     26  H        -2.7623728404    3.0673396284    0.2306349255
     27  H        -3.5356586082    2.2283316450   -1.1510981607
     28  H        -2.7492353199   -3.1044926727    0.0505399344
     29  H        -3.6531405437   -1.8865592872   -0.9028470831
   Point Group: c1    Number of degrees of freedom:    81


   Energy is   -765.858943009

 Hessian Updated using BFGS Update
**WARNING** Hereditary positive definiteness endangered

 77 Hessian modes will be used to form the next step
  Hessian Eigenvalues:
    -0.003401    0.003339    0.006045    0.007407    0.010286    0.010427
     0.010483    0.022017    0.022051    0.022146    0.026914    0.030642
     0.036424    0.039512    0.041056    0.042610    0.045388    0.048840
     0.051685    0.054370    0.055165    0.056163    0.059144    0.062254
     0.064355    0.064603    0.073929    0.074988    0.092833    0.093315
     0.096642    0.101066    0.101132    0.105802    0.105846    0.112721
     0.121264    0.158678    0.159857    0.159995    0.160092    0.167171
     0.227393    0.238261    0.246812    0.249591    0.249978    0.249992
     0.249996    0.250208    0.257900    0.275568    0.279796    0.305201
     0.305786    0.340662    0.345641    0.345725    0.346510    0.346711
     0.346806    0.346950    0.347023    0.347367    0.347376    0.347726
     0.350501    0.350695    0.350721    0.352083    0.352264    0.396316
     0.397149    0.546398    0.546807    1.026198    1.027925
**WARNING** Hessian does not have the Desired Local Structure

 Minimum Search - Taking Simple RFO Step
 Searching for Lamda that Minimizes Along All modes
 Value Taken    Lamda =  -0.00428796
 Calculated Step too Large.  Step scaled by  0.140810
 Step Taken.  Stepsize is  0.300000

                             Maximum     Tolerance    Cnvgd?
         Gradient           0.001628      0.000001      NO
         Displacement       0.174240      0.000001      NO
         Energy change     -0.000310      0.000000      NO


 New Cartesian Coordinates Obtained by Inverse Iteration

 Displacement from previous Coordinates is:  0.782993
 Adding empirical dispersion correction 
 ----------------------------------------------------------------
 Doing -D3(op) with
 s6 =   1.00000
 s8 =   0.78311
 a1 =   0.30000
 a2 =   4.25000
 n  =  10.00000
 -D3 energy without 3body term =     -0.0310040721 hartrees
 ----------------------------------------------------------------
             Standard Nuclear Orientation (Angstroms)
    I     Atom           X                Y                Z
 ----------------------------------------------------------------
    1      C       0.5843997520    -0.8264863925    -0.5376494061
    2      C       0.5357592933     0.7566002034    -0.5146094072
    3      C      -0.5857357450    -1.5196420021     0.1386216577
    4      C      -0.7108060398     1.3384714586     0.1244986201
    5      O      -1.7030136153    -1.3956348097    -0.6122362783
    6      O      -0.5434829059    -2.1361072860     1.1715123525
    7      O      -1.6258584678     1.6497385401    -0.8203438590
    8      O      -0.8959974698     1.4879644904     1.3054171945
    9      C      -2.8948309121     2.1242880364    -0.3364245572
   10      C      -2.8970851739    -1.9880128608    -0.0671282036
   11      C       1.9145424326    -1.0842876966     0.2087707806
   12      C       3.1033467028    -0.7037958167    -0.7029359179
   13      C       3.0520815898     0.8539006560    -0.6254176879
   14      C       1.8274475175     1.0604214787     0.2935278368
   15      O       1.9202504214    -0.0463103975     1.1947067091
   16      H       0.6029428907    -1.1643471959    -1.5751288561
   17      H       0.5904553524     1.1418220116    -1.5321832149
   18      H      -3.3684762682     1.3682004971     0.2922518167
   19      H      -3.1183549790    -1.5645970275     0.9138770872
   20      H       1.9672079917    -2.0525281078     0.6983079471
   21      H       4.0349834265    -1.0930519716    -0.2905543175
   22      H       2.9958116908    -1.0879151350    -1.7196079066
   23      H       3.9479409932     1.2587920483    -0.1530663138
   24      H       2.9354359278     1.3318453237    -1.6003997698
   25      H       1.7962889704     1.9891380750     0.8573470367
   26      H      -2.7676807083     3.0403988447     0.2424343725
   27      H      -3.4929677169     2.3117937961    -1.2253784449
   28      H      -2.7774949955    -3.0683485127     0.0299353106
   29      H      -3.6870638455    -1.7527254476    -0.7768819712
 ----------------------------------------------------------------
 Nuclear Repulsion Energy =  1115.8852359889 hartrees
 There are       57 alpha and       57 beta electrons
 Applying Cartesian multipole field
    Component          Value
    ---------          -----
     (2,0,0)        1.00000E-11
     (0,2,0)        2.00000E-11
     (0,0,2)       -3.00000E-11
 Nucleus-field energy     =     0.0000000266 hartrees
 Requested basis set is 6-311++G(d,p)
 There are 160 shells and 428 basis functions
 A cutoff of  1.0D-11 yielded  10607 shell pairs
 There are     77557 function pairs (     82838 Cartesian)
 Smallest overlap matrix eigenvalue = 8.12E-07

 Q-Chem warning in module /fs/scratch/osu6415/qchem-kaunlao-vdw/stvman/mkSTV.C, line 281:

 Overlap eigenvalue is smaller than square root of threshold

 Linear dependence detected in AO basis
 Number of orthogonalized atomic orbitals = 427
 Maximum deviation from orthogonality = 7.982E-11
 Guess MOs from SCF MO coefficient file
 Reading MOs from coefficient file
 Reading MOs from coefficient file
 A restricted hybrid HF-DFT SCF calculation will be
 performed using Pulay DIIS extrapolation
 Exchange:     0.2000 Hartree-Fock + 0.0800 Slater + 0.7200 B88
 Correlation:  0.1900 VWN1RPA + 0.8100 LYP
 Using SG-1 standard quadrature grid
 Dispersion:   Grimme D3
 SCF converges when DIIS error is below 1.0E-08
 Geometry optimization detected.  Setting ReadMinima to 0
 Setting SaveMinima to 0
 using 20 threads for integral computing
 -------------------------------------------------------
 OpenMP Integral computing Module                
 Release: version 1.0, May 2013, Q-Chem Inc. Pittsburgh 
 -------------------------------------------------------
 -------------------------------------------------------
 OpenMP BLAS3 based DFT computing Module                
 Release: version 1.0, May 2013, Q-Chem Inc. Pittsburgh 
 -------------------------------------------------------
 ---------------------------------------
  Cycle       Energy         DIIS Error
 ---------------------------------------
    1    -765.8375455643      1.45E-03
    2    -765.8591681442      1.30E-04
    3    -765.8590189068      1.90E-04
    4    -765.8595832499      5.97E-05
    5    -765.8596370473      1.78E-05
    6    -765.8596428846      4.90E-06
    7    -765.8596432363      2.61E-06
    8    -765.8596433440      6.91E-07
    9    -765.8596433516      2.64E-07
   10    -765.8596433529      9.82E-08
   11    -765.8596433534      2.29E-08
   12    -765.8596433508      5.61E-09 Convergence criterion met
 ---------------------------------------
 SCF time:  CPU 612.41 s  wall 31.81 s
 SCF   energy in the final basis set = -765.85964335
 Total energy in the final basis set = -765.85964335
 
 --------------------------------------------------------------
 
                    Orbital Energies (a.u.)
 --------------------------------------------------------------
 
 Alpha MOs
 -- Occupied --
-19.176 -19.175 -19.127 -19.119 -19.118 -10.308 -10.307 -10.233
-10.232 -10.231 -10.230 -10.209 -10.208 -10.180 -10.180  -1.119
 -1.114  -1.062  -1.030  -1.029  -0.832  -0.783  -0.776  -0.740
 -0.730  -0.655  -0.608  -0.596  -0.571  -0.563  -0.549  -0.524
 -0.501  -0.494  -0.492  -0.485  -0.479  -0.473  -0.461  -0.429
 -0.425  -0.424  -0.413  -0.401  -0.385  -0.374  -0.371  -0.365
 -0.359  -0.358  -0.337  -0.332  -0.322  -0.312  -0.293  -0.281
 -0.272
 -- Virtual --
 -0.019  -0.013  -0.008  -0.003   0.003   0.009   0.014   0.020
  0.024   0.034   0.038   0.040   0.043   0.045   0.049   0.061
  0.066   0.075   0.083   0.087   0.090   0.092   0.097   0.100
  0.101   0.110   0.113   0.115   0.117   0.121   0.122   0.129
  0.131   0.133   0.135   0.139   0.143   0.147   0.149   0.151
  0.152   0.157   0.158   0.165   0.170   0.171   0.174   0.178
  0.183   0.183   0.187   0.190   0.194   0.203   0.207   0.213
  0.215   0.219   0.222   0.232   0.238   0.239   0.243   0.254
  0.258   0.262   0.271   0.277   0.281   0.284   0.290   0.294
  0.300   0.305   0.312   0.316   0.317   0.324   0.328   0.331
  0.334   0.337   0.342   0.345   0.354   0.358   0.361   0.369
  0.375   0.375   0.380   0.384   0.386   0.394   0.397   0.409
  0.415   0.423   0.431   0.445   0.460   0.461   0.469   0.481
  0.486   0.502   0.511   0.519   0.531   0.540   0.551   0.560
  0.569   0.576   0.589   0.594   0.603   0.618   0.622   0.632
  0.633   0.646   0.653   0.658   0.660   0.670   0.673   0.679
  0.694   0.698   0.707   0.715   0.724   0.733   0.742   0.747
  0.752   0.760   0.767   0.771   0.781   0.794   0.803   0.820
  0.823   0.849   0.867   0.881   0.922   0.933   0.948   0.962
  0.975   0.989   1.024   1.032   1.049   1.070   1.082   1.099
  1.118   1.126   1.148   1.162   1.181   1.191   1.202   1.204
  1.226   1.233   1.242   1.254   1.262   1.279   1.296   1.305
  1.325   1.337   1.345   1.347   1.368   1.371   1.403   1.416
  1.435   1.442   1.447   1.458   1.467   1.489   1.506   1.511
  1.521   1.528   1.541   1.561   1.567   1.570   1.579   1.589
  1.589   1.606   1.614   1.622   1.643   1.660   1.673   1.677
  1.707   1.711   1.717   1.726   1.732   1.742   1.756   1.776
  1.780   1.799   1.807   1.816   1.826   1.837   1.845   1.872
  1.883   1.889   1.909   1.916   1.931   1.954   1.959   1.979
  1.997   2.003   2.027   2.045   2.053   2.082   2.095   2.107
  2.116   2.134   2.136   2.157   2.167   2.184   2.192   2.207
  2.227   2.232   2.273   2.304   2.324   2.401   2.435   2.443
  2.458   2.468   2.470   2.493   2.496   2.504   2.515   2.520
  2.537   2.557   2.565   2.582   2.598   2.631   2.651   2.663
  2.665   2.713   2.719   2.733   2.761   2.766   2.791   2.805
  2.825   2.842   2.848   2.866   2.879   2.889   2.897   2.910
  2.934   2.954   2.960   3.005   3.023   3.029   3.039   3.053
  3.067   3.086   3.096   3.109   3.115   3.131   3.152   3.171
  3.210   3.215   3.225   3.254   3.268   3.289   3.320   3.333
  3.388   3.391   3.415   3.453   3.594   3.607   3.639   3.668
  3.718   3.773   3.781   3.834   3.851   3.903   3.938   4.007
  4.037   4.057   4.073   4.102   4.122   4.138   4.143   4.169
  4.203   4.252   4.386   4.489   5.024   5.087   5.120   5.151
  5.182   5.268   5.276   5.396   5.410   5.497   5.604   5.622
  5.658   5.869   5.885  23.821  23.832  23.842  23.884  23.891
 23.924  23.932  23.944  23.976  24.051  49.900  49.918  49.969
 50.028  50.060
 --------------------------------------------------------------
 
          Ground-State Mulliken Net Atomic Charges

     Atom                 Charge (a.u.)
  ----------------------------------------
      1 C                    -0.094023
      2 C                     0.175819
      3 C                    -0.348420
      4 C                    -0.460993
      5 O                    -0.023690
      6 O                    -0.200002
      7 O                     0.011530
      8 O                    -0.171317
      9 C                    -0.186478
     10 C                    -0.233638
     11 C                    -0.071648
     12 C                    -0.405184
     13 C                    -0.496939
     14 C                    -0.082363
     15 O                    -0.136564
     16 H                     0.254708
     17 H                     0.285169
     18 H                     0.171959
     19 H                     0.200950
     20 H                     0.276915
     21 H                     0.184454
     22 H                     0.122797
     23 H                     0.188146
     24 H                     0.115698
     25 H                     0.266879
     26 H                     0.172837
     27 H                     0.160001
     28 H                     0.171499
     29 H                     0.151899
  ----------------------------------------
  Sum of atomic charges =    -0.000000

 -----------------------------------------------------------------
                    Cartesian Multipole Moments
 -----------------------------------------------------------------
    Charge (ESU x 10^10)
                -0.0000
    Dipole Moment (Debye)
         X      -0.9705      Y       0.6225      Z      -4.4497
       Tot       4.5967
    Quadrupole Moments (Debye-Ang)
        XX     -73.1843     XY       0.3471     YY     -85.1231
        XZ      -2.3141     YZ       1.7169     ZZ     -98.4351
    Octopole Moments (Debye-Ang^2)
       XXX     -53.7289    XXY       1.3417    XYY     -13.5589
       YYY      15.4342    XXZ      -3.4396    XYZ       2.6325
       YYZ      -8.1470    XZZ      -3.4853    YZZ       2.6032
       ZZZ      -9.0620
    Hexadecapole Moments (Debye-Ang^3)
      XXXX   -2114.2346   XXXY       9.6276   XXYY    -505.6622
      XYYY       6.8303   YYYY   -1172.8558   XXXZ      30.6021
      XXYZ       1.6722   XYYZ      22.2450   YYYZ      51.3242
      XXZZ    -462.9560   XYZZ       5.8452   YYZZ    -288.3193
      XZZZ       8.3680   YZZZ      30.4818   ZZZZ    -411.2642
 -----------------------------------------------------------------
 Calculating analytic gradient of the SCF energy
 Gradient of SCF Energy
            1           2           3           4           5           6
    1   0.0000638   0.0000205  -0.0005427   0.0015527   0.0003916   0.0000361
    2  -0.0013627  -0.0013473   0.0021774   0.0037127  -0.0013791  -0.0000514
    3  -0.0007198   0.0001121   0.0001893   0.0011374  -0.0009462   0.0005125
            7           8           9          10          11          12
    1  -0.0007844  -0.0003369  -0.0002769   0.0001983   0.0000156   0.0000671
    2  -0.0019470  -0.0006957   0.0000294   0.0001352   0.0002019  -0.0000927
    3   0.0000051  -0.0005353   0.0000027  -0.0003110   0.0004723  -0.0003067
           13          14          15          16          17          18
    1   0.0000073  -0.0001030   0.0001364  -0.0001692  -0.0001687  -0.0001348
    2  -0.0000831  -0.0000870  -0.0003493   0.0008475   0.0004322   0.0000788
    3   0.0002297  -0.0000137  -0.0002732  -0.0001780   0.0001951   0.0000248
           19          20          21          22          23          24
    1  -0.0000488   0.0000519   0.0000272   0.0000348  -0.0000069  -0.0000696
    2  -0.0000943  -0.0000660   0.0000337  -0.0000013   0.0000430  -0.0000225
    3   0.0001071   0.0000661   0.0000539   0.0000280  -0.0000768  -0.0000371
           25          26          27          28          29
    1  -0.0001074   0.0000733   0.0000087   0.0000229   0.0000410
    2  -0.0000610  -0.0000345  -0.0000032  -0.0000374   0.0000237
    3  -0.0000185   0.0000625   0.0000259   0.0001156   0.0000764
 Max gradient component =       3.713E-03
 RMS gradient           =       6.551E-04
 Gradient time:  CPU 244.53 s  wall 17.38 s
 Geometry Optimization Parameters
   NAtoms,    NIC,     NZ,  NCons,   NDum,   NFix, NCnnct, MaxDiis
       29     227       0       0       0       0       0       0

 Cartesian Hessian Update
 Hessian Updated using BFGS Update
**WARNING** Hereditary positive definiteness endangered


** GEOMETRY OPTIMIZATION IN DELOCALIZED INTERNAL COORDINATES **
   Searching for a Minimum

   Optimization Cycle:   4

                       Coordinates (Angstroms)
     ATOM                X               Y               Z
      1  C         0.5843997520   -0.8264863925   -0.5376494061
      2  C         0.5357592933    0.7566002034   -0.5146094072
      3  C        -0.5857357450   -1.5196420021    0.1386216577
      4  C        -0.7108060398    1.3384714586    0.1244986201
      5  O        -1.7030136153   -1.3956348097   -0.6122362783
      6  O        -0.5434829059   -2.1361072860    1.1715123525
      7  O        -1.6258584678    1.6497385401   -0.8203438590
      8  O        -0.8959974698    1.4879644904    1.3054171945
      9  C        -2.8948309121    2.1242880364   -0.3364245572
     10  C        -2.8970851739   -1.9880128608   -0.0671282036
     11  C         1.9145424326   -1.0842876966    0.2087707806
     12  C         3.1033467028   -0.7037958167   -0.7029359179
     13  C         3.0520815898    0.8539006560   -0.6254176879
     14  C         1.8274475175    1.0604214787    0.2935278368
     15  O         1.9202504214   -0.0463103975    1.1947067091
     16  H         0.6029428907   -1.1643471959   -1.5751288561
     17  H         0.5904553524    1.1418220116   -1.5321832149
     18  H        -3.3684762682    1.3682004971    0.2922518167
     19  H        -3.1183549790   -1.5645970275    0.9138770872
     20  H         1.9672079917   -2.0525281078    0.6983079471
     21  H         4.0349834265   -1.0930519716   -0.2905543175
     22  H         2.9958116908   -1.0879151350   -1.7196079066
     23  H         3.9479409932    1.2587920483   -0.1530663138
     24  H         2.9354359278    1.3318453237   -1.6003997698
     25  H         1.7962889704    1.9891380750    0.8573470367
     26  H        -2.7676807083    3.0403988447    0.2424343725
     27  H        -3.4929677169    2.3117937961   -1.2253784449
     28  H        -2.7774949955   -3.0683485127    0.0299353106
     29  H        -3.6870638455   -1.7527254476   -0.7768819712
   Point Group: c1    Number of degrees of freedom:    81


   Energy is   -765.859643351

 Hessian Updated using BFGS Update
**WARNING** Hereditary positive definiteness endangered

 79 Hessian modes will be used to form the next step
  Hessian Eigenvalues:
    -0.002750    0.003212    0.005705    0.007316    0.009673    0.010298
     0.010468    0.021314    0.022018    0.022146    0.026890    0.030065
     0.032861    0.036787    0.040995    0.041665    0.045009    0.048503
     0.051694    0.054235    0.055151    0.056153    0.059099    0.062253
     0.064354    0.064596    0.073869    0.074988    0.091780    0.093126
     0.096628    0.101057    0.101087    0.105793    0.105824    0.112678
     0.120120    0.158096    0.159447    0.159858    0.159995    0.160092
     0.166052    0.225341    0.236987    0.246623    0.248276    0.249663
     0.249978    0.249992    0.249998    0.250170    0.257564    0.275010
     0.279772    0.304326    0.305598    0.340582    0.345622    0.345716
     0.346182    0.346512    0.346713    0.346820    0.346960    0.347366
     0.347372    0.347633    0.350272    0.350693    0.350720    0.352065
     0.352265    0.396316    0.397107    0.545656    0.546475    1.025846
     1.027905
**WARNING** Hessian does not have the Desired Local Structure

 Minimum Search - Taking Simple RFO Step
 Searching for Lamda that Minimizes Along All modes
 Value Taken    Lamda =  -0.00403499
 Calculated Step too Large.  Step scaled by  0.173586
 Step Taken.  Stepsize is  0.300000

                             Maximum     Tolerance    Cnvgd?
         Gradient           0.001538      0.000001      NO
         Displacement       0.183306      0.000001      NO
         Energy change     -0.000700      0.000000      NO


 New Cartesian Coordinates Obtained by Inverse Iteration

 Displacement from previous Coordinates is:  0.732078
 Adding empirical dispersion correction 
 ----------------------------------------------------------------
 Doing -D3(op) with
 s6 =   1.00000
 s8 =   0.78311
 a1 =   0.30000
 a2 =   4.25000
 n  =  10.00000
 -D3 energy without 3body term =     -0.0309920184 hartrees
 ----------------------------------------------------------------
             Standard Nuclear Orientation (Angstroms)
    I     Atom           X                Y                Z
 ----------------------------------------------------------------
    1      C       0.5880209230    -0.8457166780    -0.5422894130
    2      C       0.5254975245     0.7373307299    -0.5210424196
    3      C      -0.5692859483    -1.5546677338     0.1428158689
    4      C      -0.7330860116     1.3059640077     0.1032575354
    5      O      -1.7145943785    -1.3670369832    -0.5503435353
    6      O      -0.4933669118    -2.2474551730     1.1237340015
    7      O      -1.5969655869     1.7073906155    -0.8549120614
    8      O      -0.9637255479     1.3822250056     1.2836345924
    9      C      -2.8779675452     2.1688077983    -0.3920329481
   10      C      -2.8950102736    -1.9789538149     0.0037882192
   11      C       1.9244847591    -1.0945213069     0.1940358719
   12      C       3.1073707245    -0.6829247395    -0.7116620287
   13      C       3.0378995068     0.8723382475    -0.6081859618
   14      C       1.8046812805     1.0474658437     0.3052835808
   15      O       1.9100201731    -0.0688153586     1.1932795476
   16      H       0.6011564087    -1.1843313921    -1.5797581876
   17      H       0.5940427038     1.1292120018    -1.5354746878
   18      H      -3.3869609134     1.3767591449     0.1601122660
   19      H      -3.0660938838    -1.6207868172     1.0199807613
   20      H       1.9915796121    -2.0675627595     0.6718432191
   21      H       4.0438411381    -1.0673330199    -0.3059299871
   22      H       3.0047753067    -1.0512570743    -1.7347324076
   23      H       3.9255426509     1.2798102960    -0.1225670798
   24      H       2.9218182982     1.3658279288    -1.5754019758
   25      H       1.7560181345     1.9686923926     0.8801744563
   26      H      -2.7640914504     3.0388728688     0.2564110981
   27      H      -3.4349720947     2.4287738480    -1.2894519571
   28      H      -2.7906226670    -3.0650171756     0.0201687200
   29      H      -3.7099598213    -1.6835059028    -0.6534724780
 ----------------------------------------------------------------
 Nuclear Repulsion Energy =  1115.9161916629 hartrees
 There are       57 alpha and       57 beta electrons
 Applying Cartesian multipole field
    Component          Value
    ---------          -----
     (2,0,0)        1.00000E-11
     (0,2,0)        2.00000E-11
     (0,0,2)       -3.00000E-11
 Nucleus-field energy     =     0.0000000270 hartrees
 Requested basis set is 6-311++G(d,p)
 There are 160 shells and 428 basis functions
 A cutoff of  1.0D-11 yielded  10605 shell pairs
 There are     77607 function pairs (     82911 Cartesian)
 Smallest overlap matrix eigenvalue = 8.33E-07

 Q-Chem warning in module /fs/scratch/osu6415/qchem-kaunlao-vdw/stvman/mkSTV.C, line 281:

 Overlap eigenvalue is smaller than square root of threshold

 Linear dependence detected in AO basis
 Number of orthogonalized atomic orbitals = 427
 Maximum deviation from orthogonality = 7.495E-11
 Guess MOs from SCF MO coefficient file
 Reading MOs from coefficient file
 Reading MOs from coefficient file
 A restricted hybrid HF-DFT SCF calculation will be
[...]
    -0.00047516      0.00207847      0.00060655
     0.07421814      0.10268785      0.32098459
    -0.03933040      0.18957138     -0.14468874
    -0.09889026      0.50815516     -0.08148978
     0.26695619     -0.04759883      0.27152471
vibration 69
    -0.00013677      0.00059225      0.00126349
     0.00010808     -0.00024818      0.00057196
    -0.00106201      0.00032769     -0.00112359
    -0.00029176      0.00182151     -0.00147195
     0.00140661      0.00046096     -0.00011353
     0.00002762     -0.00030598      0.00045459
     0.00164766     -0.00149257     -0.00027721
    -0.00038633     -0.00027840      0.00067131
     0.02885932     -0.00925565     -0.02158447
     0.01600085      0.01146178     -0.01347745
    -0.00004409     -0.00005171      0.00001684
     0.00056999     -0.00050769     -0.00028949
     0.00024391      0.00028418     -0.00015233
    -0.00008284     -0.00010868     -0.00007279
     0.00003948     -0.00001090      0.00002737
     0.00298633     -0.00693056     -0.01447779
    -0.00053019      0.00154069     -0.00542461
    -0.41468089     -0.33041561     -0.00431595
    -0.09215760      0.15725753      0.29111841
     0.00001008      0.00066707     -0.00052433
    -0.00619700      0.00066086     -0.00398299
    -0.00011521      0.00521105      0.00748964
    -0.00324747     -0.00257884     -0.00151082
     0.00058070     -0.00053251      0.00341099
    -0.00017769      0.00093125      0.00023116
     0.11401959      0.15792955      0.49391123
    -0.06046356      0.29091211     -0.22205222
     0.06437651     -0.33115640      0.05311063
    -0.17366908      0.03094002     -0.17663390
vibration 70
     0.00967905     -0.02152681     -0.04564555
    -0.00002276     -0.00150880      0.00692605
    -0.00029379     -0.00004997     -0.00145154
    -0.00004317      0.00008898      0.00021038
     0.00008723      0.00004972      0.00007619
     0.00012713     -0.00023638      0.00032338
     0.00001621     -0.00001393     -0.00001308
     0.00002374      0.00001024     -0.00002969
    -0.00026643      0.00010117      0.00022762
     0.00133236      0.00093749     -0.00093730
     0.00109590     -0.00097793      0.00045154
    -0.02823689      0.02852997      0.02033260
     0.01297456      0.01676815     -0.01953954
     0.00023454     -0.00171964     -0.00046794
    -0.00002279      0.00003695      0.00014653
    -0.11819628      0.25315631      0.55041605
    -0.00158228      0.01937932     -0.08292052
     0.00378388      0.00298162      0.00002611
    -0.00722041      0.01140487      0.02164639
    -0.00369734      0.01059727     -0.00749935
     0.31744114     -0.03133419      0.19985752
     0.00597673     -0.30294169     -0.43649335
    -0.20353182     -0.15226874     -0.08988088
     0.05638180     -0.04847883      0.31868814
    -0.00190652      0.02067966      0.00566221
    -0.00106890     -0.00159436     -0.00495520
     0.00055520     -0.00255083      0.00196004
     0.00465088     -0.02471432      0.00390791
    -0.01303163      0.00233164     -0.01339829
vibration 71
     0.01074558     -0.02469360     -0.05275693
     0.00023512     -0.00066312      0.00457772
    -0.00027360     -0.00009602     -0.00149453
    -0.00005327      0.00013865      0.00010403
     0.00007566      0.00005385      0.00007383
     0.00016235     -0.00024210      0.00034690
     0.00000547     -0.00000511     -0.00002884
     0.00003152      0.00000339     -0.00003350
    -0.00012527      0.00009419      0.00011692
     0.00097060      0.00073941     -0.00060080
     0.00039576      0.00086281     -0.00091780
     0.01734456     -0.01074434     -0.00369539
    -0.01961151     -0.02585697      0.02796900
     0.00026030      0.00249175      0.00046026
    -0.00005686      0.00027058      0.00010449
    -0.13535249      0.29211000      0.63547694
    -0.00222514      0.01150341     -0.05498302
     0.00176901      0.00138723     -0.00000987
    -0.00510800      0.00766111      0.01478694
     0.00193202     -0.01273509      0.00846426
    -0.19873626      0.02206551     -0.12038848
    -0.00234424      0.10988800      0.16266794
     0.30553449      0.22916053      0.13504438
    -0.08250335      0.07082991     -0.46126001
     0.00178143     -0.02710620     -0.00658319
    -0.00060473     -0.00091009     -0.00286572
     0.00031193     -0.00161321      0.00123216
     0.00330633     -0.01780285      0.00279904
    -0.00896055      0.00162750     -0.00932333
vibration 72
     0.00367812     -0.00894999     -0.01960832
    -0.00009431     -0.00150466      0.00601732
    -0.00015455     -0.00005982     -0.00050976
    -0.00009338      0.00005857      0.00021017
     0.00009251      0.00003985      0.00003617
     0.00011264     -0.00006300      0.00013044
     0.00004637     -0.00004645     -0.00000218
     0.00005211      0.00000898     -0.00004073
    -0.00033421      0.00012559      0.00035258
     0.00002613      0.00007768      0.00013022
    -0.00098926      0.00178539     -0.00173802
     0.03562525     -0.02936109     -0.01401569
     0.01934390      0.02767627     -0.03023822
    -0.00027443     -0.00446116     -0.00154269
    -0.00004826      0.00010441      0.00033094
    -0.04963651      0.10804042      0.23545615
    -0.00086745      0.01718399     -0.07075647
     0.00448358      0.00347316      0.00001987
     0.00011603     -0.00051696     -0.00081599
     0.00665286     -0.03053629      0.02226673
    -0.40573880      0.04264263     -0.25031348
    -0.00456961      0.29097508      0.41816967
    -0.31193270     -0.23446159     -0.13876332
     0.08816151     -0.07748920      0.49075484
    -0.00529958      0.05918128      0.01719270
    -0.00139943     -0.00210006     -0.00650590
     0.00060564     -0.00272445      0.00207171
     0.00009086     -0.00045368      0.00002339
    -0.00022919      0.00008680     -0.00038819
vibration 73
     0.00122028     -0.00272421     -0.00537107
    -0.00017232      0.00166286     -0.00740383
     0.00002475      0.00008241     -0.00013124
    -0.00016177      0.00017610     -0.00017362
    -0.00001963      0.00000129      0.00000711
    -0.00000428     -0.00005150      0.00004966
     0.00001974     -0.00000350      0.00001582
     0.00001622     -0.00002331      0.00001658
     0.00003518      0.00003182      0.00006096
     0.00001426      0.00015738      0.00001580
    -0.00018769     -0.00238039      0.00104998
    -0.03580852     -0.01659118     -0.05203721
     0.04096562      0.02076833      0.05041757
     0.00147454     -0.00702027     -0.00187725
    -0.00000063      0.00016012      0.00007109
    -0.01308827      0.03103022      0.06750541
     0.00005330     -0.02160171      0.08695789
    -0.00025653     -0.00022269     -0.00002493
    -0.00002966     -0.00013300     -0.00016639
    -0.00320981      0.02224303     -0.01751362
     0.44394589     -0.05551046      0.25815906
    -0.01837522      0.25579712      0.36114531
    -0.42111742     -0.32011432     -0.16680139
    -0.06549029      0.07576087     -0.43366218
    -0.01065790      0.08273378      0.02633917
    -0.00015094     -0.00012454     -0.00054916
     0.00003113     -0.00001470      0.00000539
     0.00029009     -0.00172165      0.00029845
    -0.00028733      0.00006080     -0.00027817
vibration 74
     0.00060592     -0.00192130     -0.00284884
    -0.00083301      0.01464172     -0.06049912
    -0.00027290     -0.00039290      0.00006134
    -0.00066632      0.00109191     -0.00120605
     0.00009365      0.00004070      0.00002899
     0.00003913      0.00006936     -0.00005516
     0.00004462     -0.00015809      0.00017299
    -0.00019513     -0.00027777      0.00037263
     0.00043057     -0.00013927      0.00013213
     0.00000090     -0.00000206      0.00017504
     0.00037245      0.00256352     -0.00120413
     0.02788349      0.01254457      0.03977289
     0.02293047      0.01182572      0.02720639
     0.00207107     -0.00996821     -0.00334779
    -0.00006148     -0.00026284      0.00009468
    -0.01030735      0.01915446      0.03711028
     0.01150465     -0.17217391      0.71611087
    -0.00392401     -0.00295818     -0.00003594
     0.00035870     -0.00072360     -0.00124050
     0.00363411     -0.02526805      0.01995716
    -0.34814418      0.04504284     -0.20313026
     0.01382637     -0.19422912     -0.27102885
    -0.23889943     -0.18405612     -0.09456449
    -0.03536528      0.04271413     -0.22856295
    -0.01598068      0.11750781      0.03725429
     0.00002766      0.00092264      0.00203483
    -0.00039554      0.00269064     -0.00221474
    -0.00007858      0.00045906     -0.00001581
    -0.00037409      0.00015456     -0.00048673
vibration 75
     0.00178294     -0.00444353     -0.00804448
    -0.00055167      0.01311857     -0.05372055
    -0.00012916     -0.00013582     -0.00015216
    -0.00049023      0.00105894     -0.00099195
     0.00005830      0.00001739      0.00003915
     0.00002381     -0.00005674      0.00008502
     0.00000009     -0.00017170      0.00016353
    -0.00023718     -0.00025485      0.00038436
     0.00122228      0.00054980      0.00079004
    -0.00006258      0.00058838      0.00036429
     0.00003233     -0.00145812     -0.00014528
    -0.02509037     -0.01219958     -0.03705152
    -0.03001977     -0.01377213     -0.04159734
    -0.00068042      0.00362290     -0.00025008
     0.00019825     -0.00000366      0.00076461
    -0.02102542      0.04932523      0.10160363
     0.01263697     -0.15257550      0.63770296
    -0.01156583     -0.00905046      0.00016624
     0.00110257     -0.00217834     -0.00405513
    -0.00130195      0.00591089     -0.00392562
     0.31411904     -0.04151249      0.18390644
    -0.01314069      0.18670788      0.26014373
     0.30181022      0.23172720      0.12008417
     0.05829335     -0.06723169      0.37787764
     0.00329758     -0.03463744     -0.01129218
    -0.00173817     -0.00156672     -0.00629413
    -0.00031899      0.00297172     -0.00217430
     0.00095552     -0.00513830      0.00096308
    -0.00100409      0.00032865     -0.00104562
vibration 76
     0.00006470     -0.00013470     -0.00023044
    -0.00015128      0.00013795     -0.00119036
    -0.00007856      0.00000440     -0.00003543
     0.00012404      0.00012797      0.00012019
     0.00003203      0.00000722      0.00002090
     0.00001995     -0.00000080      0.00002203
     0.00022783      0.00025699      0.00025145
     0.00008399      0.00006476      0.00008006
    -0.05736572     -0.05329918     -0.05371579
     0.00121847     -0.00345181     -0.00135670
    -0.00001414      0.00001313     -0.00008404
    -0.00028252     -0.00021505     -0.00051871
    -0.00021973     -0.00005903     -0.00049246
    -0.00020154      0.00127053      0.00042501
     0.00000607      0.00002705      0.00001977
    -0.00058984      0.00135011      0.00277587
     0.00041852     -0.00299853      0.01234840
     0.54810057      0.44240729     -0.01194074
    -0.00700194      0.01193741      0.02350360
     0.00009771     -0.00077486      0.00068693
     0.00371236     -0.00047910      0.00214137
    -0.00021650      0.00294203      0.00411528
     0.00193804      0.00155823      0.00083375
     0.00073879     -0.00086138      0.00497129
     0.00204881     -0.01478221     -0.00486384
     0.14154090      0.19403481      0.65915616
    -0.01164685     -0.00692358     -0.01282883
    -0.00573999      0.02924103     -0.00530185
    -0.00170086     -0.00020343     -0.00223036
vibration 77
     0.00009353     -0.00022991     -0.00022727
    -0.00004860      0.00007859     -0.00037302
     0.00000260      0.00002917      0.00028208
     0.00011820      0.00010223     -0.00016049
    -0.00013346      0.00028405      0.00011228
     0.00005869      0.00018035     -0.00000986
    -0.00001930     -0.00003521      0.00001247
    -0.00010210     -0.00004708      0.00006280
     0.00236026      0.00204181      0.00237310
     0.02693062     -0.08252416     -0.03874661
    -0.00000117      0.00004481     -0.00006159
    -0.00015011     -0.00013105     -0.00029860
    -0.00011482     -0.00004092     -0.00019424
     0.00000943      0.00008060      0.00004303
    -0.00000780      0.00001669      0.00000573
    -0.00015287      0.00094622      0.00131873
     0.00004117     -0.00108140      0.00470515
    -0.02194647     -0.01755893      0.00049846
    -0.17920262      0.30556990      0.59986064
     0.00005498     -0.00077383      0.00057791
     0.00193553     -0.00023829      0.00112036
    -0.00012778      0.00180368      0.00254600
     0.00100139      0.00083775      0.00042915
     0.00030807     -0.00033172      0.00186384
     0.00009221     -0.00087973     -0.00031722
    -0.00604236     -0.00826712     -0.02787149
     0.00006466      0.00188653     -0.00072646
    -0.13632327      0.68488229     -0.12558074
    -0.00414267     -0.01404850     -0.01645521
vibration 78
     0.00015693      0.00137514      0.00131634
     0.00033173     -0.00111379      0.00592261
     0.00013480      0.00009662      0.00004597
     0.00023560     -0.00083225     -0.00033201
    -0.00008935     -0.00001830     -0.00001355
    -0.00007308     -0.00002579     -0.00000742
    -0.00003431      0.00034324     -0.00000408
    -0.00009680      0.00010404      0.00015562
    -0.00099857     -0.00068592     -0.00084989
    -0.00001124     -0.00004175     -0.00030384
     0.00033524     -0.00223309      0.00293044
    -0.00275931      0.00087796     -0.00126833
    -0.01038150     -0.00622214     -0.00586892
     0.01045747     -0.08004261     -0.02642187
     0.00009181     -0.00033269      0.00028466
     0.00312322     -0.00720699     -0.01494355
    -0.00269116      0.01513562     -0.06846921
     0.00940768      0.00742292     -0.00020530
    -0.00077303      0.00119334      0.00235225
    -0.00572552      0.04127821     -0.03406465
     0.02708014     -0.00337565      0.01621142
    -0.00028469      0.00107000      0.00035834
     0.11315764      0.08353982      0.04253413
     0.00578965     -0.00724341      0.02914714
    -0.11892858      0.92389361      0.30482277
     0.00177774      0.00273509      0.00931041
    -0.00002577     -0.00134097      0.00084974
     0.00000788     -0.00039760      0.00004592
     0.00103961     -0.00024182      0.00110000
vibration 79
     0.00003212     -0.00005212      0.00001260
    -0.00001825      0.00004062     -0.00016391
     0.00055884      0.00073506     -0.00082084
    -0.00003356      0.00009974     -0.00008448
     0.00020292     -0.00012182      0.00027316
    -0.00012371     -0.00031292      0.00040592
     0.00003312     -0.00004099      0.00002933
    -0.00000756     -0.00004792      0.00003667
    -0.00019920     -0.00032681      0.00007164
    -0.04877989      0.02086332     -0.07849697
     0.00009629     -0.00061167      0.00051081
     0.00007643     -0.00001957      0.00002087
     0.00003078      0.00004112     -0.00003722
    -0.00002755      0.00023731      0.00006531
    -0.00000448     -0.00001673      0.00000624
    -0.00040403      0.00016155      0.00077716
    -0.00000808     -0.00052082      0.00197672
     0.00243875      0.00184003     -0.00007329
    -0.09658720      0.15890881      0.26903288
    -0.00088212      0.00709735     -0.00587418
    -0.00083177      0.00007919     -0.00045131
    -0.00000447      0.00009374      0.00015761
    -0.00043052     -0.00032877     -0.00016792
     0.00009534     -0.00009218      0.00062950
     0.00030265     -0.00261169     -0.00087701
     0.00019403      0.00017368      0.00069027
    -0.00039610      0.00186480     -0.00147624
     0.05223250     -0.29870633      0.03272819
     0.61735754     -0.10950878      0.63071214
vibration 80
    -0.00001691      0.00001419      0.00002742
     0.00002888      0.00002605      0.00006248
    -0.00002702      0.00002824      0.00000725
    -0.00092221      0.00009586      0.00083683
     0.00000652     -0.00001400     -0.00000726
     0.00000602     -0.00001089     -0.00000114
     0.00003217      0.00025699     -0.00027947
     0.00033630      0.00006640     -0.00041684
    -0.00155097     -0.06625871      0.06758880
     0.00009056      0.00014432      0.00032122
     0.00001518     -0.00017017      0.00014761
    -0.00000899      0.00001676      0.00000547
    -0.00002056     -0.00003062      0.00004543
     0.00000195     -0.00005922     -0.00002663
     0.00001203      0.00000030     -0.00000504
     0.00013152     -0.00016657     -0.00036445
     0.00025474      0.00020128     -0.00151452
     0.23907875      0.18246075      0.01548385
     0.00067443     -0.00105592     -0.00211985
    -0.00030089      0.00206440     -0.00171509
     0.00015599     -0.00000861      0.00009427
     0.00000020     -0.00015833     -0.00021644
     0.00048219      0.00030032      0.00017629
    -0.00011857      0.00007791     -0.00065777
    -0.00009374      0.00050204      0.00024140
    -0.07046400     -0.10416169     -0.28044865
    -0.14569978      0.70386157     -0.53777850
     0.00021275     -0.00089408      0.00018645
    -0.00185491      0.00038327     -0.00185888
vibration 81
    -0.00014075     -0.00023323     -0.00120950
    -0.00060549      0.00072431     -0.00161504
     0.00007439     -0.00073832      0.00115454
    -0.00010919      0.00013820      0.00004605
     0.00011150      0.00011020     -0.00010223
    -0.00039477      0.00020972     -0.00047228
     0.00002510     -0.00004794     -0.00000597
     0.00003493     -0.00000218     -0.00003978
    -0.00003624      0.00017225     -0.00016721
     0.00044586     -0.00031755      0.00076637
     0.00973128     -0.06620606      0.05476749
     0.00480450     -0.00009531      0.00150124
     0.00101305      0.00128642     -0.00079756
    -0.00074419      0.00521754      0.00088241
     0.00001858     -0.00030492     -0.00029910
    -0.00096359      0.00436002      0.01140199
     0.00065102     -0.00405942      0.01679089
    -0.00033912     -0.00026820     -0.00005488
     0.00103862     -0.00156006     -0.00260521
    -0.10761291      0.75852945     -0.63162558
    -0.05271482      0.00539066     -0.02725065
    -0.00134455      0.00085214      0.00437345
    -0.00866553     -0.00582184     -0.00339553
     0.00082351     -0.00071766      0.00765220
     0.00574535     -0.04461949     -0.01543993
     0.00017966      0.00021520      0.00058387
     0.00042601     -0.00198392      0.00148073
    -0.00063964      0.00421539     -0.00051541
    -0.00518915      0.00104740     -0.00559197
[INT]
    0.571909
    0.539948
    2.181508
    3.031047
    0.751213
    0.839167
    2.227946
    0.199228
    0.177350
    1.950007
    3.577240
    7.500392
    5.576708
    6.788263
   10.357702
    9.543780
    9.886894
   21.592516
   13.831158
    1.215038
    4.361583
    7.702682
    7.152658
    5.672951
   19.672511
    3.720200
    1.803070
    3.076103
   11.120676
    4.636215
   26.055520
   34.289083
   19.368578
    3.932622
   33.498137
   17.391574
   32.065007
    3.278130
   33.005695
   59.704810
    8.308932
   24.242483
  210.284600
    6.020406
  131.255694
   63.487989
  234.018431
   16.299350
   15.411463
   26.448420
    4.102975
   21.113614
    2.156973
   40.815017
   20.730445
   72.784344
   41.155523
   18.295546
   12.105796
    4.515270
   15.033593
    2.621358
   12.807837
    5.716314
    6.325639
   57.460885
  401.365420
   23.208234
   46.749588
    9.745567
   21.674889
   35.849196
    0.500758
   10.572953
   32.989320
   18.724888
   15.233612
   22.125211
   14.095514
   14.380142
    5.711959

======= END OF MOLDEN-FORMATTED INPUT FILE =======


        *************************************************************
        *                                                           *
        *  Thank you very much for using Q-Chem.  Have a nice day.  *
        *                                                           *
        *************************************************************


