r0105.ten.osc.edu 10.25.153
Q-Chem Developer Version! Running on 10.25.153.*
                  Welcome to Q-Chem
     A Quantum Leap Into The Future Of Chemistry


 Q-Chem 5.0, Q-Chem, Inc., Pleasanton, CA (2017)

 Yihan Shao,  Zhengting Gan,  E. Epifanovsky,  A. T. B. Gilbert,  M. Wormit,  
 J. Kussmann,  A. W. Lange,  A. Behn,  Jia Deng,  Xintian Feng,  D. Ghosh,  
 M. Goldey,  P. R. Horn,  L. D. Jacobson,  I. Kaliman,  T. Kus,  A. Landau,  
 Jie Liu,  E. I. Proynov,  R. M. Richard,  R. P. Steele,  E. J. Sundstrom,  
 H. L. Woodcock III,  P. M. Zimmerman,  D. Zuev,  B. Albrecht,  E. Alguire,  
 S. A. Baeppler,  Z. Benda,  Y. A. Bernard,  E. J. Berquist,  K. B. Bravaya,  
 D. Casanova,  Chun-Min Chang,  Yunqing Chen,  A. Chien,  K. D. Closser,  
 M. P. Coons,  S. Dasgupta,  M. Diedenhofen,  Hainam Do,  R. G. Edgar,  
 Po-Tung Fang,  S. Fatehi,  Qingguo Feng,  Qinghui Ge,  A. Ghysels,  
 J. Gomes,  J. Gonthier,  A. Gunina,  M. W. D. Hanson-Heine,  
 P. H. P. Harbach,  A. W. Hauser,  J. E. Herr,  E. G. Hohenstein,  
 Z. C. Holden,  Kerwin Hui,  T.-C. Jagau,  Hyunjun Ji,  B. Kaduk,  
 K. Khistyaev,  Jaehoon Kim,  P. Klunzinger,  K. Koh,  D. Kosenkov,  
 T. Kowalczyk,  C. M. Krauter,  A. Kunitsa,  Ka Un Lao,  A. Laurent,  
 K. V. Lawler,  Joonho Lee,  D. Lefrancois,  S. Lehtola,  D. S. Levine,  
 Yi-Pei Li,  You-Sheng Lin,  Fenglai Liu,  E. Livshits,  A. Luenser,  
 P. Manohar,  E. Mansoor,  S. F. Manzer,  Shan-Ping Mao,  Yuezhi Mao,  
 N. Mardirossian,  A. V. Marenich,  L. A. Martinez-Martinez,  S. A. Maurer,  
 N. J. Mayhall,  S. C. McKenzie,  J.-M. Mewes,  A. F. Morrison,  K. Nanda,  
 T. S. Nguyen-Beck,  R. Olivares-Amaya,  J. A. Parkhill,  T. M. Perrine,  
 F. Plasser,  S. Prager,  A. Prociuk,  D. R. Rehn,  F. Rob,  M. Schneider,  
 N. Sergueev,  S. M. Sharada,  S. Sharma,  D. W. Small,  T. Stauch,  
 T. Stein,  Yu-Chuan Su,  A. J. W. Thom,  T. Tsuchimochi,  L. Vogt,  
 O. Vydrov,  M. A. Watson,  J. Wenzel,  M. de Wergifosse,  T. A. Wesolowski,  
 A. White,  J. Witte,  A. Yamada,  Jun Yang,  K. Yao,  S. Yeganeh,  
 S. R. Yost,  Zhi-Qiang You,  A. Zech,  Igor Ying Zhang,  Xing Zhang,  
 Yan Zhao,  Ying Zhu,  B. R. Brooks,  G. K. L. Chan,  C. J. Cramer,  
 M. S. Gordon,  W. J. Hehre,  A. Klamt,  M. W. Schmidt,  C. D. Sherrill,  
 D. G. Truhlar,  A. Aspuru-Guzik,  R. Baer,  A. T. Bell,  N. A. Besley,  
 Jeng-Da Chai,  A. Dreuw,  B. D. Dunietz,  T. R. Furlani,  Chao-Ping Hsu,  
 Yousung Jung,  Jing Kong,  D. S. Lambrecht,  WanZhen Liang,  C. Ochsenfeld,  
 V. A. Rassolov,  L. V. Slipchenko,  J. E. Subotnik,  T. Van Voorhis,  
 J. M. Herbert,  A. I. Krylov,  P. M. W. Gill,  M. Head-Gordon

 Contributors to earlier versions of Q-Chem not listed above: 
 R. D. Adamson,  B. Austin,  J. Baker,  G. J. O. Beran,  K. Brandhorst,  
 S. T. Brown,  E. F. C. Byrd,  A. K. Chakraborty,  C.-L. Cheng,  
 Siu Hung Chien,  D. M. Chipman,  D. L. Crittenden,  H. Dachsel,  
 R. A. DiStasio Jr.,  R. J. Doerksen,  A. D. Dutoi,  L. Fusti-Molnar,  
 W. A. Goddard III,  A. Golubeva-Zadorozhnaya,  S. R. Gwaltney,  G. Hawkins,  
 A. Heyden,  S. Hirata,  G. Kedziora,  F. J. Keil,  C. Kelley,  Jihan Kim,  
 R. A. King,  R. Z. Khaliullin,  P. P. Korambath,  W. Kurlancheek,  
 A. M. Lee,  M. S. Lee,  S. V. Levchenko,  Ching Yeh Lin,  D. Liotard,  
 R. C. Lochan,  I. Lotan,  P. E. Maslen,  N. Nair,  D. P. O'Neill,  
 D. Neuhauser,  E. Neuscamman,  C. M. Oana,  R. Olson,  B. Peters,  
 R. Peverati,  P. A. Pieniazek,  Y. M. Rhee,  J. Ritchie,  M. A. Rohrdanz,  
 E. Rosta,  N. J. Russ,  H. F. Schaefer III,  N. E. Schultz,  N. Shenvi,  
 A. C. Simmonett,  A. Sodt,  D. Stuck,  K. S. Thanthiriwatte,  V. Vanovschi,  
 Tao Wang,  A. Warshel,  C. F. Williams,  Q. Wu,  X. Xu,  W. Zhang

 Please cite Q-Chem as follows:
 Y. Shao et al., Mol. Phys. 113, 184-215 (2015)
 DOI: 10.1080/00268976.2014.952696

 Q-Chem 5.0.1 for Intel X86 EM64T Linux

 Parts of Q-Chem use Armadillo 5.200.1 (Boston Tea Smuggler).
 http://arma.sourceforge.net/

 Q-Chem begins on Tue Oct 17 14:55:39 2017  

Host: r0105.ten.osc.edu
0

     Scratch files written to /tmp/pbstmp.1311784/2//
Processing $rem in /users/PAS0291/osu6415/.qchemrc.
molden_format             true

Checking the input file for inconsistencies... 	...done.

--------------------------------------------------------------
User input:
--------------------------------------------------------------
$molecule
0 1
  C      0.47559255     -2.40494178     -0.05708946
  C     -0.62665829     -1.96279316      0.97651312
  C     -0.91223990     -0.46757291      1.03262788
  C      1.17054702     -1.28408350     -0.81096169
  O     -2.18401404     -0.22177030      1.40203709
  O     -0.09969906      0.40353159      0.84508312
  O      2.32622548     -0.94943410     -0.20364801
  O      0.78255001     -0.79468958     -1.84156079
  C      3.00334942      0.19788922     -0.74684463
  C     -2.54712320      1.16653975      1.53474542
  C     -0.36426403     -3.31643950     -0.99850827
  C     -0.55904134     -4.68990634     -0.32674438
  C     -1.56159923     -4.31701259      0.80641531
  C     -1.82446931     -2.82374184      0.49997641
  O     -1.68178242     -2.74912145     -0.92396962
  H      1.24959476     -2.97054634      0.46226784
  H     -0.31837853     -2.23005637      1.99187123
  H      2.36119647      1.07561968     -0.66163015
  H     -2.40765952      1.68497153      0.58549731
  H     -0.02959688     -3.32225989     -2.03202606
  H     -1.00322839     -5.39167168     -1.03412937
  H      0.37386911     -5.12105521      0.04161139
  H     -2.48681583     -4.88923514      0.72646000
  H     -1.15612322     -4.47278496      1.80863594
  H     -2.79653006     -2.44344540      0.79568199
  H      3.90114620      0.31833212     -0.14432154
  H      3.26115425      0.03280103     -1.79403775
  H     -1.93900904      1.64685288      2.30258047
  H     -3.59650049      1.16332538      1.82064982
$end

$rem
sym_ignore      true
jobtype         ts
method          b3lyp
basis           6-311++G(d,p)
dft_d           d3_op
mem_total       62000
MEM_STATIC      4000
ao2mo_disk      350000
max_scf_cycles  200
geom_opt_max_cycles 1000
geom_opt_tol_displacement 1
GEOM_OPT_TOL_GRADIENT       1
GEOM_OPT_TOL_ENERGY         1
geom_opt_dmax    50
$end

--------------------------------------------------------------
 Adding empirical dispersion correction 
 ----------------------------------------------------------------
 Doing -D3(op) with
 s6 =   1.00000
 s8 =   0.78311
 a1 =   0.30000
 a2 =   4.25000
 n  =  10.00000
 -D3 energy without 3body term =     -0.0300942171 hartrees
 ----------------------------------------------------------------
             Standard Nuclear Orientation (Angstroms)
    I     Atom           X                Y                Z
 ----------------------------------------------------------------
    1      C       0.4755925500    -2.4049417800    -0.0570894600
    2      C      -0.6266582900    -1.9627931600     0.9765131200
    3      C      -0.9122399000    -0.4675729100     1.0326278800
    4      C       1.1705470200    -1.2840835000    -0.8109616900
    5      O      -2.1840140400    -0.2217703000     1.4020370900
    6      O      -0.0996990600     0.4035315900     0.8450831200
    7      O       2.3262254800    -0.9494341000    -0.2036480100
    8      O       0.7825500100    -0.7946895800    -1.8415607900
    9      C       3.0033494200     0.1978892200    -0.7468446300
   10      C      -2.5471232000     1.1665397500     1.5347454200
   11      C      -0.3642640300    -3.3164395000    -0.9985082700
   12      C      -0.5590413400    -4.6899063400    -0.3267443800
   13      C      -1.5615992300    -4.3170125900     0.8064153100
   14      C      -1.8244693100    -2.8237418400     0.4999764100
   15      O      -1.6817824200    -2.7491214500    -0.9239696200
   16      H       1.2495947600    -2.9705463400     0.4622678400
   17      H      -0.3183785300    -2.2300563700     1.9918712300
   18      H       2.3611964700     1.0756196800    -0.6616301500
   19      H      -2.4076595200     1.6849715300     0.5854973100
   20      H      -0.0295968800    -3.3222598900    -2.0320260600
   21      H      -1.0032283900    -5.3916716800    -1.0341293700
   22      H       0.3738691100    -5.1210552100     0.0416113900
   23      H      -2.4868158300    -4.8892351400     0.7264600000
   24      H      -1.1561232200    -4.4727849600     1.8086359400
   25      H      -2.7965300600    -2.4434454000     0.7956819900
   26      H       3.9011462000     0.3183321200    -0.1443215400
   27      H       3.2611542500     0.0328010300    -1.7940377500
   28      H      -1.9390090400     1.6468528800     2.3025804700
   29      H      -3.5965004900     1.1633253800     1.8206498200
 ----------------------------------------------------------------
 Nuclear Repulsion Energy =  1107.7213646733 hartrees
 There are       57 alpha and       57 beta electrons
 Requested basis set is 6-311++G(d,p)
 There are 160 shells and 428 basis functions

 Total QAlloc Memory Limit  62000 MB
 Mega-Array Size      3911 MB
 MEM_STATIC part      4000 MB
 A cutoff of  1.0D-11 yielded  10487 shell pairs
 There are     76609 function pairs (     81752 Cartesian)
 
 -------------------------------------------------------
 OpenMP Integral Computing Module                       
 Release: version 1.0, May 2013, Q-Chem Inc. Pittsburgh 
 -------------------------------------------------------
 Integral Job Info:
 Integral job number is                      11
 Integral operator is                         1
 short-range coefficients                     0
 long-range coefficients              100000000
 Omega coefficients                           0
 if combine SR and LR in K                    0
 Integral screening is                        0
 Integral computing path is                   2
 max size of driver memory is            800000
 size of driver memory is                593474
 size of scratch memory is              2361544
 max col of scratch BK array               1296
 max len of scratch array in speh3          155
 max len of scratch index in speh4           18
 max int batch size is                      520
 min int batch size is                       52
 fixed nKL is                                52
 max L of basis functions is                  2
 order of int derivative is                   0
 number of shells is                        160
 number of basis is                         443
 number of cartesian basis is               443
 number of contracted shell pairs         10487
 number of primitive shell pairs          23815
 maxK2 (contraction) of shell pair           36
 max number of K2 of shell pair               1
 max number of CS2 of shell pair           1945
 max number of PS2 of shell pair           3426
 mem total for path MDJ                  139842
 -------------------------------------------------------
 Smallest overlap matrix eigenvalue = 8.57E-07

 Q-Chem warning in module /fs/scratch/osu6415/qchem-kaunlao-vdw/stvman/mkSTV.C, line 281:

 Overlap eigenvalue is smaller than square root of threshold

 Linear dependence detected in AO basis
 Number of orthogonalized atomic orbitals = 427
 Maximum deviation from orthogonality = 7.482E-11

 Scale SEOQF with 1.000000e-01/1.000000e-02/1.000000e-01

 Standard Electronic Orientation quadrupole field applied
 Nucleus-field energy     =     0.0000000027 hartrees
 Guess from superposition of atomic densities
 Warning:  Energy on first SCF cycle will be non-variational
 A restricted hybrid HF-DFT SCF calculation will be
 performed using Pulay DIIS extrapolation
 Exchange:     0.2000 Hartree-Fock + 0.0800 Slater + 0.7200 B88
 Correlation:  0.1900 VWN1RPA + 0.8100 LYP
 Using SG-1 standard quadrature grid
 Dispersion:   Grimme D3
 SCF converges when DIIS error is below 1.0E-08
 using 20 threads for integral computing
 -------------------------------------------------------
 OpenMP Integral computing Module                
 Release: version 1.0, May 2013, Q-Chem Inc. Pittsburgh 
 -------------------------------------------------------
 -------------------------------------------------------
 OpenMP BLAS3 based DFT computing Module                
 Release: version 1.0, May 2013, Q-Chem Inc. Pittsburgh 
 -------------------------------------------------------
 ---------------------------------------
  Cycle       Energy         DIIS Error
 ---------------------------------------
    1    -768.9253906609      3.08E-02
    2    -765.5740329088      3.93E-03
    3    -765.0740359685      6.77E-03
    4    -765.8240322943      1.41E-03
    5    -765.8576844361      4.36E-04
    6    -765.8604893516      1.36E-04
    7    -765.8607823499      4.49E-05
    8    -765.8608169538      9.92E-06
    9    -765.8608188483      2.33E-06
   10    -765.8608189346      1.08E-06
   11    -765.8608189516      3.63E-07
   12    -765.8608189535      1.62E-07
   13    -765.8608189537      4.43E-08
   14    -765.8608189533      1.56E-08
   15    -765.8608189557      3.55E-09 Convergence criterion met
 ---------------------------------------
 SCF time:  CPU 717.54 s  wall 37.17 s
 SCF   energy in the final basis set = -765.86081896
 Total energy in the final basis set = -765.86081896
 
 --------------------------------------------------------------
 
                    Orbital Energies (a.u.)
 --------------------------------------------------------------
 
 Alpha MOs
 -- Occupied --
-19.180 -19.163 -19.130 -19.122 -19.106 -10.313 -10.298 -10.233
-10.232 -10.230 -10.217 -10.211 -10.201 -10.181 -10.179  -1.122
 -1.105  -1.062  -1.034  -1.018  -0.829  -0.784  -0.775  -0.736
 -0.723  -0.653  -0.604  -0.595  -0.578  -0.559  -0.544  -0.521
 -0.500  -0.491  -0.487  -0.487  -0.476  -0.467  -0.458  -0.433
 -0.422  -0.416  -0.405  -0.399  -0.380  -0.371  -0.368  -0.365
 -0.359  -0.356  -0.338  -0.335  -0.321  -0.304  -0.290  -0.276
 -0.273
 -- Virtual --
 -0.021  -0.008  -0.003   0.001   0.003   0.013   0.015   0.023
  0.027   0.033   0.037   0.039   0.045   0.049   0.053   0.059
  0.064   0.075   0.076   0.085   0.090   0.098   0.099   0.104
  0.105   0.108   0.112   0.116   0.117   0.119   0.125   0.128
  0.132   0.135   0.137   0.137   0.142   0.145   0.150   0.151
  0.154   0.156   0.162   0.166   0.167   0.172   0.173   0.177
  0.180   0.186   0.186   0.191   0.193   0.202   0.205   0.211
  0.215   0.220   0.224   0.231   0.239   0.243   0.248   0.253
  0.261   0.266   0.272   0.273   0.284   0.287   0.290   0.291
  0.297   0.302   0.308   0.315   0.321   0.323   0.325   0.330
  0.335   0.341   0.349   0.353   0.357   0.361   0.365   0.368
  0.369   0.375   0.378   0.384   0.388   0.392   0.397   0.406
  0.413   0.416   0.425   0.433   0.457   0.459   0.471   0.477
  0.494   0.500   0.506   0.510   0.527   0.547   0.557   0.559
  0.568   0.577   0.594   0.599   0.610   0.617   0.632   0.636
  0.641   0.643   0.654   0.663   0.666   0.669   0.676   0.683
  0.688   0.699   0.703   0.714   0.725   0.727   0.729   0.745
  0.753   0.761   0.763   0.767   0.774   0.789   0.796   0.801
  0.813   0.831   0.862   0.867   0.904   0.919   0.940   0.981
  0.990   0.996   1.020   1.024   1.049   1.059   1.066   1.085
  1.100   1.116   1.161   1.172   1.181   1.188   1.194   1.206
  1.217   1.226   1.240   1.249   1.264   1.283   1.312   1.316
  1.317   1.329   1.356   1.365   1.371   1.385   1.394   1.420
  1.424   1.439   1.448   1.452   1.459   1.483   1.495   1.510
  1.528   1.542   1.548   1.555   1.566   1.569   1.576   1.579
  1.593   1.605   1.613   1.629   1.647   1.666   1.675   1.694
  1.698   1.712   1.715   1.718   1.725   1.735   1.750   1.761
  1.777   1.793   1.806   1.810   1.823   1.843   1.850   1.860
  1.873   1.886   1.896   1.916   1.922   1.936   1.943   1.983
  1.992   2.000   2.023   2.036   2.049   2.064   2.098   2.109
  2.122   2.130   2.144   2.150   2.169   2.189   2.192   2.206
  2.227   2.238   2.287   2.307   2.323   2.377   2.421   2.444
  2.457   2.464   2.474   2.499   2.505   2.509   2.518   2.527
  2.530   2.553   2.558   2.569   2.591   2.630   2.654   2.657
  2.667   2.693   2.724   2.731   2.744   2.777   2.795   2.823
  2.829   2.840   2.856   2.868   2.874   2.890   2.906   2.917
  2.931   2.959   2.980   2.996   3.007   3.033   3.038   3.055
  3.072   3.088   3.103   3.104   3.112   3.137   3.148   3.174
  3.202   3.219   3.229   3.246   3.263   3.292   3.317   3.351
  3.390   3.401   3.407   3.447   3.602   3.608   3.640   3.675
  3.724   3.772   3.792   3.838   3.854   3.889   3.938   3.992
  4.025   4.050   4.076   4.096   4.122   4.135   4.152   4.177
  4.211   4.249   4.390   4.501   5.032   5.050   5.102   5.133
  5.197   5.276   5.298   5.362   5.416   5.492   5.592   5.625
  5.655   5.885   5.890  23.830  23.835  23.840  23.872  23.891
 23.923  23.935  23.947  23.964  24.051  49.895  49.926  49.962
 50.023  50.036
 --------------------------------------------------------------
 
          Ground-State Mulliken Net Atomic Charges

     Atom                 Charge (a.u.)
  ----------------------------------------
      1 C                     0.212541
      2 C                    -0.062449
      3 C                    -0.838285
      4 C                    -0.268159
      5 O                    -0.058254
      6 O                    -0.189968
      7 O                    -0.017922
      8 O                    -0.209385
      9 C                    -0.180914
     10 C                    -0.258106
     11 C                    -0.109917
     12 C                    -0.631613
     13 C                    -0.341999
     14 C                     0.354239
     15 O                    -0.127639
     16 H                     0.298086
     17 H                     0.212130
     18 H                     0.186574
     19 H                     0.192889
     20 H                     0.279765
     21 H                     0.190465
     22 H                     0.117171
     23 H                     0.179646
     24 H                     0.132243
     25 H                     0.305879
     26 H                     0.149208
     27 H                     0.162762
     28 H                     0.174908
     29 H                     0.146107
  ----------------------------------------
  Sum of atomic charges =    -0.000000

 -----------------------------------------------------------------
                    Cartesian Multipole Moments
 -----------------------------------------------------------------
    Charge (ESU x 10^10)
                -0.0000
    Dipole Moment (Debye)
         X      -0.0432      Y      -1.2318      Z       3.1174
       Tot       3.3522
    Quadrupole Moments (Debye-Ang)
        XX     -81.8201     XY      -2.9087     YY     -76.0968
        XZ      -6.9067     YZ      -2.6768     ZZ     -91.2616
    Octopole Moments (Debye-Ang^2)
       XXX      86.3817    XXY     163.2063    XYY      22.3418
       YYY     390.0972    XXZ      -3.1339    XYZ       2.4653
       YYZ      -3.4661    XZZ      26.7504    YZZ     145.6174
       ZZZ     -11.8196
    Hexadecapole Moments (Debye-Ang^3)
      XXXX   -1476.3082   XXXY    -267.0040   XXYY    -791.2905
      XYYY    -253.3552   YYYY   -3076.2316   XXXZ     213.9544
      XXYZ     -26.9272   XYYZ      65.2862   YYYZ     -60.2684
      XXZZ    -372.4569   XYZZ    -108.3122   YYZZ    -629.6054
      XZZZ     265.7390   YZZZ     -68.8355   ZZZZ    -673.2973
 -----------------------------------------------------------------
 Calculating analytic gradient of the SCF energy
 Gradient of SCF Energy
            1           2           3           4           5           6
    1   0.0000449  -0.0000212  -0.0000715   0.0000583   0.0000727  -0.0000046
    2  -0.0000403  -0.0000270  -0.0000035  -0.0000446   0.0000193   0.0000451
    3  -0.0000506  -0.0000708   0.0000175   0.0000055   0.0000145  -0.0000107
            7           8           9          10          11          12
    1  -0.0000693  -0.0000156   0.0000523  -0.0000078  -0.0000263   0.0000446
    2   0.0000233   0.0000054  -0.0000069   0.0000288   0.0000167  -0.0000330
    3   0.0000297  -0.0000197  -0.0000312   0.0000086   0.0000824   0.0000322
           13          14          15          16          17          18
    1   0.0000203   0.0000040  -0.0000760   0.0000118  -0.0000256  -0.0000026
    2   0.0000151  -0.0000857   0.0001748  -0.0000181  -0.0000250   0.0000107
    3  -0.0000162   0.0000267   0.0000148  -0.0000054  -0.0000323   0.0000250
           19          20          21          22          23          24
    1   0.0000043   0.0000004   0.0000074   0.0000145  -0.0000040  -0.0000070
    2  -0.0000038   0.0000027   0.0000102  -0.0000132  -0.0000143  -0.0000272
    3   0.0000102  -0.0000003  -0.0000048   0.0000128  -0.0000309  -0.0000106
           25          26          27          28          29
    1   0.0000149   0.0000055  -0.0000255  -0.0000012   0.0000024
    2  -0.0000024  -0.0000083   0.0000103  -0.0000073  -0.0000017
    3  -0.0000184  -0.0000043   0.0000084   0.0000102   0.0000079
 Max gradient component =       1.748E-04
 RMS gradient           =       3.531E-05
 Gradient time:  CPU 234.31 s  wall 17.27 s
 Geometry Optimization Parameters
   NAtoms,    NIC,     NZ,  NCons,   NDum,   NFix, NCnnct, MaxDiis
       29     227       0       0       0       0       0       0


** GEOMETRY OPTIMIZATION IN DELOCALIZED INTERNAL COORDINATES **
   Searching for a Transition State

   Optimization Cycle:   1

                       Coordinates (Angstroms)
     ATOM                X               Y               Z
      1  C         0.4755925500   -2.4049417800   -0.0570894600
      2  C        -0.6266582900   -1.9627931600    0.9765131200
      3  C        -0.9122399000   -0.4675729100    1.0326278800
      4  C         1.1705470200   -1.2840835000   -0.8109616900
      5  O        -2.1840140400   -0.2217703000    1.4020370900
      6  O        -0.0996990600    0.4035315900    0.8450831200
      7  O         2.3262254800   -0.9494341000   -0.2036480100
      8  O         0.7825500100   -0.7946895800   -1.8415607900
      9  C         3.0033494200    0.1978892200   -0.7468446300
     10  C        -2.5471232000    1.1665397500    1.5347454200
     11  C        -0.3642640300   -3.3164395000   -0.9985082700
     12  C        -0.5590413400   -4.6899063400   -0.3267443800
     13  C        -1.5615992300   -4.3170125900    0.8064153100
     14  C        -1.8244693100   -2.8237418400    0.4999764100
     15  O        -1.6817824200   -2.7491214500   -0.9239696200
     16  H         1.2495947600   -2.9705463400    0.4622678400
     17  H        -0.3183785300   -2.2300563700    1.9918712300
     18  H         2.3611964700    1.0756196800   -0.6616301500
     19  H        -2.4076595200    1.6849715300    0.5854973100
     20  H        -0.0295968800   -3.3222598900   -2.0320260600
     21  H        -1.0032283900   -5.3916716800   -1.0341293700
     22  H         0.3738691100   -5.1210552100    0.0416113900
     23  H        -2.4868158300   -4.8892351400    0.7264600000
     24  H        -1.1561232200   -4.4727849600    1.8086359400
     25  H        -2.7965300600   -2.4434454000    0.7956819900
     26  H         3.9011462000    0.3183321200   -0.1443215400
     27  H         3.2611542500    0.0328010300   -1.7940377500
     28  H        -1.9390090400    1.6468528800    2.3025804700
     29  H        -3.5965004900    1.1633253800    1.8206498200
   Point Group: c1    Number of degrees of freedom:    81


   Energy is   -765.860818956


 Attempting to Generate Delocalized Internal Coordinates

 81 Hessian modes will be used to form the next step
  Hessian Eigenvalues:
     0.003225    0.006099    0.006655    0.007315    0.010204    0.010233
     0.010524    0.010647    0.022019    0.022558    0.022662    0.026487
     0.030644    0.036520    0.040087    0.040709    0.046188    0.049086
     0.051479    0.053960    0.055254    0.056278    0.058948    0.062596
     0.064316    0.065003    0.074325    0.075256    0.092937    0.093947
     0.097423    0.101362    0.101699    0.106076    0.106220    0.113551
     0.123335    0.158474    0.160000    0.160000    0.160000    0.160000
     0.160000    0.160000    0.167627    0.234688    0.238294    0.248554
     0.249664    0.249770    0.250000    0.250000    0.250000    0.250000
     0.258448    0.272935    0.281073    0.300526    0.304552    0.336653
     0.343243    0.345480    0.346123    0.346947    0.347032    0.347082
     0.347104    0.347197    0.347495    0.347798    0.348044    0.350536
     0.350877    0.352358    0.354108    0.394304    0.397618    0.555042
     0.556740    1.019087    1.023185
**WARNING** Hessian does not have the Desired Local Structure

 Transition State Search - Taking P-RFO Step
 Searching for Lamda that Maximizes Along the Lowest mode
 Value Taken    Lamda =   0.00322472
 Searching for Lamda that Minimizes Along All other modes
 Value Taken    Lamda =  -0.00000131
 Calculated Step too Large.  Step scaled by  0.000153
 Step Taken.  Stepsize is  0.050000

                             Maximum     Tolerance    Cnvgd?
         Gradient           0.000088      0.000001      NO
         Displacement       0.023149      0.000001      NO
         Energy change     *********      0.000000      NO


 New Cartesian Coordinates Obtained by Inverse Iteration

 Displacement from previous Coordinates is:  0.107760
 Adding empirical dispersion correction 
 ----------------------------------------------------------------
 Doing -D3(op) with
 s6 =   1.00000
 s8 =   0.78311
 a1 =   0.30000
 a2 =   4.25000
 n  =  10.00000
 -D3 energy without 3body term =     -0.0300964473 hartrees
 ----------------------------------------------------------------
             Standard Nuclear Orientation (Angstroms)
    I     Atom           X                Y                Z
 ----------------------------------------------------------------
    1      C       0.4779169838    -2.4060762393    -0.0571714220
    2      C      -0.6265687521    -1.9653162217     0.9746774280
    3      C      -0.9087989014    -0.4696544541     1.0357614930
    4      C       1.1694552196    -1.2844237219    -0.8130013288
    5      O      -2.1809640314    -0.2222775931     1.4027657688
    6      O      -0.0937310091     0.4002487403     0.8536860667
    7      O       2.3237088860    -0.9446459587    -0.2058255854
    8      O       0.7803071342    -0.7984424181    -1.8447806315
    9      C       2.9972265205     0.2038410224    -0.7510428242
   10      C      -2.5411732900     1.1663646409     1.5398299107
   11      C      -0.3585759508    -3.3218172051    -0.9971754857
   12      C      -0.5572120989    -4.6919915522    -0.3193938956
   13      C      -1.5707197308    -4.3155548113     0.8027966604
   14      C      -1.8254434055    -2.8218953932     0.4924135176
   15      O      -1.6752626950    -2.7516138096    -0.9309974643
   16      H       1.2535501670    -2.9680247066     0.4637191819
   17      H      -0.3216355033    -2.2369975061     1.9898735346
   18      H       2.3520809370     1.0795756676    -0.6679243504
   19      H      -2.3979953831     1.6880892324     0.5929417750
   20      H      -0.0194333030    -3.3331443691    -2.0291875795
   21      H      -0.9934922934    -5.3986068886    -1.0268715409
   22      H       0.3732002139    -5.1192292349     0.0596814350
   23      H      -2.4968651255    -4.8847996574     0.7129508746
   24      H      -1.1766976011    -4.4721335220     1.8094503684
   25      H      -2.7975275004    -2.4370302221     0.7820695136
   26      H       3.8943232634     0.3285359566    -0.1483420429
   27      H       3.2560885488     0.0374862478    -1.7977746034
   28      H      -1.9339635302     1.6423116006     2.3110918632
   29      H      -3.5913052792     1.1645235166     1.8229619831
 ----------------------------------------------------------------
 Nuclear Repulsion Energy =  1107.7376409617 hartrees
 There are       57 alpha and       57 beta electrons
 Applying Cartesian multipole field
    Component          Value
    ---------          -----
     (2,0,0)        1.00000E-11
     (0,2,0)        2.00000E-12
     (0,0,2)       -3.00000E-11
 Nucleus-field energy     =     0.0000000026 hartrees
 Requested basis set is 6-311++G(d,p)
 There are 160 shells and 428 basis functions
 A cutoff of  1.0D-11 yielded  10489 shell pairs
 There are     76626 function pairs (     81769 Cartesian)
 Smallest overlap matrix eigenvalue = 8.57E-07

 Q-Chem warning in module /fs/scratch/osu6415/qchem-kaunlao-vdw/stvman/mkSTV.C, line 281:

 Overlap eigenvalue is smaller than square root of threshold

 Linear dependence detected in AO basis
 Number of orthogonalized atomic orbitals = 427
 Maximum deviation from orthogonality = 1.121E-10
 Guess MOs from SCF MO coefficient file
 Reading MOs from coefficient file
 Reading MOs from coefficient file
 A restricted hybrid HF-DFT SCF calculation will be
 performed using Pulay DIIS extrapolation
 Exchange:     0.2000 Hartree-Fock + 0.0800 Slater + 0.7200 B88
 Correlation:  0.1900 VWN1RPA + 0.8100 LYP
 Using SG-1 standard quadrature grid
 Dispersion:   Grimme D3
 SCF converges when DIIS error is below 1.0E-08
 Geometry optimization detected.  Setting ReadMinima to 0
 Setting SaveMinima to 0
 using 20 threads for integral computing
 -------------------------------------------------------
 OpenMP Integral computing Module                
 Release: version 1.0, May 2013, Q-Chem Inc. Pittsburgh 
 -------------------------------------------------------
 -------------------------------------------------------
 OpenMP BLAS3 based DFT computing Module                
 Release: version 1.0, May 2013, Q-Chem Inc. Pittsburgh 
 -------------------------------------------------------
 ---------------------------------------
  Cycle       Energy         DIIS Error
 ---------------------------------------
    1    -765.8615002543      1.51E-04
    2    -765.8608070877      1.71E-05
    3    -765.8608021884      2.58E-05
    4    -765.8608132966      6.08E-06
    5    -765.8608137560      2.64E-06
    6    -765.8608138641      7.74E-07
    7    -765.8608138727      2.96E-07
    8    -765.8608138743      6.04E-08
    9    -765.8608138739      3.08E-08
   10    -765.8608138703      9.19E-09 Convergence criterion met
 ---------------------------------------
 SCF time:  CPU 490.45 s  wall 26.58 s
 SCF   energy in the final basis set = -765.86081387
 Total energy in the final basis set = -765.86081387
 
 --------------------------------------------------------------
 
                    Orbital Energies (a.u.)
 --------------------------------------------------------------
 
 Alpha MOs
 -- Occupied --
-19.180 -19.163 -19.129 -19.122 -19.106 -10.313 -10.298 -10.233
-10.232 -10.230 -10.217 -10.211 -10.201 -10.181 -10.179  -1.122
 -1.105  -1.062  -1.034  -1.018  -0.829  -0.784  -0.775  -0.736
 -0.723  -0.653  -0.604  -0.595  -0.578  -0.559  -0.544  -0.521
 -0.500  -0.491  -0.487  -0.487  -0.476  -0.467  -0.458  -0.433
 -0.422  -0.416  -0.405  -0.399  -0.380  -0.371  -0.368  -0.365
 -0.359  -0.356  -0.338  -0.335  -0.321  -0.304  -0.290  -0.276
 -0.272
 -- Virtual --
 -0.021  -0.008  -0.003   0.001   0.003   0.013   0.015   0.023
  0.027   0.033   0.037   0.039   0.045   0.049   0.053   0.059
  0.065   0.075   0.076   0.085   0.090   0.098   0.099   0.104
  0.105   0.108   0.112   0.116   0.117   0.119   0.125   0.128
  0.132   0.135   0.136   0.137   0.142   0.144   0.150   0.151
  0.154   0.156   0.162   0.166   0.167   0.172   0.173   0.177
  0.180   0.186   0.186   0.191   0.193   0.202   0.206   0.211
  0.215   0.220   0.224   0.231   0.238   0.243   0.248   0.253
  0.261   0.266   0.271   0.273   0.283   0.288   0.290   0.291
  0.297   0.302   0.308   0.315   0.321   0.323   0.325   0.330
  0.335   0.341   0.349   0.353   0.358   0.361   0.365   0.368
  0.370   0.375   0.378   0.384   0.388   0.391   0.397   0.406
  0.413   0.416   0.425   0.433   0.457   0.460   0.471   0.477
  0.494   0.500   0.506   0.510   0.527   0.547   0.557   0.559
  0.568   0.577   0.594   0.599   0.610   0.617   0.632   0.636
  0.641   0.643   0.654   0.663   0.665   0.669   0.676   0.683
  0.688   0.699   0.702   0.714   0.725   0.727   0.729   0.745
  0.753   0.761   0.763   0.767   0.774   0.789   0.796   0.802
  0.813   0.831   0.862   0.867   0.904   0.919   0.941   0.981
  0.990   0.996   1.020   1.024   1.049   1.059   1.067   1.085
  1.100   1.116   1.162   1.172   1.180   1.188   1.194   1.206
  1.216   1.226   1.241   1.249   1.264   1.283   1.313   1.316
  1.318   1.329   1.355   1.364   1.371   1.385   1.394   1.420
  1.424   1.439   1.448   1.452   1.459   1.483   1.496   1.511
  1.528   1.542   1.548   1.555   1.566   1.569   1.576   1.579
  1.593   1.606   1.612   1.628   1.647   1.667   1.675   1.694
  1.697   1.712   1.714   1.717   1.725   1.735   1.750   1.762
  1.776   1.792   1.806   1.810   1.823   1.842   1.851   1.860
  1.873   1.886   1.896   1.916   1.922   1.936   1.944   1.983
  1.992   2.000   2.023   2.036   2.048   2.064   2.098   2.109
  2.122   2.131   2.143   2.151   2.169   2.189   2.192   2.206
  2.226   2.238   2.287   2.307   2.322   2.378   2.421   2.444
  2.457   2.464   2.474   2.499   2.506   2.508   2.518   2.528
  2.530   2.553   2.558   2.569   2.590   2.631   2.654   2.657
  2.667   2.693   2.724   2.731   2.744   2.777   2.796   2.822
  2.829   2.840   2.856   2.868   2.874   2.890   2.905   2.918
  2.931   2.960   2.981   2.996   3.007   3.033   3.039   3.055
  3.073   3.087   3.103   3.105   3.112   3.138   3.148   3.175
  3.201   3.219   3.229   3.246   3.263   3.290   3.317   3.350
  3.390   3.402   3.408   3.447   3.602   3.608   3.640   3.675
  3.724   3.772   3.792   3.838   3.854   3.889   3.938   3.992
  4.025   4.050   4.076   4.097   4.122   4.134   4.151   4.177
  4.211   4.249   4.390   4.501   5.032   5.050   5.102   5.134
  5.197   5.276   5.298   5.362   5.416   5.492   5.593   5.625
  5.655   5.885   5.890  23.830  23.835  23.840  23.872  23.891
 23.923  23.935  23.947  23.965  24.050  49.895  49.926  49.962
 50.022  50.036
 --------------------------------------------------------------
 
          Ground-State Mulliken Net Atomic Charges

     Atom                 Charge (a.u.)
  ----------------------------------------
      1 C                     0.214230
      2 C                    -0.064183
      3 C                    -0.837977
      4 C                    -0.267306
      5 O                    -0.058081
      6 O                    -0.190341
      7 O                    -0.017383
      8 O                    -0.209114
      9 C                    -0.181616
     10 C                    -0.258288
     11 C                    -0.110534
     12 C                    -0.626963
     13 C                    -0.344670
     14 C                     0.352836
     15 O                    -0.127514
     16 H                     0.298205
     17 H                     0.212272
     18 H                     0.186589
     19 H                     0.192847
     20 H                     0.279395
     21 H                     0.190268
     22 H                     0.117128
     23 H                     0.180031
     24 H                     0.131577
     25 H                     0.305517
     26 H                     0.149212
     27 H                     0.162669
     28 H                     0.174919
     29 H                     0.146273
  ----------------------------------------
  Sum of atomic charges =    -0.000000

 -----------------------------------------------------------------
                    Cartesian Multipole Moments
 -----------------------------------------------------------------
    Charge (ESU x 10^10)
                -0.0000
    Dipole Moment (Debye)
         X      -0.0529      Y      -1.2232      Z       3.1204
       Tot       3.3519
    Quadrupole Moments (Debye-Ang)
        XX     -81.8341     XY      -2.9044     YY     -76.0724
        XZ      -6.9357     YZ      -2.7168     ZZ     -91.3097
    Octopole Moments (Debye-Ang^2)
       XXX      86.0340    XXY     163.1474    XYY      22.3725
       YYY     390.1634    XXZ      -3.1786    XYZ       2.4425
       YYZ      -3.4101    XZZ      26.7504    YZZ     145.7774
       ZZZ     -11.5636
    Hexadecapole Moments (Debye-Ang^3)
      XXXX   -1473.2552   XXXY    -267.3465   XXYY    -790.9427
      XYYY    -254.4522   YYYY   -3078.0778   XXXZ     214.4674
      XXYZ     -26.9861   XYYZ      65.3147   YYYZ     -60.6744
      XXZZ    -372.1825   XYZZ    -108.8537   YYZZ    -630.3394
      XZZZ     265.5303   YZZZ     -69.7059   ZZZZ    -675.0468
 -----------------------------------------------------------------
 Calculating analytic gradient of the SCF energy
 Gradient of SCF Energy
            1           2           3           4           5           6
    1   0.0000011   0.0000843  -0.0001223  -0.0000387   0.0000830   0.0000524
    2   0.0001441  -0.0002050   0.0000320  -0.0000176  -0.0000012  -0.0000030
    3  -0.0001873   0.0001006  -0.0000121  -0.0000597   0.0000134   0.0000588
            7           8           9          10          11          12
    1  -0.0000998   0.0000190   0.0000685  -0.0000051  -0.0000681   0.0001733
    2   0.0000761  -0.0000934   0.0000189   0.0000222  -0.0002410   0.0000896
    3   0.0001287  -0.0000357  -0.0000400  -0.0000027  -0.0000117   0.0002128
           13          14          15          16          17          18
    1  -0.0001366   0.0001197  -0.0001137   0.0000024  -0.0000067  -0.0000075
    2  -0.0001026   0.0001265   0.0002373  -0.0000259  -0.0000456   0.0000130
    3  -0.0001373   0.0000389  -0.0000711  -0.0000066  -0.0000294   0.0000164
           19          20          21          22          23          24
    1   0.0000035   0.0000038   0.0000009   0.0000109   0.0000103  -0.0000157
    2  -0.0000049   0.0000284   0.0000302  -0.0000247  -0.0000191  -0.0000290
    3   0.0000111   0.0000104  -0.0000112   0.0000287  -0.0000227   0.0000049
           25          26          27          28          29
    1  -0.0000011   0.0000104  -0.0000291  -0.0000005   0.0000013
    2   0.0000059  -0.0000122   0.0000102  -0.0000070  -0.0000021
    3  -0.0000206  -0.0000065   0.0000098   0.0000121   0.0000081
 Max gradient component =       2.410E-04
 RMS gradient           =       7.673E-05
 Gradient time:  CPU 236.16 s  wall 16.83 s
 Geometry Optimization Parameters
   NAtoms,    NIC,     NZ,  NCons,   NDum,   NFix, NCnnct, MaxDiis
       29     227       0       0       0       0       0       0

 Cartesian Hessian Update
 Hessian Updated using Powell/Murtagh-Sargent Update
  Mixing factors:     0.000038 Powell
                      0.999962 Murtagh-Sargent


** GEOMETRY OPTIMIZATION IN DELOCALIZED INTERNAL COORDINATES **
   Searching for a Transition State

   Optimization Cycle:   2

                       Coordinates (Angstroms)
     ATOM                X               Y               Z
      1  C         0.4779169838   -2.4060762393   -0.0571714220
      2  C        -0.6265687521   -1.9653162217    0.9746774280
      3  C        -0.9087989014   -0.4696544541    1.0357614930
      4  C         1.1694552196   -1.2844237219   -0.8130013288
      5  O        -2.1809640314   -0.2222775931    1.4027657688
      6  O        -0.0937310091    0.4002487403    0.8536860667
      7  O         2.3237088860   -0.9446459587   -0.2058255854
      8  O         0.7803071342   -0.7984424181   -1.8447806315
      9  C         2.9972265205    0.2038410224   -0.7510428242
     10  C        -2.5411732900    1.1663646409    1.5398299107
     11  C        -0.3585759508   -3.3218172051   -0.9971754857
     12  C        -0.5572120989   -4.6919915522   -0.3193938956
     13  C        -1.5707197308   -4.3155548113    0.8027966604
     14  C        -1.8254434055   -2.8218953932    0.4924135176
     15  O        -1.6752626950   -2.7516138096   -0.9309974643
     16  H         1.2535501670   -2.9680247066    0.4637191819
     17  H        -0.3216355033   -2.2369975061    1.9898735346
     18  H         2.3520809370    1.0795756676   -0.6679243504
     19  H        -2.3979953831    1.6880892324    0.5929417750
     20  H        -0.0194333030   -3.3331443691   -2.0291875795
     21  H        -0.9934922934   -5.3986068886   -1.0268715409
     22  H         0.3732002139   -5.1192292349    0.0596814350
     23  H        -2.4968651255   -4.8847996574    0.7129508746
     24  H        -1.1766976011   -4.4721335220    1.8094503684
     25  H        -2.7975275004   -2.4370302221    0.7820695136
     26  H         3.8943232634    0.3285359566   -0.1483420429
     27  H         3.2560885488    0.0374862478   -1.7977746034
     28  H        -1.9339635302    1.6423116006    2.3110918632
     29  H        -3.5913052792    1.1645235166    1.8229619831
   Point Group: c1    Number of degrees of freedom:    81


   Energy is   -765.860813870

 Hessian Updated using Powell/Murtagh-Sargent Update
  Mixing factors:     0.983669 Powell
                      0.016331 Murtagh-Sargent

 81 Hessian modes will be used to form the next step
  Hessian Eigenvalues:
     0.000990    0.006160    0.007198    0.009284    0.010204    0.010484
     0.010524    0.010730    0.022021    0.022568    0.022670    0.026488
     0.030681    0.036631    0.040091    0.040711    0.046325    0.049090
     0.051481    0.053987    0.055361    0.056280    0.058974    0.062882
     0.064336    0.065022    0.074341    0.075315    0.092939    0.093950
     0.097441    0.101362    0.101701    0.106076    0.106221    0.113671
     0.123337    0.158476    0.160000    0.160000    0.160000    0.160000
     0.160000    0.160000    0.167656    0.234735    0.238298    0.248574
     0.249710    0.249803    0.250000    0.250000    0.250000    0.250095
     0.258497    0.272936    0.281075    0.300539    0.304558    0.336656
     0.343244    0.345482    0.346123    0.346947    0.347032    0.347082
     0.347104    0.347198    0.347495    0.347798    0.348091    0.350536
     0.350877    0.352359    0.354110    0.394305    0.397626    0.555050
     0.556743    1.019087    1.023194
**WARNING** Hessian does not have the Desired Local Structure

 Transition State Search - Taking P-RFO Step
 Searching for Lamda that Maximizes Along the Lowest mode
 Value Taken    Lamda =   0.00099409
 Searching for Lamda that Minimizes Along All other modes
 Value Taken    Lamda =  -0.00000948
 Calculated Step too Large.  Step scaled by  0.003161
 Step Taken.  Stepsize is  0.050000

                             Maximum     Tolerance    Cnvgd?
         Gradient           0.000166      0.000001      NO
         Displacement       0.025084      0.000001      NO
         Energy change      0.000005      0.000000      NO


 New Cartesian Coordinates Obtained by Inverse Iteration

 Displacement from previous Coordinates is:  0.086790
 Adding empirical dispersion correction 
 ----------------------------------------------------------------
 Doing -D3(op) with
 s6 =   1.00000
 s8 =   0.78311
 a1 =   0.30000
 a2 =   4.25000
 n  =  10.00000
 -D3 energy without 3body term =     -0.0300891214 hartrees
 ----------------------------------------------------------------
             Standard Nuclear Orientation (Angstroms)
    I     Atom           X                Y                Z
 ----------------------------------------------------------------
    1      C       0.4790953282    -2.4045764973    -0.0562372355
    2      C      -0.6282224713    -1.9655781040     0.9734351631
    3      C      -0.9100086333    -0.4699113988     1.0377921488
    4      C       1.1680109753    -1.2817036815    -0.8127278023
    5      O      -2.1819171866    -0.2229034401     1.4059847323
    6      O      -0.0955763437     0.4003778034     0.8547025961
    7      O       2.3268235922    -0.9465785073    -0.2117365639
    8      O       0.7738237966    -0.7918277948    -1.8407630367
    9      C       2.9994701790     0.2023755834    -0.7569480531
   10      C      -2.5419369896     1.1655964003     1.5450693975
   11      C      -0.3539206839    -3.3237712754    -0.9955865065
   12      C      -0.5535026771    -4.6918700162    -0.3134692997
   13      C      -1.5765977053    -4.3144882588     0.7997687868
   14      C      -1.8267262555    -2.8207753385     0.4870579368
   15      O      -1.6707607551    -2.7533571597    -0.9357814976
   16      H       1.2563198946    -2.9633080921     0.4657488381
   17      H      -0.3257845567    -2.2400994664     1.9885960352
   18      H       2.3568427707     1.0792283216    -0.6665055046
   19      H      -2.3992848712     1.6885428293     0.5987741529
   20      H      -0.0112969855    -3.3390082982    -2.0264103031
   21      H      -0.9811900557    -5.4037998126    -1.0208787675
   22      H       0.3757451327    -5.1133265431     0.0747947041
   23      H      -2.5028089695    -4.8820380299     0.7002416413
   24      H      -1.1927688525    -4.4725364207     1.8101070246
   25      H      -2.7992309103    -2.4335199462     0.7720050868
   26      H       3.9005688971     0.3228539111    -0.1593827382
   27      H       3.2514436017     0.0393365817    -1.8058807714
   28      H      -1.9342206944     1.6404916418     2.3165775460
   29      H      -3.5918960808     1.1634761490     1.8288349098
 ----------------------------------------------------------------
 Nuclear Repulsion Energy =  1107.6260983818 hartrees
 There are       57 alpha and       57 beta electrons
 Applying Cartesian multipole field
    Component          Value
    ---------          -----
     (2,0,0)        1.00000E-11
     (0,2,0)        2.00000E-12
     (0,0,2)       -3.00000E-11
 Nucleus-field energy     =     0.0000000026 hartrees
 Requested basis set is 6-311++G(d,p)
 There are 160 shells and 428 basis functions
 A cutoff of  1.0D-11 yielded  10484 shell pairs
 There are     76584 function pairs (     81727 Cartesian)
 Smallest overlap matrix eigenvalue = 8.56E-07

 Q-Chem warning in module /fs/scratch/osu6415/qchem-kaunlao-vdw/stvman/mkSTV.C, line 281:

 Overlap eigenvalue is smaller than square root of threshold

 Linear dependence detected in AO basis
 Number of orthogonalized atomic orbitals = 427
 Maximum deviation from orthogonality = 5.815E-11
 Guess MOs from SCF MO coefficient file
 Reading MOs from coefficient file
 Reading MOs from coefficient file
 A restricted hybrid HF-DFT SCF calculation will be
 performed using Pulay DIIS extrapolation
 Exchange:     0.2000 Hartree-Fock + 0.0800 Slater + 0.7200 B88
 Correlation:  0.1900 VWN1RPA + 0.8100 LYP
 Using SG-1 standard quadrature grid
 Dispersion:   Grimme D3
 SCF converges when DIIS error is below 1.0E-08
 Geometry optimization detected.  Setting ReadMinima to 0
 Setting SaveMinima to 0
 using 20 threads for integral computing
 -------------------------------------------------------
 OpenMP Integral computing Module                
 Release: version 1.0, May 2013, Q-Chem Inc. Pittsburgh 
 -------------------------------------------------------
 -------------------------------------------------------
 OpenMP BLAS3 based DFT computing Module                
 Release: version 1.0, May 2013, Q-Chem Inc. Pittsburgh 
 -------------------------------------------------------
 ---------------------------------------
  Cycle       Energy         DIIS Error
 ---------------------------------------
    1    -765.8614901140      1.25E-04
    2    -765.8608039871      1.12E-05
    3    -765.8608034037      1.50E-05
    4    -765.8608068807      5.11E-06
    5    -765.8608072490      1.67E-06
    6    -765.8608072957      5.19E-07
    7    -765.8608072995      2.34E-07
    8    -765.8608073007      3.97E-08
    9    -765.8608072998      2.02E-08
   10    -765.8608072974      8.19E-09 Convergence criterion met
 ---------------------------------------
 SCF time:  CPU 478.13 s  wall 24.84 s
 SCF   energy in the final basis set = -765.86080730
 Total energy in the final basis set = -765.86080730
 
 --------------------------------------------------------------
 
                    Orbital Energies (a.u.)
 --------------------------------------------------------------
 
 Alpha MOs
 -- Occupied --
-19.180 -19.163 -19.129 -19.122 -19.106 -10.313 -10.298 -10.233
-10.232 -10.231 -10.217 -10.211 -10.201 -10.181 -10.179  -1.122
 -1.105  -1.062  -1.034  -1.018  -0.829  -0.784  -0.776  -0.736
 -0.723  -0.653  -0.604  -0.595  -0.578  -0.559  -0.544  -0.521
 -0.500  -0.491  -0.487  -0.487  -0.476  -0.467  -0.458  -0.433
 -0.422  -0.416  -0.405  -0.399  -0.380  -0.371  -0.368  -0.365
 -0.359  -0.356  -0.338  -0.335  -0.321  -0.304  -0.290  -0.276
 -0.272
 -- Virtual --
 -0.021  -0.008  -0.003   0.001   0.003   0.013   0.015   0.023
  0.027   0.033   0.037   0.039   0.045   0.049   0.053   0.059
  0.065   0.075   0.076   0.085   0.090   0.098   0.099   0.104
  0.105   0.108   0.112   0.116   0.117   0.119   0.125   0.128
  0.132   0.135   0.136   0.137   0.142   0.144   0.150   0.151
  0.154   0.156   0.162   0.166   0.167   0.172   0.173   0.177
  0.180   0.186   0.187   0.191   0.193   0.202   0.206   0.211
  0.215   0.220   0.224   0.231   0.238   0.243   0.248   0.252
  0.261   0.266   0.271   0.273   0.283   0.288   0.290   0.291
  0.297   0.302   0.308   0.315   0.321   0.323   0.325   0.330
  0.335   0.342   0.349   0.353   0.358   0.361   0.365   0.368
  0.370   0.374   0.378   0.385   0.388   0.391   0.397   0.405
  0.413   0.416   0.425   0.433   0.457   0.460   0.471   0.477
  0.494   0.500   0.506   0.511   0.527   0.547   0.557   0.559
  0.567   0.577   0.594   0.599   0.610   0.616   0.632   0.635
  0.641   0.643   0.654   0.663   0.665   0.669   0.676   0.682
  0.688   0.700   0.703   0.714   0.725   0.728   0.729   0.745
  0.752   0.761   0.763   0.767   0.774   0.789   0.796   0.802
  0.813   0.831   0.863   0.868   0.905   0.919   0.941   0.980
  0.989   0.995   1.020   1.024   1.048   1.059   1.066   1.085
  1.101   1.116   1.162   1.173   1.181   1.188   1.194   1.207
  1.216   1.225   1.241   1.249   1.264   1.282   1.312   1.316
  1.320   1.329   1.355   1.364   1.371   1.385   1.394   1.420
  1.424   1.439   1.447   1.452   1.459   1.482   1.497   1.512
  1.527   1.543   1.547   1.554   1.566   1.568   1.576   1.579
  1.593   1.606   1.611   1.629   1.647   1.666   1.675   1.694
  1.697   1.712   1.714   1.717   1.725   1.735   1.751   1.762
  1.777   1.792   1.806   1.809   1.823   1.841   1.851   1.860
  1.873   1.886   1.896   1.916   1.923   1.935   1.945   1.983
  1.993   2.000   2.023   2.035   2.048   2.064   2.097   2.109
  2.122   2.132   2.142   2.152   2.168   2.189   2.192   2.205
  2.226   2.238   2.288   2.306   2.322   2.378   2.421   2.444
  2.457   2.464   2.473   2.499   2.506   2.508   2.518   2.528
  2.530   2.553   2.558   2.568   2.590   2.631   2.654   2.657
  2.667   2.693   2.724   2.731   2.744   2.777   2.797   2.822
  2.828   2.840   2.856   2.868   2.874   2.889   2.905   2.918
  2.931   2.960   2.981   2.996   3.007   3.033   3.039   3.056
  3.072   3.086   3.102   3.105   3.112   3.139   3.148   3.175
  3.200   3.219   3.228   3.246   3.263   3.288   3.317   3.350
  3.390   3.401   3.408   3.447   3.602   3.608   3.640   3.674
  3.724   3.772   3.792   3.837   3.854   3.889   3.938   3.992
  4.025   4.050   4.076   4.098   4.121   4.134   4.151   4.177
  4.210   4.249   4.390   4.501   5.032   5.050   5.103   5.134
  5.197   5.276   5.298   5.362   5.415   5.492   5.593   5.624
  5.655   5.885   5.890  23.830  23.835  23.840  23.872  23.891
 23.923  23.935  23.947  23.965  24.050  49.895  49.926  49.961
 50.022  50.036
 --------------------------------------------------------------
 
          Ground-State Mulliken Net Atomic Charges

     Atom                 Charge (a.u.)
  ----------------------------------------
      1 C                     0.215627
      2 C                    -0.066317
      3 C                    -0.838750
      4 C                    -0.267621
      5 O                    -0.057882
      6 O                    -0.190105
      7 O                    -0.017359
      8 O                    -0.209296
      9 C                    -0.181841
     10 C                    -0.258030
     11 C                    -0.108785
     12 C                    -0.622137
     13 C                    -0.348771
     14 C                     0.352606
     15 O                    -0.127186
     16 H                     0.298593
     17 H                     0.212172
     18 H                     0.186446
     19 H                     0.192943
     20 H                     0.278963
     21 H                     0.190128
     22 H                     0.116889
     23 H                     0.180367
     24 H                     0.131235
     25 H                     0.305084
     26 H                     0.149162
     27 H                     0.162728
     28 H                     0.174829
     29 H                     0.146307
  ----------------------------------------
  Sum of atomic charges =    -0.000000

 -----------------------------------------------------------------
                    Cartesian Multipole Moments
 -----------------------------------------------------------------
    Charge (ESU x 10^10)
                -0.0000
    Dipole Moment (Debye)
         X      -0.0500      Y      -1.2282      Z       3.1215
       Tot       3.3548
    Quadrupole Moments (Debye-Ang)
        XX     -81.7948     XY      -2.8977     YY     -76.0818
        XZ      -6.9767     YZ      -2.7026     ZZ     -91.2886
    Octopole Moments (Debye-Ang^2)
       XXX      85.9686    XXY     163.1184    XYY      22.3647
       YYY     390.1292    XXZ      -3.2558    XYZ       2.4384
       YYZ      -3.4070    XZZ      26.9001    YZZ     145.7629
       ZZZ     -11.5823
    Hexadecapole Moments (Debye-Ang^3)
      XXXX   -1474.1382   XXXY    -266.9327   XXYY    -791.2355
      XYYY    -254.2712   YYYY   -3077.4053   XXXZ     215.4119
      XXYZ     -26.8830   XYYZ      65.5626   YYYZ     -60.5504
      XXZZ    -372.4311   XYZZ    -109.1550   YYZZ    -630.2924
      XZZZ     265.9481   YZZZ     -69.6825   ZZZZ    -675.3472
 -----------------------------------------------------------------
 Calculating analytic gradient of the SCF energy
 Gradient of SCF Energy
            1           2           3           4           5           6
    1  -0.0000171   0.0000566  -0.0001090   0.0001172   0.0000704  -0.0000605
    2   0.0000521  -0.0002232   0.0000176   0.0000526   0.0000467   0.0000653
    3  -0.0003308   0.0000134   0.0003482   0.0001890  -0.0000797  -0.0001175
            7           8           9          10          11          12
    1  -0.0001121  -0.0000236   0.0000521  -0.0000064  -0.0000518   0.0001631
    2  -0.0000245  -0.0000536   0.0000160   0.0000208  -0.0002887   0.0001646
    3  -0.0000218  -0.0000781  -0.0000177   0.0000065   0.0000260   0.0002386
           13          14          15          16          17          18
    1  -0.0001730   0.0001410  -0.0001661   0.0000846   0.0000142  -0.0000006
    2  -0.0001481   0.0001549   0.0002598  -0.0000130  -0.0000602   0.0000012
    3  -0.0001536   0.0000766  -0.0000343  -0.0000489  -0.0000681   0.0000314
           19          20          21          22          23          24
    1   0.0000019   0.0000161   0.0000318   0.0000078   0.0000226  -0.0000527
    2  -0.0000038   0.0000166  -0.0000012   0.0000095  -0.0000131  -0.0000572
    3   0.0000108   0.0000286  -0.0000202   0.0000483  -0.0000591   0.0000289
           25          26          27          28          29
    1   0.0000128  -0.0000007  -0.0000195  -0.0000003   0.0000013
    2   0.0000201  -0.0000104   0.0000070  -0.0000080   0.0000004
    3  -0.0000412  -0.0000010   0.0000101   0.0000113   0.0000044
 Max gradient component =       3.482E-04
 RMS gradient           =       1.001E-04
 Gradient time:  CPU 236.68 s  wall 17.11 s
 Geometry Optimization Parameters
   NAtoms,    NIC,     NZ,  NCons,   NDum,   NFix, NCnnct, MaxDiis
       29     227       0       0       0       0       0       0

 Cartesian Hessian Update
 Hessian Updated using Powell/Murtagh-Sargent Update
  Mixing factors:     0.446612 Powell
                      0.553388 Murtagh-Sargent


** GEOMETRY OPTIMIZATION IN DELOCALIZED INTERNAL COORDINATES **
   Searching for a Transition State

   Optimization Cycle:   3

                       Coordinates (Angstroms)
     ATOM                X               Y               Z
      1  C         0.4790953282   -2.4045764973   -0.0562372355
      2  C        -0.6282224713   -1.9655781040    0.9734351631
      3  C        -0.9100086333   -0.4699113988    1.0377921488
      4  C         1.1680109753   -1.2817036815   -0.8127278023
      5  O        -2.1819171866   -0.2229034401    1.4059847323
      6  O        -0.0955763437    0.4003778034    0.8547025961
      7  O         2.3268235922   -0.9465785073   -0.2117365639
      8  O         0.7738237966   -0.7918277948   -1.8407630367
      9  C         2.9994701790    0.2023755834   -0.7569480531
     10  C        -2.5419369896    1.1655964003    1.5450693975
     11  C        -0.3539206839   -3.3237712754   -0.9955865065
     12  C        -0.5535026771   -4.6918700162   -0.3134692997
     13  C        -1.5765977053   -4.3144882588    0.7997687868
     14  C        -1.8267262555   -2.8207753385    0.4870579368
     15  O        -1.6707607551   -2.7533571597   -0.9357814976
     16  H         1.2563198946   -2.9633080921    0.4657488381
     17  H        -0.3257845567   -2.2400994664    1.9885960352
     18  H         2.3568427707    1.0792283216   -0.6665055046
     19  H        -2.3992848712    1.6885428293    0.5987741529
     20  H        -0.0112969855   -3.3390082982   -2.0264103031
     21  H        -0.9811900557   -5.4037998126   -1.0208787675
     22  H         0.3757451327   -5.1133265431    0.0747947041
     23  H        -2.5028089695   -4.8820380299    0.7002416413
     24  H        -1.1927688525   -4.4725364207    1.8101070246
     25  H        -2.7992309103   -2.4335199462    0.7720050868
     26  H         3.9005688971    0.3228539111   -0.1593827382
     27  H         3.2514436017    0.0393365817   -1.8058807714
     28  H        -1.9342206944    1.6404916418    2.3165775460
     29  H        -3.5918960808    1.1634761490    1.8288349098
   Point Group: c1    Number of degrees of freedom:    81


   Energy is   -765.860807297

 Hessian Updated using Powell/Murtagh-Sargent Update
  Mixing factors:     0.959064 Powell
                      0.040936 Murtagh-Sargent

 77 Hessian modes will be used to form the next step
  Hessian Eigenvalues:
     0.000279    0.006164    0.007220    0.009291    0.010205    0.010524
     0.010605    0.013049    0.022024    0.022623    0.022683    0.026489
     0.030807    0.036798    0.040113    0.040711    0.046357    0.049141
     0.051510    0.053987    0.055413    0.056282    0.059008    0.062944
     0.064344    0.065024    0.074343    0.075323    0.092951    0.094104
     0.097609    0.101362    0.101704    0.106076    0.106225    0.113949
     0.123382    0.158511    0.160000    0.160000    0.160003    0.167684
     0.234915    0.238299    0.248579    0.249792    0.249845    0.250000
     0.250005    0.250256    0.258531    0.272961    0.281076    0.300689
     0.304559    0.336729    0.343250    0.345484    0.346124    0.346947
     0.347034    0.347082    0.347106    0.347199    0.347495    0.347807
     0.348092    0.350536    0.350877    0.352360    0.354112    0.394305
     0.397636    0.555142    0.556743    1.019087    1.023230
**WARNING** Hessian does not have the Desired Local Structure

 Transition State Search - Taking P-RFO Step
 Searching for Lamda that Maximizes Along the Lowest mode
 Value Taken    Lamda =   0.00033974
 Searching for Lamda that Minimizes Along All other modes
 Value Taken    Lamda =  -0.00000953
 Calculated Step too Large.  Step scaled by  0.021057
 Step Taken.  Stepsize is  0.050000

                             Maximum     Tolerance    Cnvgd?
         Gradient           0.000158      0.000001      NO
         Displacement       0.021360      0.000001      NO
         Energy change      0.000007      0.000000      NO


 New Cartesian Coordinates Obtained by Inverse Iteration

 Displacement from previous Coordinates is:  0.113430
 Adding empirical dispersion correction 
 ----------------------------------------------------------------
 Doing -D3(op) with
 s6 =   1.00000
 s8 =   0.78311
 a1 =   0.30000
 a2 =   4.25000
 n  =  10.00000
 -D3 energy without 3body term =     -0.0300877005 hartrees
 ----------------------------------------------------------------
             Standard Nuclear Orientation (Angstroms)
    I     Atom           X                Y                Z
 ----------------------------------------------------------------
    1      C       0.4807202934    -2.4049493905    -0.0552204620
    2      C      -0.6313223966    -1.9663149586     0.9692681540
    3      C      -0.9105067053    -0.4703698474     1.0352865050
    4      C       1.1667991510    -1.2818692856    -0.8140987562
    5      O      -2.1812196477    -0.2218887113     1.4066688955
    6      O      -0.0928544463     0.3984620668     0.8597664864
    7      O       2.3261833300    -0.9444823648    -0.2153469042
    8      O       0.7690449884    -0.7916651839    -1.8405863638
    9      C       2.9958572138     0.2053626477    -0.7623266317
   10      C      -2.5372920625     1.1668290250     1.5535890525
   11      C      -0.3466887595    -3.3295344369    -0.9940713768
   12      C      -0.5497213789    -4.6943234533    -0.3058122919
   13      C      -1.5841547412    -4.3131507362     0.7957340696
   14      C      -1.8287285850    -2.8200722119     0.4770317220
   15      O      -1.6635020622    -2.7583459633    -0.9449550713
   16      H       1.2587292121    -2.9587082329     0.4708009289
   17      H      -0.3341194537    -2.2431152701     1.9853750674
   18      H       2.3520091064     1.0812339911    -0.6709491701
   19      H      -2.3945545537     1.6943795481     0.6098641499
   20      H       0.0016434286    -3.3506720147    -2.0229092194
   21      H      -0.9680709772    -5.4124226881    -1.0125564281
   22      H       0.3771820038    -5.1100016507     0.0941084123
   23      H      -2.5104072975    -4.8788380026     0.6861801072
   24      H      -1.2123218965    -4.4705530931     1.8106085009
   25      H      -2.8021084889    -2.4296016350     0.7544860133
   26      H       3.8979731588     0.3275374926    -0.1666275506
   27      H       3.2459825933     0.0423433515    -1.8117002244
   28      H      -1.9272110032     1.6360075032     2.3267245113
   29      H      -3.5868475338     1.1660246451     1.8388504941
 ----------------------------------------------------------------
 Nuclear Repulsion Energy =  1107.5570940648 hartrees
 There are       57 alpha and       57 beta electrons
 Applying Cartesian multipole field
    Component          Value
    ---------          -----
     (2,0,0)        1.00000E-11
     (0,2,0)        2.00000E-12
     (0,0,2)       -3.00000E-11
 Nucleus-field energy     =     0.0000000025 hartrees
 Requested basis set is 6-311++G(d,p)
 There are 160 shells and 428 basis functions
 A cutoff of  1.0D-11 yielded  10484 shell pairs
 There are     76584 function pairs (     81727 Cartesian)
 Smallest overlap matrix eigenvalue = 8.53E-07

 Q-Chem warning in module /fs/scratch/osu6415/qchem-kaunlao-vdw/stvman/mkSTV.C, line 281:

 Overlap eigenvalue is smaller than square root of threshold

 Linear dependence detected in AO basis
 Number of orthogonalized atomic orbitals = 427
 Maximum deviation from orthogonality = 8.870E-11
 Guess MOs from SCF MO coefficient file
 Reading MOs from coefficient file
 Reading MOs from coefficient file
 A restricted hybrid HF-DFT SCF calculation will be
 performed using Pulay DIIS extrapolation
 Exchange:     0.2000 Hartree-Fock + 0.0800 Slater + 0.7200 B88
 Correlation:  0.1900 VWN1RPA + 0.8100 LYP
 Using SG-1 standard quadrature grid
 Dispersion:   Grimme D3
 SCF converges when DIIS error is below 1.0E-08
 Geometry optimization detected.  Setting ReadMinima to 0
 Setting SaveMinima to 0
 using 20 threads for integral computing
 -------------------------------------------------------
 OpenMP Integral computing Module                
 Release: version 1.0, May 2013, Q-Chem Inc. Pittsburgh 
 -------------------------------------------------------
 -------------------------------------------------------
 OpenMP BLAS3 based DFT computing Module                
 Release: version 1.0, May 2013, Q-Chem Inc. Pittsburgh 
 -------------------------------------------------------
 ---------------------------------------
  Cycle       Energy         DIIS Error
 ---------------------------------------
    1    -765.8617532618      1.54E-04
    2    -765.8607893627      1.50E-05
    3    -765.8607891991      1.76E-05
    4    -765.8607942471      6.71E-06
    5    -765.8607948778      2.37E-06
    6    -765.8607949729      5.78E-07
    7    -765.8607949775      3.07E-07
    8    -765.8607949790      5.09E-08
    9    -765.8607949786      2.38E-08
   10    -765.8607949753      9.99E-09 Convergence criterion met
 ---------------------------------------
 SCF time:  CPU 486.72 s  wall 25.62 s
 SCF   energy in the final basis set = -765.86079498
 Total energy in the final basis set = -765.86079498
 
 --------------------------------------------------------------
 
                    Orbital Energies (a.u.)
 --------------------------------------------------------------
 
 Alpha MOs
 -- Occupied --
-19.180 -19.163 -19.129 -19.122 -19.106 -10.313 -10.298 -10.233
-10.232 -10.231 -10.217 -10.211 -10.201 -10.181 -10.179  -1.122
 -1.105  -1.062  -1.034  -1.018  -0.829  -0.784  -0.776  -0.736
 -0.723  -0.653  -0.604  -0.595  -0.578  -0.559  -0.544  -0.521
 -0.500  -0.491  -0.488  -0.487  -0.476  -0.467  -0.458  -0.433
 -0.422  -0.416  -0.405  -0.399  -0.380  -0.371  -0.368  -0.365
 -0.359  -0.356  -0.338  -0.335  -0.321  -0.304  -0.291  -0.276
 -0.272
 -- Virtual --
 -0.021  -0.008  -0.003   0.001   0.003   0.013   0.015   0.023
  0.027   0.033   0.037   0.039   0.045   0.048   0.053   0.059
  0.065   0.075   0.076   0.085   0.090   0.098   0.099   0.104
  0.105   0.109   0.112   0.116   0.117   0.119   0.125   0.128
  0.132   0.135   0.136   0.137   0.141   0.144   0.150   0.151
  0.154   0.156   0.162   0.166   0.167   0.172   0.173   0.177
  0.180   0.186   0.187   0.191   0.193   0.202   0.206   0.212
  0.215   0.221   0.224   0.231   0.238   0.243   0.249   0.253
  0.260   0.266   0.271   0.273   0.283   0.288   0.290   0.291
  0.298   0.302   0.308   0.315   0.322   0.323   0.325   0.330
  0.334   0.342   0.349   0.353   0.358   0.361   0.365   0.368
  0.370   0.374   0.378   0.385   0.388   0.391   0.397   0.405
  0.413   0.415   0.425   0.433   0.457   0.460   0.471   0.476
  0.494   0.499   0.506   0.511   0.527   0.547   0.557   0.559
  0.567   0.577   0.594   0.599   0.610   0.616   0.632   0.635
  0.641   0.643   0.654   0.663   0.665   0.670   0.676   0.682
  0.689   0.700   0.703   0.713   0.724   0.728   0.729   0.746
  0.752   0.761   0.763   0.767   0.774   0.789   0.796   0.803
  0.813   0.830   0.863   0.868   0.905   0.918   0.941   0.980
  0.989   0.995   1.020   1.025   1.048   1.059   1.066   1.085
  1.102   1.115   1.162   1.173   1.181   1.189   1.195   1.207
  1.216   1.225   1.241   1.248   1.264   1.282   1.312   1.315
  1.320   1.329   1.354   1.363   1.371   1.386   1.394   1.419
  1.424   1.439   1.447   1.452   1.459   1.482   1.498   1.512
  1.527   1.543   1.547   1.554   1.566   1.568   1.576   1.579
  1.593   1.606   1.611   1.629   1.647   1.666   1.675   1.694
  1.697   1.712   1.714   1.717   1.725   1.735   1.751   1.762
  1.777   1.791   1.806   1.809   1.823   1.840   1.851   1.860
  1.873   1.886   1.896   1.915   1.923   1.935   1.946   1.983
  1.993   2.000   2.023   2.035   2.048   2.064   2.097   2.109
  2.122   2.133   2.142   2.153   2.168   2.189   2.192   2.205
  2.225   2.238   2.288   2.306   2.322   2.378   2.422   2.444
  2.457   2.465   2.473   2.499   2.506   2.508   2.518   2.528
  2.530   2.552   2.557   2.567   2.589   2.631   2.654   2.657
  2.668   2.693   2.725   2.732   2.744   2.777   2.798   2.821
  2.828   2.840   2.857   2.868   2.874   2.889   2.904   2.919
  2.931   2.960   2.982   2.996   3.008   3.033   3.039   3.056
  3.073   3.085   3.102   3.105   3.112   3.139   3.148   3.175
  3.200   3.218   3.228   3.247   3.263   3.287   3.317   3.350
  3.390   3.401   3.408   3.447   3.602   3.609   3.639   3.674
  3.724   3.771   3.792   3.837   3.854   3.889   3.938   3.991
  4.025   4.050   4.076   4.099   4.121   4.134   4.151   4.177
  4.210   4.249   4.390   4.501   5.032   5.050   5.103   5.134
  5.197   5.276   5.298   5.362   5.415   5.492   5.593   5.624
  5.655   5.885   5.890  23.830  23.834  23.840  23.871  23.891
 23.923  23.935  23.947  23.966  24.051  49.895  49.926  49.961
 50.022  50.036
 --------------------------------------------------------------
 
          Ground-State Mulliken Net Atomic Charges

     Atom                 Charge (a.u.)
  ----------------------------------------
      1 C                     0.219732
      2 C                    -0.065243
      3 C                    -0.842618
      4 C                    -0.270612
      5 O                    -0.058067
      6 O                    -0.190200
      7 O                    -0.016805
      8 O                    -0.209214
      9 C                    -0.182317
     10 C                    -0.257983
     11 C                    -0.108848
     12 C                    -0.616755
     13 C                    -0.352987
     14 C                     0.353467
     15 O                    -0.127035
     16 H                     0.298998
     17 H                     0.212766
     18 H                     0.186387
     19 H                     0.192868
     20 H                     0.278469
     21 H                     0.189940
     22 H                     0.116757
     23 H                     0.180699
     24 H                     0.130854
     25 H                     0.304637
     26 H                     0.149205
     27 H                     0.162662
     28 H                     0.174823
     29 H                     0.146418
  ----------------------------------------
  Sum of atomic charges =    -0.000000

 -----------------------------------------------------------------
                    Cartesian Multipole Moments
 -----------------------------------------------------------------
    Charge (ESU x 10^10)
                -0.0000
    Dipole Moment (Debye)
         X      -0.0558      Y      -1.2226      Z       3.1241
       Tot       3.3552
    Quadrupole Moments (Debye-Ang)
        XX     -81.7905     XY      -2.8935     YY     -76.0715
        XZ      -7.0249     YZ      -2.7235     ZZ     -91.3144
    Octopole Moments (Debye-Ang^2)
       XXX      85.7686    XXY     163.0653    XYY      22.3947
       YYY     390.2140    XXZ      -3.2600    XYZ       2.4441
       YYZ      -3.2841    XZZ      26.9819    YZZ     145.9236
       ZZZ     -11.2401
    Hexadecapole Moments (Debye-Ang^3)
      XXXX   -1472.4642   XXXY    -266.7086   XXYY    -791.3194
      XYYY    -254.7675   YYYY   -3079.7488   XXXZ     216.0879
      XXYZ     -27.0516   XYYZ      65.5275   YYYZ     -61.3854
      XXZZ    -372.1670   XYZZ    -109.6883   YYZZ    -631.0364
      XZZZ     265.7501   YZZZ     -70.8797   ZZZZ    -676.3439
 -----------------------------------------------------------------
 Calculating analytic gradient of the SCF energy
 Gradient of SCF Energy
            1           2           3           4           5           6
    1  -0.0000585   0.0001417  -0.0004354   0.0002009   0.0002109   0.0000848
    2   0.0001812  -0.0002433   0.0000526  -0.0001921   0.0000794   0.0000259
    3  -0.0002638   0.0004139  -0.0008937  -0.0000606   0.0002969   0.0003531
            7           8           9          10          11          12
    1  -0.0001598  -0.0000721   0.0000571   0.0000050  -0.0000288   0.0000947
    2   0.0000707   0.0000349   0.0000239   0.0000253  -0.0002625   0.0001460
    3   0.0000831  -0.0000128  -0.0000227   0.0000074   0.0000668   0.0002228
           13          14          15          16          17          18
    1  -0.0001079   0.0000880  -0.0001605   0.0000918   0.0000242  -0.0000003
    2  -0.0001071   0.0001202   0.0002564   0.0000243  -0.0001846   0.0000101
    3  -0.0001389   0.0000837  -0.0000780  -0.0000220  -0.0000741   0.0000275
           19          20          21          22          23          24
    1   0.0000123  -0.0000001   0.0000591   0.0000090   0.0000127  -0.0000835
    2  -0.0000196   0.0000067  -0.0000418   0.0000437   0.0000202  -0.0000848
    3   0.0000046   0.0000211  -0.0000092   0.0000531  -0.0000972   0.0000347
           25          26          27          28          29
    1   0.0000417   0.0000044  -0.0000224  -0.0000123   0.0000034
    2   0.0000198  -0.0000083   0.0000048   0.0000018  -0.0000039
    3  -0.0000373   0.0000004   0.0000142   0.0000151   0.0000122
 Max gradient component =       8.937E-04
 RMS gradient           =       1.577E-04
 Gradient time:  CPU 236.39 s  wall 17.24 s
 Geometry Optimization Parameters
   NAtoms,    NIC,     NZ,  NCons,   NDum,   NFix, NCnnct, MaxDiis
       29     227       0       0       0       0       0       0

 Cartesian Hessian Update
 Hessian Updated using Powell/Murtagh-Sargent Update
  Mixing factors:     0.817339 Powell
                      0.182661 Murtagh-Sargent


** GEOMETRY OPTIMIZATION IN DELOCALIZED INTERNAL COORDINATES **
   Searching for a Transition State

   Optimization Cycle:   4

                       Coordinates (Angstroms)
     ATOM                X               Y               Z
      1  C         0.4807202934   -2.4049493905   -0.0552204620
      2  C        -0.6313223966   -1.9663149586    0.9692681540
      3  C        -0.9105067053   -0.4703698474    1.0352865050
      4  C         1.1667991510   -1.2818692856   -0.8140987562
      5  O        -2.1812196477   -0.2218887113    1.4066688955
      6  O        -0.0928544463    0.3984620668    0.8597664864
      7  O         2.3261833300   -0.9444823648   -0.2153469042
      8  O         0.7690449884   -0.7916651839   -1.8405863638
      9  C         2.9958572138    0.2053626477   -0.7623266317
     10  C        -2.5372920625    1.1668290250    1.5535890525
     11  C        -0.3466887595   -3.3295344369   -0.9940713768
     12  C        -0.5497213789   -4.6943234533   -0.3058122919
     13  C        -1.5841547412   -4.3131507362    0.7957340696
     14  C        -1.8287285850   -2.8200722119    0.4770317220
     15  O        -1.6635020622   -2.7583459633   -0.9449550713
     16  H         1.2587292121   -2.9587082329    0.4708009289
     17  H        -0.3341194537   -2.2431152701    1.9853750674
     18  H         2.3520091064    1.0812339911   -0.6709491701
     19  H        -2.3945545537    1.6943795481    0.6098641499
     20  H         0.0016434286   -3.3506720147   -2.0229092194
     21  H        -0.9680709772   -5.4124226881   -1.0125564281
     22  H         0.3771820038   -5.1100016507    0.0941084123
     23  H        -2.5104072975   -4.8788380026    0.6861801072
     24  H        -1.2123218965   -4.4705530931    1.8106085009
     25  H        -2.8021084889   -2.4296016350    0.7544860133
     26  H         3.8979731588    0.3275374926   -0.1666275506
     27  H         3.2459825933    0.0423433515   -1.8117002244
     28  H        -1.9272110032    1.6360075032    2.3267245113
     29  H        -3.5868475338    1.1660246451    1.8388504941
   Point Group: c1    Number of degrees of freedom:    81


   Energy is   -765.860794975

 Hessian Updated using Powell/Murtagh-Sargent Update
  Mixing factors:     0.882843 Powell
                      0.117157 Murtagh-Sargent

 79 Hessian modes will be used to form the next step
  Hessian Eigenvalues:
    -0.003298    0.006202    0.007238    0.009887    0.010207    0.010527
     0.010612    0.021988    0.022489    0.022638    0.024352    0.026513
     0.030879    0.036900    0.040129    0.040718    0.046363    0.049265
     0.051513    0.054058    0.055432    0.056332    0.059041    0.062951
     0.064346    0.065025    0.074343    0.075332    0.092952    0.094233
     0.097821    0.101362    0.101705    0.106076    0.106226    0.113965
     0.123542    0.158533    0.160000    0.160000    0.160002    0.160030
     0.167735    0.235006    0.238303    0.248579    0.249797    0.249860
     0.250000    0.250003    0.250149    0.250355    0.258562    0.272964
     0.281076    0.300691    0.304560    0.336744    0.343259    0.345484
     0.346125    0.346947    0.347034    0.347082    0.347106    0.347199
     0.347495    0.347807    0.348092    0.350537    0.350877    0.352360
     0.354118    0.394305    0.397640    0.555151    0.556754    1.019087
     1.023230

 Transition State Search - Taking P-RFO Step
 Searching for Lamda that Maximizes Along the Lowest mode
 Value Taken    Lamda =   0.00000276
 Searching for Lamda that Minimizes Along All other modes
 Value Taken    Lamda =  -0.00002054
 Step Taken.  Stepsize is  0.043454

                             Maximum     Tolerance    Cnvgd?
         Gradient           0.000282      0.000001      NO
         Displacement       0.015040      0.000001      NO
         Energy change      0.000012      0.000000      NO


 New Cartesian Coordinates Obtained by Inverse Iteration

 Displacement from previous Coordinates is:  0.094171
 Adding empirical dispersion correction 
 ----------------------------------------------------------------
 Doing -D3(op) with
 s6 =   1.00000
 s8 =   0.78311
 a1 =   0.30000
 a2 =   4.25000
 n  =  10.00000
 -D3 energy without 3body term =     -0.0300832735 hartrees
 ----------------------------------------------------------------
             Standard Nuclear Orientation (Angstroms)
    I     Atom           X                Y                Z
 ----------------------------------------------------------------
    1      C       0.4810951590    -2.4019211434    -0.0513823943
    2      C      -0.6309856741    -1.9669847221     0.9743445759
    3      C      -0.9087826182    -0.4716069439     1.0487100806
    4      C       1.1634350070    -1.2756573096    -0.8090978308
    5      O      -2.1837323602    -0.2245993808     1.4066637113
    6      O      -0.0925246454     0.3979295939     0.8703024619
    7      O       2.3308387117    -0.9479625394    -0.2204112145
    8      O       0.7596429080    -0.7796119288    -1.8303636556
    9      C       3.0021217146     0.1999985431    -0.7692509373
   10      C      -2.5432115800     1.1637069238     1.5489449398
   11      C      -0.3456241199    -3.3254284137    -0.9923744491
   12      C      -0.5495394762    -4.6917955978    -0.3072099674
   13      C      -1.5836854590    -4.3122560234     0.7955350631
   14      C      -1.8284658363    -2.8189600510     0.4791144272
   15      O      -1.6625102543    -2.7552550011    -0.9426682007
   16      H       1.2608070078    -2.9548872447     0.4727635322
   17      H      -0.3344529794    -2.2484423222     1.9894087243
   18      H       2.3636653911     1.0789650983    -0.6702062854
   19      H      -2.3919395867     1.6909423938     0.6063673864
   20      H       0.0026452899    -3.3450517899    -2.0213167462
   21      H      -0.9674423780    -5.4091482817    -1.0149533478
   22      H       0.3775681869    -5.1074392081     0.0922101142
   23      H      -2.5103392689    -4.8770791422     0.6845804581
   24      H      -1.2120868047    -4.4717986121     1.8101027579
   25      H      -2.8018138358    -2.4287190037     0.7572519692
   26      H       3.9095862962     0.3156363732    -0.1803919887
   27      H       3.2431282691     0.0388847743    -1.8210671881
[...]
    -0.00030489      0.00027860      0.00017142
    -0.36634414     -0.05339304     -0.26057456
    -0.16584615      0.11722855      0.62649827
     0.01861648      0.01385878      0.02302026
    -0.02178181     -0.00031971      0.00610332
vibration 69
    -0.00053273      0.00045374     -0.00039161
     0.00101884     -0.00096353      0.00380899
     0.00275303      0.00013163     -0.00074707
    -0.00005854      0.00004615     -0.00015499
    -0.00147575      0.00214650      0.00044809
    -0.00065288     -0.00069475      0.00013601
     0.00005122      0.00007227     -0.00001033
     0.00000680     -0.00004022      0.00007968
     0.00067685      0.00169083     -0.00135280
     0.00123605      0.04380184      0.00393400
    -0.00003130     -0.00004526      0.00008798
     0.00029442     -0.00031608      0.00005555
     0.00038854      0.00118233     -0.00211916
    -0.00034378      0.00000553      0.00009400
    -0.00000932      0.00003618      0.00001736
     0.00634814     -0.00482096      0.00475864
    -0.01393000      0.01268652     -0.04469534
     0.01850927     -0.02429273     -0.00223579
    -0.06834824     -0.27509198      0.53328589
     0.00036141      0.00007660     -0.00104776
     0.00114857      0.00157857      0.00168625
    -0.00493509      0.00222847     -0.00206151
    -0.01603756     -0.00958398     -0.00210789
     0.01160649     -0.00393470      0.02701162
     0.00348827     -0.00186125     -0.00134820
    -0.01833080     -0.00267025     -0.01301104
    -0.00844780      0.00592271      0.03181543
    -0.37231063     -0.27805565     -0.46035578
     0.42957475      0.00613673     -0.12061960
vibration 70
    -0.00694160      0.00547513     -0.00494057
     0.01125029     -0.01007753      0.03699237
    -0.00002697     -0.00038069      0.00069086
    -0.00019339      0.00013963     -0.00035023
     0.00002552     -0.00011539     -0.00002048
     0.00016293      0.00013167     -0.00005745
     0.00001535     -0.00001938      0.00001252
     0.00003524     -0.00003827      0.00010002
     0.00019948      0.00043750     -0.00035767
    -0.00002264     -0.00253461     -0.00025889
    -0.00039522      0.00012216      0.00130010
     0.01588277     -0.02770369     -0.00436602
     0.00795105      0.02459719     -0.04371692
    -0.00116708     -0.00063166      0.00067665
    -0.00000424      0.00008716     -0.00001466
     0.08396769     -0.06344610      0.05910202
    -0.13753120      0.12679277     -0.44305318
     0.00462409     -0.00630115     -0.00052479
     0.00378955      0.01551965     -0.02981489
     0.00570512     -0.00156581     -0.01569039
     0.12672801      0.17951793      0.18764653
    -0.31819828      0.14044407     -0.13311410
    -0.32962064     -0.19950846     -0.04283950
     0.23982198     -0.08109859      0.55543509
     0.01099896     -0.00154666     -0.00442215
    -0.00474675     -0.00069620     -0.00335144
    -0.00218855      0.00149563      0.00813966
     0.02105025      0.01578657      0.02604747
    -0.02409269     -0.00042603      0.00675089
vibration 71
     0.00729588     -0.00542401      0.00559764
    -0.01936685      0.01663445     -0.06230273
     0.00003041      0.00058624     -0.00098345
     0.00007706     -0.00022521      0.00035556
     0.00003089      0.00010290      0.00003275
    -0.00026474     -0.00015432      0.00006574
     0.00000327      0.00004551      0.00000081
    -0.00003394      0.00003505     -0.00011589
    -0.00015315     -0.00019348      0.00026509
    -0.00004281      0.00144992      0.00032950
    -0.00050889      0.00067057      0.00130768
     0.01421757     -0.03034796     -0.00765975
     0.00794485      0.01094831     -0.01156494
    -0.00122459      0.00117146     -0.00003866
    -0.00006765     -0.00006765      0.00035966
    -0.08866833      0.06639999     -0.06342631
     0.23359895     -0.21131505      0.74670756
    -0.00212089      0.00308758      0.00020653
    -0.00189150     -0.00799457      0.01513368
     0.00551597     -0.00237660     -0.01399852
     0.14774824      0.21216742      0.22039203
    -0.31544111      0.13802577     -0.13141007
    -0.16425651     -0.10155743     -0.01788871
     0.07023264     -0.02274193      0.15753771
     0.01688328     -0.00732742     -0.00689493
     0.00236847      0.00034343      0.00165854
     0.00135569     -0.00094682     -0.00506763
    -0.01223900     -0.00920230     -0.01517929
     0.01372276      0.00036474     -0.00385043
vibration 72
     0.00894888     -0.00704883      0.00608379
    -0.00538426      0.00426483     -0.01651907
    -0.00001643      0.00007878     -0.00017619
     0.00019634     -0.00013014      0.00031318
     0.00001619      0.00006360      0.00002246
    -0.00004847      0.00003222     -0.00000088
     0.00005085      0.00006034     -0.00001230
     0.00000429      0.00006562     -0.00009388
    -0.00018680     -0.00050366      0.00042769
    -0.00002743     -0.00027914      0.00012831
     0.00053360     -0.00082021     -0.00322063
    -0.02057924      0.04342068      0.01218157
     0.00813513      0.02126173     -0.03911179
    -0.00226918     -0.00000190      0.00019829
     0.00012319     -0.00012930      0.00026476
    -0.10670701      0.08089359     -0.07464990
     0.06338141     -0.05531145      0.19931898
    -0.00505669      0.00690615      0.00054569
     0.00054115      0.00215273     -0.00412996
    -0.01495133      0.00366219      0.04377965
    -0.21375843     -0.30571670     -0.31765668
     0.44958547     -0.19508364      0.18541618
    -0.29397389     -0.17720019     -0.03723889
     0.20981399     -0.07030749      0.48833115
     0.02901436     -0.00918085     -0.01069517
     0.00449578      0.00068071      0.00315272
     0.00240095     -0.00155289     -0.00885849
     0.00155758      0.00126408      0.00194736
    -0.00186130      0.00003664      0.00051575
vibration 73
    -0.04912575      0.03679810     -0.03403716
    -0.00438091      0.00415407     -0.01553543
     0.00023190     -0.00015711     -0.00027617
    -0.00197271     -0.00005502     -0.00108425
    -0.00002213      0.00003667      0.00000606
    -0.00005434      0.00002176      0.00002814
     0.00025015      0.00000146      0.00017391
     0.00027722     -0.00007279      0.00052555
     0.00045674      0.00039165     -0.00019735
    -0.00000457     -0.00001931      0.00019812
     0.00130426      0.00076560     -0.00256107
     0.02915400      0.01294890      0.02680433
    -0.01851736     -0.00672060     -0.01283064
     0.00009977      0.00023750     -0.00051025
     0.00026138     -0.00017156      0.00021733
     0.58442159     -0.43882511      0.40422331
     0.05633625     -0.05240899      0.18540819
     0.00338506     -0.00546806     -0.00029307
     0.00021300      0.00076270     -0.00144146
    -0.01286921      0.00071393      0.03489487
    -0.15600589     -0.24501484     -0.24269289
    -0.19026718      0.09030977     -0.07435754
     0.16164063      0.10163889      0.01414585
     0.05706572     -0.02352414      0.13979747
     0.00086927     -0.00096213     -0.00023663
    -0.00469491     -0.00046957     -0.00347116
    -0.00193804      0.00113237      0.00661166
    -0.00079237     -0.00062163     -0.00097031
     0.00040127      0.00004592     -0.00008454
vibration 74
     0.02730938     -0.02046158      0.01876355
     0.00104280     -0.00078855      0.00334847
    -0.00010073      0.00029198      0.00019300
     0.00097533     -0.00002166      0.00066639
     0.00002579     -0.00007343     -0.00001319
    -0.00003561     -0.00009338     -0.00002098
    -0.00013432      0.00001876     -0.00010440
    -0.00015148      0.00006914     -0.00033429
    -0.00032651     -0.00011963      0.00018255
     0.00006060      0.00014330     -0.00001514
     0.00106660     -0.00003050     -0.00085044
     0.03992681      0.00483446      0.02938480
    -0.05478604     -0.02276821     -0.03081624
     0.00313231     -0.00163173     -0.00143917
    -0.00033015      0.00010930      0.00001555
    -0.32551992      0.24286585     -0.22555219
    -0.01060531      0.01275080     -0.03971243
    -0.00103875      0.00199480      0.00005153
    -0.00017339     -0.00080206      0.00143491
    -0.00305772     -0.00016107      0.00993350
    -0.13749469     -0.21684755     -0.21418866
    -0.33897919      0.15907734     -0.13628390
     0.51786488      0.32397544      0.04545068
     0.13013966     -0.05547495      0.32502826
    -0.04211754      0.01620360      0.01365130
     0.00238850      0.00025775      0.00176340
     0.00124752     -0.00073437     -0.00439910
    -0.00082521     -0.00070204     -0.00106713
     0.00020210     -0.00004101     -0.00005519
vibration 75
    -0.01028971      0.00782018     -0.00702354
    -0.00133128      0.00140175     -0.00486549
     0.00003707      0.00009137      0.00000873
    -0.00029167      0.00009327     -0.00034172
     0.00004461     -0.00005381     -0.00001831
    -0.00002379     -0.00003290     -0.00001528
     0.00003934     -0.00002450      0.00005255
     0.00005922     -0.00008353      0.00021423
     0.00018182      0.00005239     -0.00014444
     0.00024920      0.00008740      0.00050127
    -0.00219386      0.00001117      0.00243945
    -0.05311130     -0.01299133     -0.04296494
    -0.04898927     -0.01845347     -0.03246086
     0.00216751     -0.00117410     -0.00183310
     0.00048228     -0.00002753      0.00043175
     0.12459504     -0.09056514      0.08531638
     0.01897133     -0.01524071      0.05960182
     0.00032664     -0.00072912     -0.00002373
     0.00044530      0.00139944     -0.00273573
     0.01071009     -0.00089864     -0.03097273
     0.22272681      0.35126342      0.35106600
     0.41290407     -0.19439291      0.16279489
     0.44534918      0.27654016      0.03692952
     0.13952508     -0.05721761      0.35208579
    -0.02735446      0.01003690      0.00917224
    -0.00118706     -0.00015031     -0.00087663
    -0.00072585      0.00041469      0.00255691
    -0.00296127     -0.00229220     -0.00358686
    -0.00060418     -0.00005379      0.00025322
vibration 76
     0.00016554     -0.00019513     -0.00007595
     0.00001376      0.00005804     -0.00005386
    -0.00013742     -0.00012317      0.00003230
    -0.00007506      0.00021619     -0.00006735
     0.00004291      0.00000993     -0.00001785
     0.00009532      0.00010710     -0.00001267
    -0.00013244      0.00013176      0.00023041
    -0.00013445     -0.00001407      0.00014535
     0.04315328     -0.05696595     -0.06248831
     0.00045344      0.00001738      0.00099121
    -0.00004490     -0.00000983      0.00016713
     0.00014521      0.00000695      0.00009421
    -0.00000466      0.00000259     -0.00001541
    -0.00001155     -0.00000755     -0.00002307
    -0.00001319      0.00000784      0.00001514
    -0.00073762      0.00031585     -0.00032603
     0.00019122     -0.00014093      0.00048749
    -0.43087506      0.55751981      0.03206698
     0.00103351      0.00350619     -0.00658233
     0.00068370      0.00005708     -0.00184678
    -0.00043411     -0.00069158     -0.00065415
    -0.00132303      0.00062869     -0.00054449
     0.00001101      0.00005334      0.00001478
     0.00008343     -0.00004999      0.00019469
     0.00002587     -0.00001253      0.00002002
     0.08448145      0.00034419      0.04188492
    -0.16418125      0.11696102      0.66619102
    -0.00490584     -0.00364907     -0.00576828
    -0.00162358     -0.00000021      0.00068366
vibration 77
    -0.00013340      0.00008917     -0.00008360
    -0.00012289      0.00005633     -0.00044080
     0.00005931     -0.00007549      0.00017942
    -0.00004555      0.00001979     -0.00005345
     0.00013042      0.00000533      0.00039535
     0.00004544      0.00003595      0.00012962
     0.00001639      0.00000614      0.00001594
     0.00001733     -0.00002047      0.00002498
     0.00056239     -0.00066961     -0.00064808
    -0.03046354      0.00248590     -0.09007142
    -0.00001284      0.00000782     -0.00003515
    -0.00025862     -0.00003926     -0.00018774
    -0.00029422     -0.00007022     -0.00028477
     0.00001004     -0.00002182     -0.00002638
     0.00001674     -0.00000821      0.00002250
     0.00166949     -0.00125027      0.00111176
     0.00077816     -0.00029106      0.00259118
    -0.00521487      0.00673057      0.00037022
    -0.09796327     -0.33108933      0.62192120
    -0.00013007      0.00000510      0.00044835
     0.00092770      0.00149024      0.00148316
     0.00221158     -0.00105061      0.00087451
     0.00221420      0.00137969      0.00018002
     0.00134081     -0.00055166      0.00325210
    -0.00023785      0.00015648     -0.00004202
     0.00030405     -0.00010742     -0.00000989
    -0.00177361      0.00127812      0.00724527
     0.40364482      0.30075381      0.47674365
     0.05416685      0.00102379     -0.03422864
vibration 78
     0.00075475     -0.00017604      0.00095766
     0.00013340      0.00031515      0.00119125
     0.00010720      0.00014334      0.00002922
    -0.00031590      0.00032895     -0.00103782
    -0.00002970     -0.00010657     -0.00002237
    -0.00005418     -0.00007382      0.00002001
    -0.00006574     -0.00011202      0.00010060
     0.00023724      0.00004836      0.00048971
     0.00523102     -0.00088915      0.00408922
     0.00055829      0.00024528     -0.00012068
     0.02611835     -0.00098421     -0.08146940
    -0.00218929     -0.00445863     -0.00268462
    -0.00048423     -0.00056275      0.00128326
     0.00707773     -0.00268626     -0.00125908
     0.00048446     -0.00015228     -0.00014595
    -0.00841235      0.00478540     -0.00694726
    -0.00238424      0.00215000     -0.00812320
    -0.01601393      0.02169736      0.00274845
    -0.00017468     -0.00122849      0.00228401
    -0.30159746      0.00677092      0.93883573
     0.02796211      0.04553384      0.04099121
    -0.00496817      0.00430867     -0.00414077
     0.00278926      0.00162238      0.00067170
    -0.00343341      0.00146327     -0.00762802
    -0.09023726      0.03546487      0.02742195
    -0.05143838     -0.00744688     -0.03635298
     0.00506831     -0.00346975     -0.01510581
    -0.00165126     -0.00138967     -0.00222601
    -0.00503500     -0.00009333      0.00144102
vibration 79
     0.00002818      0.00003096      0.00007793
    -0.00000828      0.00003153      0.00003751
     0.00006726      0.00002320     -0.00002287
     0.00014368      0.00084238     -0.00097920
    -0.00002595      0.00000219      0.00000615
    -0.00003678     -0.00002843      0.00004362
     0.00023712      0.00001569      0.00026245
     0.00006655     -0.00030589      0.00045828
    -0.07236098      0.01157893     -0.05967536
    -0.00031432     -0.00009788      0.00000244
     0.00190426     -0.00006518     -0.00591397
    -0.00019033     -0.00028670     -0.00018981
    -0.00003195     -0.00003033      0.00006010
     0.00040854     -0.00014608     -0.00006239
     0.00003044     -0.00002250      0.00000156
    -0.00000571     -0.00049323      0.00017005
    -0.00004354     -0.00003932      0.00006345
     0.21730144     -0.29579905     -0.03887351
     0.00003346      0.00028359     -0.00060041
    -0.02183329      0.00060097      0.06816002
     0.00187371      0.00308315      0.00277554
     0.00011121      0.00010844     -0.00010426
    -0.00000625     -0.00000771      0.00003350
    -0.00005478      0.00004287     -0.00008667
    -0.00530218      0.00206099      0.00160864
     0.71726986      0.10142707      0.50839791
    -0.07967642      0.05184448      0.23945914
     0.00099671      0.00076433      0.00129216
     0.00271676      0.00004037     -0.00077650
vibration 80
     0.00007307     -0.00003095      0.00003095
     0.00010969      0.00003915      0.00007240
    -0.00026160     -0.00123158      0.00003954
     0.00001048     -0.00003424     -0.00002109
     0.00033846      0.00012700     -0.00010814
     0.00023179      0.00048065     -0.00004784
    -0.00000936      0.00000926      0.00000740
    -0.00000325      0.00001524      0.00001001
     0.00034192     -0.00010452      0.00013408
    -0.08707851     -0.02315801      0.02923223
     0.00022530     -0.00002458     -0.00069648
    -0.00002528     -0.00009014     -0.00006599
    -0.00016354     -0.00012925     -0.00000890
    -0.00152615      0.00058878      0.00044777
     0.00001807      0.00000548      0.00001306
    -0.00057446      0.00045044     -0.00040266
    -0.00042535      0.00044575     -0.00100162
    -0.00119047      0.00166103      0.00012356
     0.02604761      0.15365780     -0.30636389
    -0.00245327      0.00005438      0.00772198
     0.00055738      0.00086838      0.00079695
    -0.00008645      0.00004585     -0.00007692
     0.00214722      0.00149181      0.00019260
    -0.00006671      0.00000931     -0.00001291
     0.01689901     -0.00659772     -0.00502775
    -0.00274759     -0.00039376     -0.00196842
     0.00000442      0.00002970      0.00021369
     0.14503947      0.11257365      0.20370941
     0.85901607      0.01343402     -0.24316751
vibration 81
     0.00145653     -0.00025194      0.00024811
     0.00083598      0.00002920      0.00154872
    -0.00114007      0.00017196      0.00005089
     0.00007639      0.00005035     -0.00015233
     0.00039226      0.00058116      0.00009482
     0.00018827     -0.00008388      0.00000095
    -0.00004427     -0.00004733      0.00001727
     0.00000162     -0.00002321      0.00005320
     0.00010780      0.00001233      0.00004367
     0.00183920      0.00020003     -0.00060774
     0.00360132     -0.00046428     -0.00886586
     0.00055800     -0.00176459     -0.00067797
    -0.00407733     -0.00367681     -0.00036264
    -0.07715409      0.02959448      0.02312618
     0.00009787     -0.00004096      0.00041895
    -0.00878570      0.00598328     -0.00575698
    -0.00715720      0.00329767     -0.01651808
    -0.00014769      0.00016855      0.00005285
    -0.00033183     -0.00179236      0.00407755
    -0.02928240      0.00058147      0.09261443
     0.00585491      0.00889316      0.00830209
    -0.00740146      0.00386050     -0.00389813
     0.05310788      0.03714381      0.00384526
    -0.00122690      0.00181223     -0.00016534
     0.88619096     -0.34932685     -0.26521653
    -0.00111174     -0.00020701     -0.00075198
    -0.00003605     -0.00004479      0.00015701
    -0.00156487     -0.00071248     -0.00212115
    -0.01833175     -0.00036041      0.00521736
[INT]
    2.841434
    0.161589
    2.058678
    0.042675
    2.566287
    0.567306
    0.485634
    0.894646
    0.686003
    2.146179
    3.914930
    4.127719
   12.498088
    2.496663
   16.152192
   13.464473
    3.169262
   22.232384
   12.938569
    3.424320
   14.939469
    4.118933
    7.658350
   15.640205
   14.840003
    0.832685
    1.748530
    2.134038
   14.151667
    5.087998
   18.755282
   21.927269
   17.496624
    4.507975
   39.139974
   18.513037
   15.145627
   13.210623
   36.676355
   35.669455
   31.116415
    1.011604
  187.367487
   91.604119
    7.877689
   88.726727
   74.206926
  134.443066
   21.826948
   91.879171
    4.598772
   34.613809
   20.268438
   30.213243
   10.825081
    9.753565
   93.076320
   21.018845
   12.061507
   11.076749
    7.815708
    2.324241
    4.688638
   13.942891
    7.062856
  268.362558
  212.138822
   37.220781
   34.385253
   13.060158
   24.699810
   30.043604
    5.089673
    4.583306
   41.161945
   15.396516
   15.979679
   13.125285
   16.146542
   13.242597
    6.941012

======= END OF MOLDEN-FORMATTED INPUT FILE =======


        *************************************************************
        *                                                           *
        *  Thank you very much for using Q-Chem.  Have a nice day.  *
        *                                                           *
        *************************************************************


