r0160.ten.osc.edu 10.25.154
Q-Chem Developer Version! Running on 10.25.154.*
                  Welcome to Q-Chem
     A Quantum Leap Into The Future Of Chemistry


 Q-Chem 5.0, Q-Chem, Inc., Pleasanton, CA (2017)

 Yihan Shao,  Zhengting Gan,  E. Epifanovsky,  A. T. B. Gilbert,  M. Wormit,  
 J. Kussmann,  A. W. Lange,  A. Behn,  Jia Deng,  Xintian Feng,  D. Ghosh,  
 M. Goldey,  P. R. Horn,  L. D. Jacobson,  I. Kaliman,  T. Kus,  A. Landau,  
 Jie Liu,  E. I. Proynov,  R. M. Richard,  R. P. Steele,  E. J. Sundstrom,  
 H. L. Woodcock III,  P. M. Zimmerman,  D. Zuev,  B. Albrecht,  E. Alguire,  
 S. A. Baeppler,  Z. Benda,  Y. A. Bernard,  E. J. Berquist,  K. B. Bravaya,  
 D. Casanova,  Chun-Min Chang,  Yunqing Chen,  A. Chien,  K. D. Closser,  
 M. P. Coons,  S. Dasgupta,  M. Diedenhofen,  Hainam Do,  R. G. Edgar,  
 Po-Tung Fang,  S. Fatehi,  Qingguo Feng,  Qinghui Ge,  A. Ghysels,  
 J. Gomes,  J. Gonthier,  A. Gunina,  M. W. D. Hanson-Heine,  
 P. H. P. Harbach,  A. W. Hauser,  J. E. Herr,  E. G. Hohenstein,  
 Z. C. Holden,  Kerwin Hui,  T.-C. Jagau,  Hyunjun Ji,  B. Kaduk,  
 K. Khistyaev,  Jaehoon Kim,  P. Klunzinger,  K. Koh,  D. Kosenkov,  
 T. Kowalczyk,  C. M. Krauter,  A. Kunitsa,  Ka Un Lao,  A. Laurent,  
 K. V. Lawler,  Joonho Lee,  D. Lefrancois,  S. Lehtola,  D. S. Levine,  
 Yi-Pei Li,  You-Sheng Lin,  Fenglai Liu,  E. Livshits,  A. Luenser,  
 P. Manohar,  E. Mansoor,  S. F. Manzer,  Shan-Ping Mao,  Yuezhi Mao,  
 N. Mardirossian,  A. V. Marenich,  L. A. Martinez-Martinez,  S. A. Maurer,  
 N. J. Mayhall,  S. C. McKenzie,  J.-M. Mewes,  A. F. Morrison,  K. Nanda,  
 T. S. Nguyen-Beck,  R. Olivares-Amaya,  J. A. Parkhill,  T. M. Perrine,  
 F. Plasser,  S. Prager,  A. Prociuk,  D. R. Rehn,  F. Rob,  M. Schneider,  
 N. Sergueev,  S. M. Sharada,  S. Sharma,  D. W. Small,  T. Stauch,  
 T. Stein,  Yu-Chuan Su,  A. J. W. Thom,  T. Tsuchimochi,  L. Vogt,  
 O. Vydrov,  M. A. Watson,  J. Wenzel,  M. de Wergifosse,  T. A. Wesolowski,  
 A. White,  J. Witte,  A. Yamada,  Jun Yang,  K. Yao,  S. Yeganeh,  
 S. R. Yost,  Zhi-Qiang You,  A. Zech,  Igor Ying Zhang,  Xing Zhang,  
 Yan Zhao,  Ying Zhu,  B. R. Brooks,  G. K. L. Chan,  C. J. Cramer,  
 M. S. Gordon,  W. J. Hehre,  A. Klamt,  M. W. Schmidt,  C. D. Sherrill,  
 D. G. Truhlar,  A. Aspuru-Guzik,  R. Baer,  A. T. Bell,  N. A. Besley,  
 Jeng-Da Chai,  A. Dreuw,  B. D. Dunietz,  T. R. Furlani,  Chao-Ping Hsu,  
 Yousung Jung,  Jing Kong,  D. S. Lambrecht,  WanZhen Liang,  C. Ochsenfeld,  
 V. A. Rassolov,  L. V. Slipchenko,  J. E. Subotnik,  T. Van Voorhis,  
 J. M. Herbert,  A. I. Krylov,  P. M. W. Gill,  M. Head-Gordon

 Contributors to earlier versions of Q-Chem not listed above: 
 R. D. Adamson,  B. Austin,  J. Baker,  G. J. O. Beran,  K. Brandhorst,  
 S. T. Brown,  E. F. C. Byrd,  A. K. Chakraborty,  C.-L. Cheng,  
 Siu Hung Chien,  D. M. Chipman,  D. L. Crittenden,  H. Dachsel,  
 R. A. DiStasio Jr.,  R. J. Doerksen,  A. D. Dutoi,  L. Fusti-Molnar,  
 W. A. Goddard III,  A. Golubeva-Zadorozhnaya,  S. R. Gwaltney,  G. Hawkins,  
 A. Heyden,  S. Hirata,  G. Kedziora,  F. J. Keil,  C. Kelley,  Jihan Kim,  
 R. A. King,  R. Z. Khaliullin,  P. P. Korambath,  W. Kurlancheek,  
 A. M. Lee,  M. S. Lee,  S. V. Levchenko,  Ching Yeh Lin,  D. Liotard,  
 R. C. Lochan,  I. Lotan,  P. E. Maslen,  N. Nair,  D. P. O'Neill,  
 D. Neuhauser,  E. Neuscamman,  C. M. Oana,  R. Olson,  B. Peters,  
 R. Peverati,  P. A. Pieniazek,  Y. M. Rhee,  J. Ritchie,  M. A. Rohrdanz,  
 E. Rosta,  N. J. Russ,  H. F. Schaefer III,  N. E. Schultz,  N. Shenvi,  
 A. C. Simmonett,  A. Sodt,  D. Stuck,  K. S. Thanthiriwatte,  V. Vanovschi,  
 Tao Wang,  A. Warshel,  C. F. Williams,  Q. Wu,  X. Xu,  W. Zhang

 Please cite Q-Chem as follows:
 Y. Shao et al., Mol. Phys. 113, 184-215 (2015)
 DOI: 10.1080/00268976.2014.952696

 Q-Chem 5.0.1 for Intel X86 EM64T Linux

 Parts of Q-Chem use Armadillo 5.200.1 (Boston Tea Smuggler).
 http://arma.sourceforge.net/

 Q-Chem begins on Tue Oct 17 14:55:49 2017  

Host: r0160.ten.osc.edu
0

     Scratch files written to /tmp/pbstmp.1311785/3//
Processing $rem in /users/PAS0291/osu6415/.qchemrc.
molden_format             true

Checking the input file for inconsistencies... 	...done.

--------------------------------------------------------------
User input:
--------------------------------------------------------------
$molecule
0 1
  C      0.41161527     -2.47265020     -0.01050795
  C     -0.52071545     -2.14553877      1.21074141
  C     -0.88443291     -0.69417829      1.45484492
  C      0.99705873     -1.28608247     -0.75403597
  O     -1.20293120     -0.04821913      0.32018180
  O     -0.94137382     -0.19204275      2.55222737
  O      1.67958303     -0.49235745      0.09971569
  O      0.93519517     -1.09557902     -1.94131347
  C      2.27505525      0.68648617     -0.47084672
  C     -1.60786421      1.32486390      0.45304908
  C     -0.51147916     -3.36010383     -0.88177080
  C     -0.59763857     -4.76739568     -0.25450148
  C     -1.48779437     -4.48124850      0.99388779
  C     -1.78327123     -2.97576880      0.80805320
  O     -1.81831461     -2.82501704     -0.61288511
  H      1.27383255     -3.04026960      0.35071162
  H     -0.09303496     -2.50152221      2.14624296
  H      1.51043479      1.30353133     -0.94541359
  H     -0.81432370      1.91326909      0.91683264
  H     -0.30501516     -3.30818797     -1.94660041
  H     -1.09044555     -5.45527187     -0.94269031
  H      0.38090725     -5.18143402     -0.00312500
  H     -2.41587885     -5.05336243      0.96079838
  H     -0.99079016     -4.69801516      1.94140295
  H     -2.71527965     -2.62197659      1.24416547
  H      2.73247588      1.21343561      0.36344586
  H      3.02697232      0.41408063     -1.21314208
  H     -2.51003769      1.39820058      1.06203465
  H     -1.80102900      1.66643450     -0.56123292
$end

$rem
sym_ignore      true
jobtype         opt
method          b3lyp
basis           6-311++G(d,p)
dft_d           d3_op
mem_total       62000
MEM_STATIC      4000
ao2mo_disk      350000
max_scf_cycles  200
geom_opt_max_cycles 1000
geom_opt_tol_displacement 1
GEOM_OPT_TOL_GRADIENT       1
GEOM_OPT_TOL_ENERGY         1
geom_opt_dmax    50
$end

--------------------------------------------------------------
 Adding empirical dispersion correction 
 ----------------------------------------------------------------
 Doing -D3(op) with
 s6 =   1.00000
 s8 =   0.78311
 a1 =   0.30000
 a2 =   4.25000
 n  =  10.00000
 -D3 energy without 3body term =     -0.0314763217 hartrees
 ----------------------------------------------------------------
             Standard Nuclear Orientation (Angstroms)
    I     Atom           X                Y                Z
 ----------------------------------------------------------------
    1      C       0.4116152700    -2.4726502000    -0.0105079500
    2      C      -0.5207154500    -2.1455387700     1.2107414100
    3      C      -0.8844329100    -0.6941782900     1.4548449200
    4      C       0.9970587300    -1.2860824700    -0.7540359700
    5      O      -1.2029312000    -0.0482191300     0.3201818000
    6      O      -0.9413738200    -0.1920427500     2.5522273700
    7      O       1.6795830300    -0.4923574500     0.0997156900
    8      O       0.9351951700    -1.0955790200    -1.9413134700
    9      C       2.2750552500     0.6864861700    -0.4708467200
   10      C      -1.6078642100     1.3248639000     0.4530490800
   11      C      -0.5114791600    -3.3601038300    -0.8817708000
   12      C      -0.5976385700    -4.7673956800    -0.2545014800
   13      C      -1.4877943700    -4.4812485000     0.9938877900
   14      C      -1.7832712300    -2.9757688000     0.8080532000
   15      O      -1.8183146100    -2.8250170400    -0.6128851100
   16      H       1.2738325500    -3.0402696000     0.3507116200
   17      H      -0.0930349600    -2.5015222100     2.1462429600
   18      H       1.5104347900     1.3035313300    -0.9454135900
   19      H      -0.8143237000     1.9132690900     0.9168326400
   20      H      -0.3050151600    -3.3081879700    -1.9466004100
   21      H      -1.0904455500    -5.4552718700    -0.9426903100
   22      H       0.3809072500    -5.1814340200    -0.0031250000
   23      H      -2.4158788500    -5.0533624300     0.9607983800
   24      H      -0.9907901600    -4.6980151600     1.9414029500
   25      H      -2.7152796500    -2.6219765900     1.2441654700
   26      H       2.7324758800     1.2134356100     0.3634458600
   27      H       3.0269723200     0.4140806300    -1.2131420800
   28      H      -2.5100376900     1.3982005800     1.0620346500
   29      H      -1.8010290000     1.6664345000    -0.5612329200
 ----------------------------------------------------------------
 Nuclear Repulsion Energy =  1124.2578690869 hartrees
 There are       57 alpha and       57 beta electrons
 Requested basis set is 6-311++G(d,p)
 There are 160 shells and 428 basis functions

 Total QAlloc Memory Limit  62000 MB
 Mega-Array Size      3911 MB
 MEM_STATIC part      4000 MB
 A cutoff of  1.0D-11 yielded  10695 shell pairs
 There are     78213 function pairs (     83561 Cartesian)
 
 -------------------------------------------------------
 OpenMP Integral Computing Module                       
 Release: version 1.0, May 2013, Q-Chem Inc. Pittsburgh 
 -------------------------------------------------------
 Integral Job Info:
 Integral job number is                      11
 Integral operator is                         1
 short-range coefficients                     0
 long-range coefficients              100000000
 Omega coefficients                           0
 if combine SR and LR in K                    0
 Integral screening is                        0
 Integral computing path is                   2
 max size of driver memory is            800000
 size of driver memory is                593474
 size of scratch memory is              2361544
 max col of scratch BK array               1296
 max len of scratch array in speh3          155
 max len of scratch index in speh4           18
 max int batch size is                      520
 min int batch size is                       52
 fixed nKL is                                52
 max L of basis functions is                  2
 order of int derivative is                   0
 number of shells is                        160
 number of basis is                         443
 number of cartesian basis is               443
 number of contracted shell pairs         10695
 number of primitive shell pairs          24188
 maxK2 (contraction) of shell pair           36
 max number of K2 of shell pair               1
 max number of CS2 of shell pair           1967
 max number of PS2 of shell pair           3444
 mem total for path MDJ                  145800
 -------------------------------------------------------
 Smallest overlap matrix eigenvalue = 1.25E-06

 Q-Chem warning in module /fs/scratch/osu6415/qchem-kaunlao-vdw/stvman/mkSTV.C, line 281:

 Overlap eigenvalue is smaller than square root of threshold


 Scale SEOQF with 1.000000e-01/1.000000e-02/1.000000e-01

 Standard Electronic Orientation quadrupole field applied
 Nucleus-field energy     =    -0.0000000033 hartrees
 Guess from superposition of atomic densities
 Warning:  Energy on first SCF cycle will be non-variational
 A restricted hybrid HF-DFT SCF calculation will be
 performed using Pulay DIIS extrapolation
 Exchange:     0.2000 Hartree-Fock + 0.0800 Slater + 0.7200 B88
 Correlation:  0.1900 VWN1RPA + 0.8100 LYP
 Using SG-1 standard quadrature grid
 Dispersion:   Grimme D3
 SCF converges when DIIS error is below 1.0E-08
 using 20 threads for integral computing
 -------------------------------------------------------
 OpenMP Integral computing Module                
 Release: version 1.0, May 2013, Q-Chem Inc. Pittsburgh 
 -------------------------------------------------------
 -------------------------------------------------------
 OpenMP BLAS3 based DFT computing Module                
 Release: version 1.0, May 2013, Q-Chem Inc. Pittsburgh 
 -------------------------------------------------------
 ---------------------------------------
  Cycle       Energy         DIIS Error
 ---------------------------------------
    1    -768.9303926877      3.08E-02
    2    -765.5768522824      3.93E-03
    3    -765.0835919903      6.75E-03
    4    -765.8236735198      1.45E-03
    5    -765.8596340536      4.34E-04
    6    -765.8624651529      1.35E-04
    7    -765.8627523992      4.34E-05
    8    -765.8627834639      1.16E-05
    9    -765.8627858165      3.60E-06
   10    -765.8627859801      1.82E-06
   11    -765.8627860348      4.28E-07
   12    -765.8627860375      1.84E-07
   13    -765.8627860383      3.47E-08
   14    -765.8627860376      1.39E-08
   15    -765.8627860406      3.34E-09 Convergence criterion met
 ---------------------------------------
 SCF time:  CPU 754.46 s  wall 39.64 s
 SCF   energy in the final basis set = -765.86278604
 Total energy in the final basis set = -765.86278604
 
 --------------------------------------------------------------
 
                    Orbital Energies (a.u.)
 --------------------------------------------------------------
 
 Alpha MOs
 -- Occupied --
-19.176 -19.174 -19.132 -19.120 -19.116 -10.310 -10.307 -10.240
-10.232 -10.232 -10.230 -10.208 -10.207 -10.183 -10.182  -1.121
 -1.114  -1.065  -1.032  -1.028  -0.833  -0.786  -0.777  -0.739
 -0.730  -0.659  -0.608  -0.597  -0.577  -0.567  -0.551  -0.520
 -0.506  -0.496  -0.489  -0.484  -0.477  -0.473  -0.462  -0.432
 -0.427  -0.425  -0.411  -0.399  -0.385  -0.376  -0.372  -0.368
 -0.363  -0.358  -0.339  -0.338  -0.320  -0.314  -0.291  -0.282
 -0.276
 -- Virtual --
 -0.020  -0.011  -0.006   0.001   0.007   0.011   0.014   0.020
  0.026   0.034   0.037   0.041   0.044   0.046   0.053   0.055
  0.068   0.072   0.080   0.086   0.088   0.095   0.097   0.098
  0.104   0.108   0.109   0.113   0.116   0.118   0.125   0.127
  0.131   0.132   0.135   0.137   0.142   0.147   0.148   0.152
  0.154   0.157   0.160   0.162   0.164   0.168   0.173   0.174
  0.181   0.184   0.185   0.190   0.195   0.202   0.206   0.207
  0.210   0.214   0.223   0.228   0.229   0.238   0.242   0.249
  0.254   0.265   0.266   0.271   0.277   0.281   0.290   0.293
  0.295   0.299   0.308   0.312   0.318   0.320   0.323   0.328
  0.336   0.337   0.341   0.352   0.353   0.356   0.362   0.365
  0.366   0.367   0.379   0.382   0.387   0.396   0.398   0.407
  0.411   0.416   0.426   0.433   0.446   0.459   0.478   0.489
  0.498   0.499   0.502   0.521   0.527   0.534   0.544   0.554
  0.565   0.567   0.583   0.592   0.594   0.605   0.617   0.624
  0.640   0.642   0.654   0.656   0.661   0.670   0.675   0.679
  0.688   0.696   0.701   0.712   0.717   0.722   0.735   0.740
  0.742   0.750   0.755   0.766   0.772   0.779   0.793   0.804
  0.816   0.827   0.832   0.840   0.882   0.889   0.940   0.951
  0.972   0.990   1.007   1.030   1.042   1.065   1.070   1.095
  1.112   1.121   1.136   1.154   1.161   1.185   1.198   1.202
  1.209   1.232   1.237   1.249   1.262   1.268   1.287   1.295
  1.307   1.325   1.343   1.351   1.358   1.377   1.389   1.401
  1.421   1.428   1.440   1.450   1.459   1.468   1.506   1.514
  1.520   1.531   1.539   1.548   1.558   1.560   1.575   1.586
  1.587   1.598   1.605   1.626   1.637   1.655   1.670   1.681
  1.684   1.699   1.703   1.713   1.719   1.729   1.747   1.757
  1.769   1.798   1.801   1.805   1.816   1.828   1.840   1.857
  1.869   1.880   1.894   1.903   1.922   1.942   1.952   1.963
  1.980   2.004   2.012   2.020   2.041   2.047   2.078   2.097
  2.111   2.121   2.138   2.142   2.163   2.170   2.174   2.194
  2.214   2.238   2.252   2.277   2.296   2.343   2.367   2.431
  2.452   2.455   2.469   2.470   2.491   2.506   2.511   2.521
  2.525   2.544   2.564   2.575   2.585   2.600   2.615   2.646
  2.663   2.677   2.710   2.724   2.744   2.763   2.771   2.791
  2.815   2.827   2.845   2.849   2.851   2.875   2.880   2.907
  2.914   2.921   2.951   2.974   2.992   3.016   3.029   3.041
  3.050   3.069   3.073   3.095   3.112   3.131   3.139   3.154
  3.194   3.212   3.230   3.236   3.248   3.259   3.303   3.341
  3.349   3.382   3.390   3.399   3.446   3.591   3.596   3.649
  3.687   3.713   3.776   3.782   3.831   3.853   3.915   3.936
  4.011   4.042   4.057   4.068   4.089   4.124   4.141   4.158
  4.168   4.212   4.247   4.399   4.495   5.026   5.097   5.137
  5.174   5.204   5.241   5.261   5.405   5.426   5.499   5.596
  5.636   5.647   5.869   5.885  23.823  23.837  23.848  23.884
 23.898  23.929  23.941  23.947  23.970  24.048  49.902  49.935
 49.960  50.031  50.036
 --------------------------------------------------------------
 
          Ground-State Mulliken Net Atomic Charges

     Atom                 Charge (a.u.)
  ----------------------------------------
      1 C                    -0.055891
      2 C                     0.639828
      3 C                    -0.774089
      4 C                    -0.521464
      5 O                    -0.025828
      6 O                    -0.176810
      7 O                    -0.017940
      8 O                    -0.209612
      9 C                    -0.204339
     10 C                    -0.224633
     11 C                    -0.044254
     12 C                    -0.502481
     13 C                    -0.452147
     14 C                    -0.021288
     15 O                    -0.139289
     16 H                     0.235668
     17 H                     0.283735
     18 H                     0.180144
     19 H                     0.185630
     20 H                     0.279880
     21 H                     0.189372
     22 H                     0.124893
     23 H                     0.183693
     24 H                     0.125496
     25 H                     0.257599
     26 H                     0.162210
     27 H                     0.174578
     28 H                     0.176567
     29 H                     0.170770
  ----------------------------------------
  Sum of atomic charges =     0.000000

 -----------------------------------------------------------------
                    Cartesian Multipole Moments
 -----------------------------------------------------------------
    Charge (ESU x 10^10)
                 0.0000
    Dipole Moment (Debye)
         X       1.1489      Y      -0.5893      Z       0.5097
       Tot       1.3881
    Quadrupole Moments (Debye-Ang)
        XX     -84.8123     XY      -0.7534     YY     -72.0143
        XZ      -0.9270     YZ      -6.0936     ZZ    -102.9394
    Octopole Moments (Debye-Ang^2)
       XXX      93.9319    XXY     155.7840    XYY      26.7195
       YYY     388.9936    XXZ     -11.0838    XYZ       6.8352
       YYZ      -7.1349    XZZ      32.8300    YZZ     146.4923
       ZZZ     -72.1480
    Hexadecapole Moments (Debye-Ang^3)
      XXXX   -1034.7683   XXXY    -343.6479   XXYY    -734.3448
      XYYY    -325.4827   YYYY   -3253.5590   XXXZ     147.4573
      XXYZ      -9.3884   XYYZ      44.4655   YYYZ      38.3362
      XXZZ    -316.4491   XYZZ    -108.6803   YYZZ    -678.6872
      XZZZ     233.8629   YZZZ      35.0925   ZZZZ    -881.0624
 -----------------------------------------------------------------
 Calculating analytic gradient of the SCF energy
 Gradient of SCF Energy
            1           2           3           4           5           6
    1   0.0000008  -0.0000137  -0.0000069   0.0000123  -0.0000291   0.0000002
    2  -0.0000126   0.0000093   0.0000069  -0.0000076  -0.0000198   0.0000040
    3  -0.0000054   0.0000002  -0.0000171  -0.0000095   0.0000020   0.0000031
            7           8           9          10          11          12
    1   0.0000112  -0.0000005  -0.0000063   0.0000291   0.0000216  -0.0000068
    2  -0.0000018  -0.0000005   0.0000073   0.0000162   0.0000126  -0.0000085
    3   0.0000126   0.0000109   0.0000032  -0.0000089   0.0000076   0.0000021
           13          14          15          16          17          18
    1   0.0000043   0.0000044  -0.0000037   0.0000009  -0.0000061   0.0000047
    2   0.0000098  -0.0000041   0.0000047   0.0000051   0.0000017  -0.0000040
    3   0.0000035   0.0000045  -0.0000086   0.0000049   0.0000005   0.0000018
           19          20          21          22          23          24
    1  -0.0000117   0.0000055   0.0000083   0.0000016  -0.0000028  -0.0000066
    2  -0.0000044  -0.0000050  -0.0000029   0.0000028   0.0000026  -0.0000004
    3   0.0000003   0.0000017   0.0000032   0.0000073  -0.0000048   0.0000015
           25          26          27          28          29
    1  -0.0000035  -0.0000028   0.0000065  -0.0000139   0.0000029
    2  -0.0000002  -0.0000015  -0.0000032  -0.0000023  -0.0000042
    3  -0.0000070   0.0000074   0.0000108  -0.0000186  -0.0000091
 Max gradient component =       2.913E-05
 RMS gradient           =       8.802E-06
 Gradient time:  CPU 247.82 s  wall 18.60 s
 Geometry Optimization Parameters
   NAtoms,    NIC,     NZ,  NCons,   NDum,   NFix, NCnnct, MaxDiis
       29     227       0       0       0       0       0       0


** GEOMETRY OPTIMIZATION IN DELOCALIZED INTERNAL COORDINATES **
   Searching for a Minimum

   Optimization Cycle:   1

                       Coordinates (Angstroms)
     ATOM                X               Y               Z
      1  C         0.4116152700   -2.4726502000   -0.0105079500
      2  C        -0.5207154500   -2.1455387700    1.2107414100
      3  C        -0.8844329100   -0.6941782900    1.4548449200
      4  C         0.9970587300   -1.2860824700   -0.7540359700
      5  O        -1.2029312000   -0.0482191300    0.3201818000
      6  O        -0.9413738200   -0.1920427500    2.5522273700
      7  O         1.6795830300   -0.4923574500    0.0997156900
      8  O         0.9351951700   -1.0955790200   -1.9413134700
      9  C         2.2750552500    0.6864861700   -0.4708467200
     10  C        -1.6078642100    1.3248639000    0.4530490800
     11  C        -0.5114791600   -3.3601038300   -0.8817708000
     12  C        -0.5976385700   -4.7673956800   -0.2545014800
     13  C        -1.4877943700   -4.4812485000    0.9938877900
     14  C        -1.7832712300   -2.9757688000    0.8080532000
     15  O        -1.8183146100   -2.8250170400   -0.6128851100
     16  H         1.2738325500   -3.0402696000    0.3507116200
     17  H        -0.0930349600   -2.5015222100    2.1462429600
     18  H         1.5104347900    1.3035313300   -0.9454135900
     19  H        -0.8143237000    1.9132690900    0.9168326400
     20  H        -0.3050151600   -3.3081879700   -1.9466004100
     21  H        -1.0904455500   -5.4552718700   -0.9426903100
     22  H         0.3809072500   -5.1814340200   -0.0031250000
     23  H        -2.4158788500   -5.0533624300    0.9607983800
     24  H        -0.9907901600   -4.6980151600    1.9414029500
     25  H        -2.7152796500   -2.6219765900    1.2441654700
     26  H         2.7324758800    1.2134356100    0.3634458600
     27  H         3.0269723200    0.4140806300   -1.2131420800
     28  H        -2.5100376900    1.3982005800    1.0620346500
     29  H        -1.8010290000    1.6664345000   -0.5612329200
   Point Group: c1    Number of degrees of freedom:    81


   Energy is   -765.862786041


 Attempting to Generate Delocalized Internal Coordinates

 81 Hessian modes will be used to form the next step
  Hessian Eigenvalues:
     0.003209    0.006833    0.007059    0.007330    0.010529    0.010649
     0.010658    0.011169    0.022088    0.022150    0.023062    0.026409
     0.030813    0.036234    0.039796    0.041005    0.045132    0.049544
     0.051743    0.054748    0.055326    0.056525    0.058677    0.062382
     0.064502    0.064766    0.073714    0.075114    0.093019    0.095388
     0.096895    0.101389    0.101418    0.105958    0.106139    0.114109
     0.123592    0.159180    0.160000    0.160000    0.160000    0.160000
     0.160000    0.160000    0.167345    0.236337    0.237326    0.247408
     0.249674    0.249757    0.250000    0.250000    0.250000    0.250000
     0.258440    0.271453    0.280771    0.305857    0.307529    0.337023
     0.343932    0.345980    0.346181    0.346583    0.346804    0.346812
     0.347038    0.347253    0.347314    0.349884    0.350309    0.350805
     0.350872    0.350981    0.352905    0.397670    0.399026    0.548460
     0.563319    1.008315    1.028120

 Minimum Search - Taking Simple RFO Step
 Searching for Lamda that Minimizes Along All modes
 Value Taken    Lamda =   0.00000000
 Step Taken.  Stepsize is  0.002955

                             Maximum     Tolerance    Cnvgd?
         Gradient           0.000015      0.000001      NO
         Displacement       0.001453      0.000001      NO
         Energy change     *********      0.000000      NO


 New Cartesian Coordinates Obtained by Inverse Iteration

 Displacement from previous Coordinates is:  0.004197
 Adding empirical dispersion correction 
 ----------------------------------------------------------------
 Doing -D3(op) with
 s6 =   1.00000
 s8 =   0.78311
 a1 =   0.30000
 a2 =   4.25000
 n  =  10.00000
 -D3 energy without 3body term =     -0.0314759096 hartrees
 ----------------------------------------------------------------
             Standard Nuclear Orientation (Angstroms)
    I     Atom           X                Y                Z
 ----------------------------------------------------------------
    1      C       0.4116250848    -2.4726295195    -0.0104695886
    2      C      -0.5207747757    -2.1455731906     1.2107115003
    3      C      -0.8843984250    -0.6941926830     1.4548926682
    4      C       0.9969710206    -1.2860286404    -0.7540333412
    5      O      -1.2025695687    -0.0480458216     0.3202345862
    6      O      -0.9419409342    -0.1922804474     2.5523420646
    7      O       1.6792661077    -0.4921087637     0.0997113871
    8      O       0.9356249772    -1.0958960191    -1.9414005570
    9      C       2.2749812228     0.6865573255    -0.4709721697
   10      C      -1.6077472257     1.3249497506     0.4532401067
   11      C      -0.5113487436    -3.3602086240    -0.8817735254
   12      C      -0.5975716381    -4.7674532599    -0.2544253112
   13      C      -1.4879118609    -4.4812453723     0.9938223214
   14      C      -1.7833354792    -2.9757575731     0.8078694046
   15      O      -1.8182062188    -2.8251090344    -0.6130777471
   16      H       1.2738617716    -3.0401705255     0.3508376494
   17      H      -0.0932011231    -2.5016345552     2.1462335043
   18      H       1.5104880241     1.3036749283    -0.9456584777
   19      H      -0.8139056994     1.9136213129     0.9161915112
   20      H      -0.3047490673    -3.3083478823    -1.9465796493
   21      H      -1.0903191671    -5.4553470801    -0.9426424909
   22      H       0.3809322193    -5.1815102169    -0.0029093461
   23      H      -2.4159821026    -5.0533788307     0.9606640120
   24      H      -0.9910152420    -4.6979319365     1.9414127354
   25      H      -2.7153840495    -2.6219101193     1.2438511869
   26      H       2.7324496268     1.2135597039     0.3632632498
   27      H       3.0268827052     0.4139420057    -1.2132050882
   28      H      -2.5093579065     1.3981926933     1.0630580972
   29      H      -1.8018835426     1.6663424051    -0.5609187130
 ----------------------------------------------------------------
 Nuclear Repulsion Energy =  1124.2539453688 hartrees
 There are       57 alpha and       57 beta electrons
 Applying Cartesian multipole field
    Component          Value
    ---------          -----
     (2,0,0)        1.00000E-11
     (0,2,0)        2.00000E-12
     (0,0,2)       -3.00000E-11
 Nucleus-field energy     =    -0.0000000033 hartrees
 Requested basis set is 6-311++G(d,p)
 There are 160 shells and 428 basis functions
 A cutoff of  1.0D-11 yielded  10694 shell pairs
 There are     78208 function pairs (     83555 Cartesian)
 Smallest overlap matrix eigenvalue = 1.25E-06

 Q-Chem warning in module /fs/scratch/osu6415/qchem-kaunlao-vdw/stvman/mkSTV.C, line 281:

 Overlap eigenvalue is smaller than square root of threshold

 Guess MOs from SCF MO coefficient file
 Reading MOs from coefficient file
 Reading MOs from coefficient file
 A restricted hybrid HF-DFT SCF calculation will be
 performed using Pulay DIIS extrapolation
 Exchange:     0.2000 Hartree-Fock + 0.0800 Slater + 0.7200 B88
 Correlation:  0.1900 VWN1RPA + 0.8100 LYP
 Using SG-1 standard quadrature grid
 Dispersion:   Grimme D3
 SCF converges when DIIS error is below 1.0E-08
 Geometry optimization detected.  Setting ReadMinima to 0
 Setting SaveMinima to 0
 using 20 threads for integral computing
 -------------------------------------------------------
 OpenMP Integral computing Module                
 Release: version 1.0, May 2013, Q-Chem Inc. Pittsburgh 
 -------------------------------------------------------
 -------------------------------------------------------
 OpenMP BLAS3 based DFT computing Module                
 Release: version 1.0, May 2013, Q-Chem Inc. Pittsburgh 
 -------------------------------------------------------
 ---------------------------------------
  Cycle       Energy         DIIS Error
 ---------------------------------------
    1    -765.8628765890      8.39E-06
    2    -765.8627860906      7.12E-07
    3    -765.8627860953      7.53E-07
    4    -765.8627861063      2.45E-07
    5    -765.8627861077      1.41E-07
    6    -765.8627861071      3.52E-08
    7    -765.8627861068      1.59E-08
    8    -765.8627861074      3.17E-09 Convergence criterion met
 ---------------------------------------
 SCF time:  CPU 382.34 s  wall 20.11 s
 SCF   energy in the final basis set = -765.86278611
 Total energy in the final basis set = -765.86278611
 
 --------------------------------------------------------------
 
                    Orbital Energies (a.u.)
 --------------------------------------------------------------
 
 Alpha MOs
 -- Occupied --
-19.176 -19.174 -19.132 -19.120 -19.116 -10.310 -10.307 -10.240
-10.232 -10.232 -10.230 -10.208 -10.207 -10.183 -10.182  -1.121
 -1.114  -1.065  -1.032  -1.028  -0.833  -0.786  -0.777  -0.739
 -0.730  -0.659  -0.608  -0.597  -0.577  -0.567  -0.551  -0.520
 -0.506  -0.496  -0.489  -0.484  -0.477  -0.473  -0.462  -0.432
 -0.427  -0.425  -0.411  -0.399  -0.385  -0.376  -0.372  -0.368
 -0.363  -0.358  -0.339  -0.338  -0.320  -0.314  -0.291  -0.282
 -0.276
 -- Virtual --
 -0.020  -0.011  -0.006   0.001   0.007   0.011   0.014   0.020
  0.026   0.034   0.037   0.041   0.044   0.046   0.053   0.055
  0.068   0.072   0.080   0.086   0.088   0.095   0.097   0.098
  0.104   0.108   0.109   0.113   0.116   0.118   0.125   0.127
  0.131   0.132   0.135   0.137   0.142   0.147   0.148   0.152
  0.154   0.157   0.160   0.162   0.164   0.168   0.173   0.174
  0.181   0.184   0.185   0.190   0.195   0.202   0.206   0.207
  0.210   0.214   0.223   0.228   0.229   0.238   0.242   0.249
  0.254   0.265   0.266   0.271   0.277   0.281   0.290   0.293
  0.295   0.299   0.308   0.312   0.318   0.320   0.323   0.328
  0.336   0.337   0.341   0.352   0.353   0.356   0.362   0.365
  0.366   0.367   0.379   0.382   0.387   0.396   0.398   0.407
  0.411   0.416   0.426   0.433   0.446   0.459   0.478   0.489
  0.498   0.499   0.502   0.521   0.527   0.534   0.544   0.554
  0.565   0.567   0.583   0.592   0.594   0.605   0.617   0.624
  0.640   0.642   0.654   0.656   0.661   0.670   0.675   0.679
  0.688   0.696   0.701   0.712   0.717   0.722   0.735   0.740
  0.742   0.750   0.755   0.766   0.772   0.779   0.793   0.804
  0.816   0.827   0.832   0.840   0.882   0.889   0.940   0.951
  0.972   0.990   1.007   1.030   1.042   1.065   1.070   1.095
  1.112   1.121   1.136   1.154   1.161   1.185   1.198   1.202
  1.209   1.232   1.237   1.249   1.262   1.268   1.287   1.296
  1.307   1.324   1.343   1.351   1.358   1.377   1.389   1.401
  1.421   1.428   1.440   1.450   1.459   1.468   1.506   1.514
  1.520   1.531   1.539   1.548   1.558   1.560   1.575   1.586
  1.587   1.598   1.605   1.626   1.637   1.655   1.670   1.681
  1.684   1.699   1.703   1.713   1.719   1.729   1.747   1.757
  1.769   1.798   1.801   1.805   1.816   1.828   1.840   1.857
  1.869   1.880   1.894   1.903   1.922   1.942   1.952   1.963
  1.980   2.004   2.012   2.020   2.041   2.047   2.078   2.097
  2.111   2.121   2.138   2.142   2.163   2.170   2.174   2.194
  2.214   2.238   2.252   2.277   2.296   2.343   2.367   2.431
  2.452   2.455   2.469   2.470   2.491   2.506   2.511   2.521
  2.525   2.544   2.564   2.575   2.585   2.600   2.615   2.646
  2.663   2.677   2.710   2.724   2.744   2.763   2.771   2.791
  2.815   2.827   2.845   2.849   2.851   2.875   2.880   2.907
  2.914   2.921   2.951   2.974   2.992   3.016   3.029   3.041
  3.050   3.069   3.073   3.095   3.112   3.131   3.139   3.154
  3.194   3.212   3.230   3.236   3.249   3.259   3.303   3.341
  3.349   3.382   3.390   3.399   3.446   3.591   3.596   3.649
  3.687   3.713   3.776   3.782   3.831   3.853   3.915   3.936
  4.011   4.042   4.057   4.068   4.089   4.124   4.141   4.158
  4.168   4.212   4.247   4.399   4.495   5.026   5.097   5.137
  5.174   5.204   5.241   5.261   5.405   5.426   5.499   5.596
  5.636   5.647   5.869   5.885  23.823  23.837  23.848  23.884
 23.898  23.929  23.941  23.947  23.970  24.048  49.902  49.935
 49.960  50.031  50.036
 --------------------------------------------------------------
 
          Ground-State Mulliken Net Atomic Charges

     Atom                 Charge (a.u.)
  ----------------------------------------
      1 C                    -0.055467
      2 C                     0.639628
      3 C                    -0.773746
      4 C                    -0.522155
      5 O                    -0.025865
      6 O                    -0.176855
      7 O                    -0.017979
      8 O                    -0.209598
      9 C                    -0.204345
     10 C                    -0.224581
     11 C                    -0.044349
     12 C                    -0.502303
     13 C                    -0.452223
     14 C                    -0.021058
     15 O                    -0.139312
     16 H                     0.235672
     17 H                     0.283719
     18 H                     0.180150
     19 H                     0.185602
     20 H                     0.279870
     21 H                     0.189368
     22 H                     0.124907
     23 H                     0.183706
     24 H                     0.125481
     25 H                     0.257634
     26 H                     0.162201
     27 H                     0.174574
     28 H                     0.176563
     29 H                     0.170760
  ----------------------------------------
  Sum of atomic charges =     0.000000

 -----------------------------------------------------------------
                    Cartesian Multipole Moments
 -----------------------------------------------------------------
    Charge (ESU x 10^10)
                 0.0000
    Dipole Moment (Debye)
         X       1.1489      Y      -0.5888      Z       0.5100
       Tot       1.3881
    Quadrupole Moments (Debye-Ang)
        XX     -84.8133     XY      -0.7526     YY     -72.0140
        XZ      -0.9222     YZ      -6.0945     ZZ    -102.9418
    Octopole Moments (Debye-Ang^2)
       XXX      93.9322    XXY     155.7836    XYY      26.7176
       YYY     388.9933    XXZ     -11.0852    XYZ       6.8290
       YYZ      -7.1297    XZZ      32.8360    YZZ     146.5030
       ZZZ     -72.1465
    Hexadecapole Moments (Debye-Ang^3)
      XXXX   -1034.7377   XXXY    -343.6435   XXYY    -734.3489
      XYYY    -325.4808   YYYY   -3253.6117   XXXZ     147.5250
      XXYZ      -9.4015   XYYZ      44.4844   YYYZ      38.3077
      XXZZ    -316.4750   XYZZ    -108.6899   YYZZ    -678.7232
      XZZZ     233.9425   YZZZ      35.0725   ZZZZ    -881.1225
 -----------------------------------------------------------------
 Calculating analytic gradient of the SCF energy
 Gradient of SCF Energy
            1           2           3           4           5           6
    1   0.0000168  -0.0000223   0.0000531  -0.0000466  -0.0000288  -0.0000224
    2  -0.0000076  -0.0000027   0.0000204   0.0000231  -0.0000161   0.0000020
    3  -0.0000066   0.0000065  -0.0000153   0.0000032   0.0000065  -0.0000026
            7           8           9          10          11          12
    1   0.0000101   0.0000235  -0.0000001   0.0000214   0.0000095   0.0000004
    2  -0.0000105  -0.0000090   0.0000057   0.0000097   0.0000005  -0.0000039
    3   0.0000049   0.0000063   0.0000050  -0.0000094   0.0000047   0.0000031
           13          14          15          16          17          18
    1  -0.0000043   0.0000090  -0.0000005  -0.0000034  -0.0000065   0.0000042
    2   0.0000032  -0.0000021  -0.0000055  -0.0000011   0.0000034  -0.0000028
    3  -0.0000021  -0.0000026  -0.0000108   0.0000142   0.0000016   0.0000015
           19          20          21          22          23          24
    1  -0.0000091   0.0000056   0.0000053   0.0000026  -0.0000024  -0.0000053
    2  -0.0000029  -0.0000032  -0.0000020   0.0000002  -0.0000000   0.0000019
    3  -0.0000006   0.0000016   0.0000031   0.0000069  -0.0000030   0.0000012
           25          26          27          28          29
    1  -0.0000039  -0.0000014   0.0000061  -0.0000122   0.0000017
    2   0.0000001   0.0000014  -0.0000011   0.0000001  -0.0000008
    3  -0.0000067   0.0000064   0.0000098  -0.0000172  -0.0000097
 Max gradient component =       5.305E-05
 RMS gradient           =       1.181E-05
 Gradient time:  CPU 245.37 s  wall 17.42 s
 Geometry Optimization Parameters
   NAtoms,    NIC,     NZ,  NCons,   NDum,   NFix, NCnnct, MaxDiis
       29     227       0       0       0       0       0       0

 Cartesian Hessian Update
 Hessian Updated using BFGS Update


** GEOMETRY OPTIMIZATION IN DELOCALIZED INTERNAL COORDINATES **
   Searching for a Minimum

   Optimization Cycle:   2

                       Coordinates (Angstroms)
     ATOM                X               Y               Z
      1  C         0.4116250848   -2.4726295195   -0.0104695886
      2  C        -0.5207747757   -2.1455731906    1.2107115003
      3  C        -0.8843984250   -0.6941926830    1.4548926682
      4  C         0.9969710206   -1.2860286404   -0.7540333412
      5  O        -1.2025695687   -0.0480458216    0.3202345862
      6  O        -0.9419409342   -0.1922804474    2.5523420646
      7  O         1.6792661077   -0.4921087637    0.0997113871
      8  O         0.9356249772   -1.0958960191   -1.9414005570
      9  C         2.2749812228    0.6865573255   -0.4709721697
     10  C        -1.6077472257    1.3249497506    0.4532401067
     11  C        -0.5113487436   -3.3602086240   -0.8817735254
     12  C        -0.5975716381   -4.7674532599   -0.2544253112
     13  C        -1.4879118609   -4.4812453723    0.9938223214
     14  C        -1.7833354792   -2.9757575731    0.8078694046
     15  O        -1.8182062188   -2.8251090344   -0.6130777471
     16  H         1.2738617716   -3.0401705255    0.3508376494
     17  H        -0.0932011231   -2.5016345552    2.1462335043
     18  H         1.5104880241    1.3036749283   -0.9456584777
     19  H        -0.8139056994    1.9136213129    0.9161915112
     20  H        -0.3047490673   -3.3083478823   -1.9465796493
     21  H        -1.0903191671   -5.4553470801   -0.9426424909
     22  H         0.3809322193   -5.1815102169   -0.0029093461
     23  H        -2.4159821026   -5.0533788307    0.9606640120
     24  H        -0.9910152420   -4.6979319365    1.9414127354
     25  H        -2.7153840495   -2.6219101193    1.2438511869
     26  H         2.7324496268    1.2135597039    0.3632632498
     27  H         3.0268827052    0.4139420057   -1.2132050882
     28  H        -2.5093579065    1.3981926933    1.0630580972
     29  H        -1.8018835426    1.6663424051   -0.5609187130
   Point Group: c1    Number of degrees of freedom:    81


   Energy is   -765.862786107

 Hessian Updated using BFGS Update

 75 Hessian modes will be used to form the next step
  Hessian Eigenvalues:
     0.002873    0.003574    0.006917    0.007239    0.007794    0.010536
     0.010965    0.020742    0.022092    0.022484    0.023014    0.026393
     0.031526    0.036317    0.040271    0.041115    0.045262    0.050189
     0.051821    0.054925    0.055868    0.056593    0.059201    0.063870
     0.064503    0.065246    0.073781    0.075314    0.093189    0.096292
     0.097505    0.101346    0.101418    0.104859    0.105973    0.117505
     0.130448    0.159408    0.159997    0.161686    0.173470    0.236307
     0.240424    0.247517    0.248883    0.249736    0.249931    0.253539
     0.258143    0.273202    0.280845    0.305839    0.308047    0.338617
     0.344019    0.346009    0.346095    0.346190    0.346775    0.346812
     0.346964    0.347272    0.347316    0.349878    0.350309    0.350712
     0.350879    0.351024    0.352905    0.398226    0.399154    0.548362
     0.562519    1.008161    1.027716

 Minimum Search - Taking Simple RFO Step
 Searching for Lamda that Minimizes Along All modes
 Value Taken    Lamda =   0.00000000
 Step Taken.  Stepsize is  0.006803

                             Maximum     Tolerance    Cnvgd?
         Gradient           0.000018      0.000001      NO
         Displacement       0.002666      0.000001      NO
         Energy change     -0.000000      0.000000      NO


 New Cartesian Coordinates Obtained by Inverse Iteration

 Displacement from previous Coordinates is:  0.010434
 Adding empirical dispersion correction 
 ----------------------------------------------------------------
 Doing -D3(op) with
 s6 =   1.00000
 s8 =   0.78311
 a1 =   0.30000
 a2 =   4.25000
 n  =  10.00000
 -D3 energy without 3body term =     -0.0314764193 hartrees
 ----------------------------------------------------------------
             Standard Nuclear Orientation (Angstroms)
    I     Atom           X                Y                Z
 ----------------------------------------------------------------
    1      C       0.4116298387    -2.4726854896    -0.0102983860
    2      C      -0.5208920468    -2.1455815189     1.2107386587
    3      C      -0.8846905755    -0.6942168639     1.4548296983
    4      C       0.9973220765    -1.2862337011    -0.7538508556
    5      O      -1.2021492315    -0.0478840223     0.3200482366
    6      O      -0.9426436353    -0.1923359826     2.5522639930
    7      O       1.6790072493    -0.4919227737     0.0999994547
    8      O       0.9362206712    -1.0962192570    -1.9412584561
    9      C       2.2748180019     0.6866737928    -0.4707250922
   10      C      -1.6075308776     1.3250436007     0.4530442225
   11      C      -0.5113106499    -3.3602051647    -0.8817792009
   12      C      -0.5975915900    -4.7674821673    -0.2545733092
   13      C      -1.4878766901    -4.4813330851     0.9937325758
   14      C      -1.7834084955    -2.9758334135     0.8077899116
   15      O      -1.8181708807    -2.8251308203    -0.6131345883
   16      H       1.2737352060    -3.0403691714     0.3511136556
   17      H      -0.0934485493    -2.5015845735     2.1463455580
   18      H       1.5103295656     1.3039344895    -0.9452535902
   19      H      -0.8125674140     1.9143778317     0.9132734329
   20      H      -0.3045759546    -3.3082253418    -1.9465533846
   21      H      -1.0904789907    -5.4552230169    -0.9428507681
   22      H       0.3808703943    -5.1817035104    -0.0031587009
   23      H      -2.4158849810    -5.0535715095     0.9606919714
   24      H      -0.9908620279    -4.6979200743     1.9412856213
   25      H      -2.7154967778    -2.6220293856     1.2437204398
   26      H       2.7324970723     1.2136109786     0.3634403010
   27      H       3.0265398668     0.4140110902    -1.2131192583
   28      H      -2.5074072281     1.3985137984     1.0653585101
   29      H      -1.8045033564     1.6656052913    -0.5608506711
 ----------------------------------------------------------------
 Nuclear Repulsion Energy =  1124.2534779862 hartrees
 There are       57 alpha and       57 beta electrons
 Applying Cartesian multipole field
    Component          Value
    ---------          -----
     (2,0,0)        1.00000E-11
     (0,2,0)        2.00000E-12
     (0,0,2)       -3.00000E-11
 Nucleus-field energy     =    -0.0000000033 hartrees
 Requested basis set is 6-311++G(d,p)
 There are 160 shells and 428 basis functions
 A cutoff of  1.0D-11 yielded  10695 shell pairs
 There are     78213 function pairs (     83561 Cartesian)
 Smallest overlap matrix eigenvalue = 1.25E-06

 Q-Chem warning in module /fs/scratch/osu6415/qchem-kaunlao-vdw/stvman/mkSTV.C, line 281:

 Overlap eigenvalue is smaller than square root of threshold

 Guess MOs from SCF MO coefficient file
 Reading MOs from coefficient file
 Reading MOs from coefficient file
 A restricted hybrid HF-DFT SCF calculation will be
 performed using Pulay DIIS extrapolation
 Exchange:     0.2000 Hartree-Fock + 0.0800 Slater + 0.7200 B88
 Correlation:  0.1900 VWN1RPA + 0.8100 LYP
 Using SG-1 standard quadrature grid
 Dispersion:   Grimme D3
 SCF converges when DIIS error is below 1.0E-08
 Geometry optimization detected.  Setting ReadMinima to 0
 Setting SaveMinima to 0
 using 20 threads for integral computing
 -------------------------------------------------------
 OpenMP Integral computing Module                
 Release: version 1.0, May 2013, Q-Chem Inc. Pittsburgh 
 -------------------------------------------------------
 -------------------------------------------------------
 OpenMP BLAS3 based DFT computing Module                
 Release: version 1.0, May 2013, Q-Chem Inc. Pittsburgh 
 -------------------------------------------------------
 ---------------------------------------
  Cycle       Energy         DIIS Error
 ---------------------------------------
    1    -765.8627313322      1.07E-05
    2    -765.8627862241      1.07E-06
    3    -765.8627862137      1.65E-06
    4    -765.8627862605      3.74E-07
    5    -765.8627862620      1.64E-07
    6    -765.8627862627      4.44E-08
    7    -765.8627862625      1.50E-08
    8    -765.8627862656      2.86E-09 Convergence criterion met
 ---------------------------------------
 SCF time:  CPU 387.71 s  wall 20.39 s
 SCF   energy in the final basis set = -765.86278627
 Total energy in the final basis set = -765.86278627
 
 --------------------------------------------------------------
 
                    Orbital Energies (a.u.)
 --------------------------------------------------------------
 
 Alpha MOs
 -- Occupied --
-19.176 -19.174 -19.132 -19.120 -19.116 -10.310 -10.307 -10.240
-10.232 -10.232 -10.230 -10.208 -10.207 -10.183 -10.182  -1.121
 -1.114  -1.065  -1.032  -1.028  -0.833  -0.786  -0.777  -0.739
 -0.730  -0.659  -0.608  -0.597  -0.577  -0.567  -0.551  -0.520
 -0.506  -0.496  -0.489  -0.484  -0.477  -0.473  -0.462  -0.432
 -0.427  -0.425  -0.411  -0.399  -0.385  -0.376  -0.372  -0.368
 -0.363  -0.358  -0.339  -0.338  -0.320  -0.314  -0.291  -0.282
 -0.276
 -- Virtual --
 -0.020  -0.011  -0.006   0.001   0.007   0.011   0.014   0.020
  0.026   0.034   0.037   0.041   0.044   0.046   0.053   0.056
  0.068   0.072   0.080   0.086   0.088   0.095   0.097   0.098
  0.104   0.108   0.109   0.113   0.116   0.118   0.125   0.127
  0.131   0.132   0.135   0.137   0.142   0.147   0.148   0.152
  0.154   0.157   0.160   0.162   0.164   0.168   0.173   0.174
  0.181   0.184   0.185   0.190   0.195   0.202   0.206   0.207
  0.210   0.214   0.223   0.228   0.229   0.238   0.242   0.249
  0.254   0.265   0.266   0.271   0.277   0.281   0.290   0.293
  0.295   0.299   0.308   0.312   0.318   0.320   0.323   0.328
  0.336   0.337   0.341   0.352   0.353   0.356   0.362   0.365
  0.366   0.367   0.379   0.382   0.387   0.396   0.398   0.407
  0.411   0.416   0.426   0.433   0.446   0.459   0.478   0.489
  0.498   0.499   0.502   0.521   0.527   0.534   0.544   0.554
  0.565   0.567   0.583   0.592   0.594   0.605   0.617   0.624
  0.640   0.642   0.654   0.656   0.662   0.670   0.674   0.679
  0.688   0.696   0.700   0.712   0.717   0.722   0.735   0.740
  0.742   0.750   0.755   0.766   0.772   0.779   0.793   0.804
  0.816   0.827   0.832   0.840   0.882   0.889   0.940   0.951
  0.972   0.990   1.007   1.030   1.042   1.065   1.070   1.095
  1.112   1.121   1.136   1.154   1.162   1.185   1.198   1.202
  1.209   1.232   1.237   1.249   1.262   1.268   1.287   1.295
  1.307   1.324   1.343   1.351   1.358   1.378   1.389   1.401
  1.421   1.428   1.440   1.450   1.459   1.468   1.506   1.514
  1.520   1.531   1.539   1.548   1.558   1.560   1.575   1.586
  1.587   1.598   1.605   1.626   1.637   1.655   1.670   1.681
  1.684   1.699   1.703   1.713   1.719   1.729   1.747   1.757
  1.769   1.798   1.801   1.805   1.816   1.828   1.840   1.857
  1.869   1.880   1.894   1.903   1.922   1.942   1.952   1.963
  1.980   2.004   2.012   2.020   2.041   2.047   2.078   2.097
  2.111   2.121   2.138   2.142   2.162   2.170   2.174   2.194
  2.215   2.238   2.252   2.277   2.296   2.343   2.367   2.431
  2.452   2.455   2.469   2.470   2.491   2.506   2.511   2.521
  2.525   2.544   2.564   2.575   2.585   2.600   2.614   2.646
  2.662   2.677   2.710   2.724   2.743   2.763   2.771   2.791
  2.815   2.827   2.845   2.849   2.852   2.875   2.880   2.907
  2.914   2.921   2.951   2.974   2.992   3.016   3.029   3.041
  3.050   3.069   3.073   3.095   3.112   3.131   3.139   3.154
  3.194   3.212   3.230   3.236   3.249   3.259   3.303   3.341
  3.349   3.382   3.390   3.399   3.446   3.591   3.596   3.649
  3.687   3.713   3.776   3.782   3.831   3.853   3.915   3.936
  4.011   4.042   4.057   4.068   4.089   4.124   4.141   4.158
  4.168   4.212   4.247   4.399   4.495   5.025   5.097   5.137
  5.174   5.204   5.241   5.261   5.405   5.426   5.499   5.596
  5.636   5.647   5.869   5.885  23.823  23.837  23.848  23.884
 23.898  23.929  23.941  23.947  23.970  24.048  49.902  49.935
 49.960  50.031  50.036
 --------------------------------------------------------------
 
          Ground-State Mulliken Net Atomic Charges

     Atom                 Charge (a.u.)
  ----------------------------------------
      1 C                    -0.056552
      2 C                     0.640575
      3 C                    -0.774118
      4 C                    -0.521397
      5 O                    -0.026023
      6 O                    -0.176898
      7 O                    -0.018009
      8 O                    -0.209620
      9 C                    -0.204418
     10 C                    -0.224468
     11 C                    -0.044062
     12 C                    -0.502724
     13 C                    -0.451858
     14 C                    -0.021260
     15 O                    -0.139302
     16 H                     0.235639
     17 H                     0.283710
     18 H                     0.180144
     19 H                     0.185496
     20 H                     0.279894
     21 H                     0.189369
     22 H                     0.124914
     23 H                     0.183714
     24 H                     0.125484
     25 H                     0.257673
     26 H                     0.162223
     27 H                     0.174568
     28 H                     0.176552
     29 H                     0.170754
  ----------------------------------------
  Sum of atomic charges =     0.000000

 -----------------------------------------------------------------
                    Cartesian Multipole Moments
 -----------------------------------------------------------------
    Charge (ESU x 10^10)
                 0.0000
    Dipole Moment (Debye)
         X       1.1489      Y      -0.5890      Z       0.5102
       Tot       1.3882
    Quadrupole Moments (Debye-Ang)
        XX     -84.8142     XY      -0.7512     YY     -72.0135
        XZ      -0.9164     YZ      -6.0960     ZZ    -102.9415
    Octopole Moments (Debye-Ang^2)
       XXX      93.9340    XXY     155.7828    XYY      26.7164
       YYY     388.9962    XXZ     -11.0884    XYZ       6.8254
       YYZ      -7.1272    XZZ      32.8351    YZZ     146.5076
       ZZZ     -72.1462
    Hexadecapole Moments (Debye-Ang^3)
      XXXX   -1034.7690   XXXY    -343.6326   XXYY    -734.3557
      XYYY    -325.4768   YYYY   -3253.7310   XXXZ     147.5680
      XXYZ      -9.4138   XYYZ      44.4924   YYYZ      38.2773
      XXZZ    -316.4768   XYZZ    -108.6946   YYZZ    -678.7551
      XZZZ     233.9812   YZZZ      35.0527   ZZZZ    -881.0315
 -----------------------------------------------------------------
 Calculating analytic gradient of the SCF energy
 Gradient of SCF Energy
            1           2           3           4           5           6
    1  -0.0000079   0.0000045  -0.0000003   0.0000290   0.0000046  -0.0000063
    2   0.0000099  -0.0000080  -0.0000085  -0.0000333   0.0000097   0.0000103
    3   0.0000096   0.0000048   0.0000138  -0.0000005  -0.0000044  -0.0000155
            7           8           9          10          11          12
    1  -0.0000252  -0.0000013   0.0000060   0.0000043  -0.0000110   0.0000120
    2   0.0000127   0.0000119  -0.0000014  -0.0000031  -0.0000126   0.0000048
    3   0.0000033   0.0000015   0.0000104  -0.0000106  -0.0000003   0.0000033
           13          14          15          16          17          18
    1  -0.0000074  -0.0000046   0.0000064  -0.0000013  -0.0000074   0.0000041
    2  -0.0000065   0.0000065  -0.0000101   0.0000005   0.0000007   0.0000019
    3  -0.0000062  -0.0000086  -0.0000011   0.0000100   0.0000035   0.0000012
           19          20          21          22          23          24
    1  -0.0000031   0.0000095   0.0000019   0.0000036  -0.0000016  -0.0000038
    2   0.0000017  -0.0000020  -0.0000008  -0.0000034  -0.0000022   0.0000045
    3  -0.0000055   0.0000017   0.0000016   0.0000072  -0.0000015   0.0000013
           25          26          27          28          29
    1  -0.0000037   0.0000008   0.0000045  -0.0000065   0.0000003
    2   0.0000022   0.0000067   0.0000006   0.0000021   0.0000050
    3  -0.0000076   0.0000049   0.0000073  -0.0000131  -0.0000107
 Max gradient component =       3.325E-05
 RMS gradient           =       8.470E-06
 Gradient time:  CPU 248.03 s  wall 18.05 s
 Geometry Optimization Parameters
   NAtoms,    NIC,     NZ,  NCons,   NDum,   NFix, NCnnct, MaxDiis
       29     227       0       0       0       0       0       0

 Cartesian Hessian Update
 Hessian Updated using BFGS Update


** GEOMETRY OPTIMIZATION IN DELOCALIZED INTERNAL COORDINATES **
   Searching for a Minimum

   Optimization Cycle:   3

                       Coordinates (Angstroms)
     ATOM                X               Y               Z
      1  C         0.4116298387   -2.4726854896   -0.0102983860
      2  C        -0.5208920468   -2.1455815189    1.2107386587
      3  C        -0.8846905755   -0.6942168639    1.4548296983
      4  C         0.9973220765   -1.2862337011   -0.7538508556
      5  O        -1.2021492315   -0.0478840223    0.3200482366
      6  O        -0.9426436353   -0.1923359826    2.5522639930
      7  O         1.6790072493   -0.4919227737    0.0999994547
      8  O         0.9362206712   -1.0962192570   -1.9412584561
      9  C         2.2748180019    0.6866737928   -0.4707250922
     10  C        -1.6075308776    1.3250436007    0.4530442225
     11  C        -0.5113106499   -3.3602051647   -0.8817792009
     12  C        -0.5975915900   -4.7674821673   -0.2545733092
     13  C        -1.4878766901   -4.4813330851    0.9937325758
     14  C        -1.7834084955   -2.9758334135    0.8077899116
     15  O        -1.8181708807   -2.8251308203   -0.6131345883
     16  H         1.2737352060   -3.0403691714    0.3511136556
     17  H        -0.0934485493   -2.5015845735    2.1463455580
     18  H         1.5103295656    1.3039344895   -0.9452535902
     19  H        -0.8125674140    1.9143778317    0.9132734329
     20  H        -0.3045759546   -3.3082253418   -1.9465533846
     21  H        -1.0904789907   -5.4552230169   -0.9428507681
     22  H         0.3808703943   -5.1817035104   -0.0031587009
     23  H        -2.4158849810   -5.0535715095    0.9606919714
     24  H        -0.9908620279   -4.6979200743    1.9412856213
     25  H        -2.7154967778   -2.6220293856    1.2437204398
     26  H         2.7324970723    1.2136109786    0.3634403010
     27  H         3.0265398668    0.4140110902   -1.2131192583
     28  H        -2.5074072281    1.3985137984    1.0653585101
     29  H        -1.8045033564    1.6656052913   -0.5608506711
   Point Group: c1    Number of degrees of freedom:    81


   Energy is   -765.862786266

 Hessian Updated using BFGS Update

 77 Hessian modes will be used to form the next step
  Hessian Eigenvalues:
     0.001339    0.003936    0.006957    0.007243    0.009595    0.010545
     0.011129    0.022087    0.022192    0.022969    0.026379    0.031164
     0.036029    0.036890    0.040169    0.041125    0.045521    0.050008
     0.051944    0.054904    0.056124    0.056584    0.059232    0.063663
     0.064503    0.065075    0.073787    0.075327    0.093199    0.096367
     0.097847    0.101368    0.101453    0.104761    0.105973    0.117245
     0.127868    0.159262    0.159997    0.160211    0.161972    0.171485
     0.236277    0.239829    0.247489    0.249092    0.249736    0.249942
     0.250306    0.254189    0.258665    0.274442    0.280858    0.306053
     0.308475    0.338298    0.344011    0.345996    0.346155    0.346219
     0.346782    0.346817    0.346940    0.347266    0.347329    0.349902
     0.350309    0.350824    0.350916    0.351325    0.352910    0.398326
     0.399082    0.548365    0.563808    1.008600    1.028057

 Minimum Search - Taking Simple RFO Step
 Searching for Lamda that Minimizes Along All modes
 Value Taken    Lamda =   0.00000000
 Step Taken.  Stepsize is  0.009146

                             Maximum     Tolerance    Cnvgd?
         Gradient           0.000044      0.000001      NO
         Displacement       0.003585      0.000001      NO
         Energy change     -0.000000      0.000000      NO


 New Cartesian Coordinates Obtained by Inverse Iteration

 Displacement from previous Coordinates is:  0.029556
 Adding empirical dispersion correction 
 ----------------------------------------------------------------
 Doing -D3(op) with
 s6 =   1.00000
 s8 =   0.78311
 a1 =   0.30000
 a2 =   4.25000
 n  =  10.00000
 -D3 energy without 3body term =     -0.0314634317 hartrees
 ----------------------------------------------------------------
             Standard Nuclear Orientation (Angstroms)
    I     Atom           X                Y                Z
 ----------------------------------------------------------------
    1      C       0.4114862312    -2.4720736883    -0.0100889817
    2      C      -0.5210202632    -2.1449205222     1.2109296443
    3      C      -0.8856387323    -0.6937125935     1.4547173559
    4      C       0.9979284489    -1.2858790571    -0.7534666643
    5      O      -1.2040858422    -0.0479312083     0.3198739360
    6      O      -0.9439418192    -0.1917076110     2.5520715157
    7      O       1.6810126092    -0.4926620298     0.1002580958
    8      O       0.9371300673    -1.0958821749    -1.9409003878
    9      C       2.2783784643     0.6850910183    -0.4705464709
   10      C      -1.6111461506     1.3244930593     0.4527753770
   11      C      -0.5116635712    -3.3592051413    -0.8818139116
   12      C      -0.5976315368    -4.7667446205    -0.2552257489
   13      C      -1.4871721622    -4.4811028714     0.9937261718
   14      C      -1.7833262042    -2.9756377786     0.8082542775
   15      O      -1.8185265907    -2.8244549901    -0.6125887183
   16      H       1.2733359765    -3.0402139971     0.3512317652
   17      H      -0.0933984457    -2.5005374765     2.1466028501
   18      H       1.5144953040     1.3039762482    -0.9439507994
   19      H      -0.8151012900     1.9156847767     0.9087915001
   20      H      -0.3051443164    -3.3067025296    -1.9466032176
   21      H      -1.0909745512    -5.4541282307    -0.9435393942
   22      H       0.3809434922    -5.1811494068    -0.0045664594
   23      H      -2.4150051051    -5.0536495007     0.9612131876
   24      H      -0.9894543117    -4.6976792804     1.9409147799
   25      H      -2.7153985516    -2.6222668313     1.2445658969
   26      H       2.7378982079     1.2108013528     0.3633813304
   27      H       3.0287893153     0.4114289516    -1.2138940202
   28      H      -2.5084481556     1.3974135257     1.0688806115
   29      H      -1.8128405266     1.6634326374    -0.5607335415
 ----------------------------------------------------------------
 Nuclear Repulsion Energy =  1124.1556940763 hartrees
 There are       57 alpha and       57 beta electrons
 Applying Cartesian multipole field
    Component          Value
    ---------          -----
     (2,0,0)        1.00000E-11
     (0,2,0)        2.00000E-12
     (0,0,2)       -3.00000E-11
 Nucleus-field energy     =    -0.0000000032 hartrees
 Requested basis set is 6-311++G(d,p)
 There are 160 shells and 428 basis functions
 A cutoff of  1.0D-11 yielded  10693 shell pairs
 There are     78173 function pairs (     83513 Cartesian)
 Smallest overlap matrix eigenvalue = 1.25E-06

 Q-Chem warning in module /fs/scratch/osu6415/qchem-kaunlao-vdw/stvman/mkSTV.C, line 281:

 Overlap eigenvalue is smaller than square root of threshold

 Guess MOs from SCF MO coefficient file
 Reading MOs from coefficient file
 Reading MOs from coefficient file
 A restricted hybrid HF-DFT SCF calculation will be
 performed using Pulay DIIS extrapolation
 Exchange:     0.2000 Hartree-Fock + 0.0800 Slater + 0.7200 B88
 Correlation:  0.1900 VWN1RPA + 0.8100 LYP
 Using SG-1 standard quadrature grid
 Dispersion:   Grimme D3
 SCF converges when DIIS error is below 1.0E-08
 Geometry optimization detected.  Setting ReadMinima to 0
 Setting SaveMinima to 0
 using 20 threads for integral computing
 -------------------------------------------------------
 OpenMP Integral computing Module                
 Release: version 1.0, May 2013, Q-Chem Inc. Pittsburgh 
 -------------------------------------------------------
 -------------------------------------------------------
 OpenMP BLAS3 based DFT computing Module                
 Release: version 1.0, May 2013, Q-Chem Inc. Pittsburgh 
 -------------------------------------------------------
 ---------------------------------------
  Cycle       Energy         DIIS Error
 ---------------------------------------
    1    -765.8622937161      2.47E-05
    2    -765.8627850791      3.24E-06
    3    -765.8627848981      4.98E-06
    4    -765.8627853412      1.32E-06
    5    -765.8627853653      4.54E-07
    6    -765.8627853688      1.19E-07
    7    -765.8627853694      5.03E-08
    8    -765.8627853687      1.16E-08
    9    -765.8627853707      2.85E-09 Convergence criterion met
 ---------------------------------------
 SCF time:  CPU 442.49 s  wall 23.56 s
 SCF   energy in the final basis set = -765.86278537
 Total energy in the final basis set = -765.86278537
 
 --------------------------------------------------------------
 
                    Orbital Energies (a.u.)
 --------------------------------------------------------------
 
 Alpha MOs
 -- Occupied --
-19.176 -19.174 -19.132 -19.120 -19.116 -10.310 -10.307 -10.240
-10.232 -10.232 -10.230 -10.208 -10.207 -10.183 -10.182  -1.121
 -1.114  -1.065  -1.032  -1.028  -0.833  -0.786  -0.777  -0.739
 -0.730  -0.659  -0.608  -0.597  -0.577  -0.567  -0.551  -0.520
 -0.506  -0.496  -0.489  -0.484  -0.477  -0.473  -0.462  -0.432
 -0.427  -0.425  -0.411  -0.399  -0.385  -0.376  -0.372  -0.368
 -0.363  -0.358  -0.339  -0.338  -0.320  -0.314  -0.291  -0.282
 -0.276
 -- Virtual --
 -0.020  -0.012  -0.006   0.001   0.007   0.011   0.014   0.020
  0.026   0.034   0.037   0.041   0.044   0.046   0.053   0.056
  0.068   0.072   0.080   0.086   0.088   0.095   0.097   0.098
  0.104   0.108   0.110   0.113   0.116   0.118   0.125   0.127
  0.131   0.132   0.135   0.137   0.142   0.147   0.148   0.152
  0.154   0.157   0.160   0.162   0.164   0.168   0.173   0.174
  0.181   0.184   0.185   0.190   0.195   0.202   0.206   0.207
  0.210   0.214   0.223   0.228   0.229   0.238   0.242   0.249
  0.254   0.265   0.266   0.270   0.277   0.281   0.290   0.293
  0.295   0.299   0.308   0.312   0.319   0.320   0.323   0.328
  0.336   0.337   0.341   0.352   0.354   0.356   0.362   0.365
  0.366   0.367   0.379   0.382   0.387   0.396   0.398   0.407
  0.411   0.416   0.426   0.433   0.446   0.459   0.478   0.489
  0.498   0.499   0.501   0.521   0.527   0.534   0.543   0.554
  0.565   0.567   0.583   0.592   0.594   0.605   0.617   0.624
  0.640   0.642   0.654   0.656   0.662   0.670   0.674   0.679
  0.688   0.696   0.700   0.712   0.717   0.722   0.735   0.740
  0.742   0.750   0.755   0.766   0.772   0.779   0.793   0.804
  0.816   0.827   0.832   0.840   0.882   0.889   0.940   0.951
  0.972   0.990   1.007   1.030   1.042   1.065   1.070   1.095
  1.112   1.121   1.136   1.154   1.162   1.185   1.198   1.202
  1.209   1.232   1.237   1.249   1.262   1.268   1.287   1.295
  1.307   1.324   1.343   1.351   1.358   1.378   1.389   1.400
  1.421   1.429   1.440   1.450   1.459   1.468   1.506   1.514
  1.520   1.531   1.539   1.548   1.558   1.561   1.575   1.586
  1.587   1.597   1.605   1.626   1.637   1.655   1.670   1.681
  1.684   1.699   1.703   1.713   1.719   1.729   1.747   1.757
  1.769   1.798   1.801   1.805   1.816   1.828   1.840   1.857
  1.869   1.880   1.894   1.903   1.922   1.942   1.952   1.963
  1.980   2.004   2.012   2.019   2.041   2.047   2.078   2.097
  2.110   2.121   2.138   2.142   2.162   2.170   2.174   2.194
  2.215   2.238   2.252   2.277   2.296   2.343   2.367   2.431
  2.452   2.455   2.469   2.470   2.491   2.506   2.511   2.521
  2.524   2.543   2.564   2.575   2.585   2.600   2.614   2.646
  2.662   2.676   2.710   2.724   2.743   2.763   2.771   2.791
  2.815   2.827   2.845   2.849   2.851   2.875   2.880   2.907
  2.914   2.921   2.951   2.974   2.992   3.016   3.029   3.041
  3.050   3.069   3.073   3.095   3.112   3.131   3.139   3.154
  3.194   3.212   3.230   3.236   3.249   3.259   3.303   3.341
  3.349   3.382   3.390   3.399   3.446   3.591   3.596   3.649
  3.687   3.713   3.776   3.782   3.831   3.853   3.915   3.936
  4.011   4.042   4.057   4.068   4.089   4.124   4.141   4.158
  4.168   4.212   4.247   4.399   4.495   5.026   5.097   5.137
  5.173   5.204   5.241   5.261   5.405   5.426   5.499   5.596
  5.636   5.647   5.869   5.885  23.823  23.837  23.848  23.884
 23.898  23.929  23.941  23.947  23.970  24.048  49.902  49.935
 49.960  50.031  50.036
 --------------------------------------------------------------
 
          Ground-State Mulliken Net Atomic Charges

     Atom                 Charge (a.u.)
  ----------------------------------------
      1 C                    -0.058992
      2 C                     0.643322
      3 C                    -0.775158
      4 C                    -0.521656
      5 O                    -0.025785
      6 O                    -0.176868
      7 O                    -0.018138
      8 O                    -0.209413
      9 C                    -0.204130
     10 C                    -0.224035
     11 C                    -0.042684
     12 C                    -0.503438
     13 C                    -0.450947
     14 C                    -0.022634
     15 O                    -0.139213
     16 H                     0.235673
     17 H                     0.283703
     18 H                     0.179975
     19 H                     0.185256
     20 H                     0.279929
     21 H                     0.189396
     22 H                     0.124896
     23 H                     0.183705
     24 H                     0.125539
     25 H                     0.257661
     26 H                     0.162219
     27 H                     0.174535
     28 H                     0.176556
     29 H                     0.170729
  ----------------------------------------
  Sum of atomic charges =     0.000000

 -----------------------------------------------------------------
                    Cartesian Multipole Moments
 -----------------------------------------------------------------
    Charge (ESU x 10^10)
                 0.0000
    Dipole Moment (Debye)
         X       1.1492      Y      -0.5906      Z       0.5093
       Tot       1.3888
    Quadrupole Moments (Debye-Ang)
        XX     -84.7987     XY      -0.7524     YY     -72.0227
        XZ      -0.9135     YZ      -6.0953     ZZ    -102.9359
    Octopole Moments (Debye-Ang^2)
       XXX      93.9836    XXY     155.7998    XYY      26.7082
       YYY     388.9772    XXZ     -11.1024    XYZ       6.8266
       YYZ      -7.1391    XZZ      32.8318    YZZ     146.4713
       ZZZ     -72.1620
    Hexadecapole Moments (Debye-Ang^3)
      XXXX   -1036.3972   XXXY    -343.4078   XXYY    -734.4437
      XYYY    -325.2361   YYYY   -3252.6740   XXXZ     147.7093
      XXYZ      -9.4125   XYYZ      44.5415   YYYZ      38.2475
      XXZZ    -316.7270   XYZZ    -108.6038   YYZZ    -678.5545
      XZZZ     234.1554   YZZZ      35.0353   ZZZZ    -880.8799
 -----------------------------------------------------------------
 Calculating analytic gradient of the SCF energy
 Gradient of SCF Energy
            1           2           3           4           5           6
    1   0.0000288  -0.0000109   0.0000346  -0.0000602  -0.0000634  -0.0000294
    2  -0.0000098   0.0000121   0.0000036   0.0000635   0.0000276  -0.0000021
    3   0.0000212  -0.0000143   0.0000286   0.0000303  -0.0000114  -0.0000224
            7           8           9          10          11          12
    1   0.0000630   0.0000435   0.0000075  -0.0000147  -0.0000152   0.0000101
    2  -0.0000226  -0.0000261  -0.0000207  -0.0000305  -0.0000108   0.0000084
    3  -0.0000273  -0.0000059   0.0000117  -0.0000073  -0.0000052   0.0000010
           13          14          15          16          17          18
    1  -0.0000000  -0.0000185   0.0000165   0.0000032  -0.0000083  -0.0000058
    2  -0.0000124  -0.0000071   0.0000128  -0.0000101  -0.0000019   0.0000017
    3  -0.0000005  -0.0000060   0.0000158   0.0000008   0.0000034   0.0000061
           19          20          21          22          23          24
    1   0.0000045   0.0000139   0.0000021   0.0000014  -0.0000003  -0.0000044
    2   0.0000058  -0.0000031  -0.0000014  -0.0000019  -0.0000023   0.0000043
    3  -0.0000097   0.0000022  -0.0000003   0.0000083  -0.0000026   0.0000025
           25          26          27          28          29
    1  -0.0000022   0.0000037   0.0000007   0.0000011  -0.0000015
    2   0.0000058   0.0000038   0.0000024   0.0000069   0.0000042
    3  -0.0000099   0.0000061   0.0000054  -0.0000087  -0.0000119
 Max gradient component =       6.353E-05
 RMS gradient           =       1.903E-05
 Gradient time:  CPU 245.77 s  wall 17.61 s
 Geometry Optimization Parameters
   NAtoms,    NIC,     NZ,  NCons,   NDum,   NFix, NCnnct, MaxDiis
       29     227       0       0       0       0       0       0

 Cartesian Hessian Update
 Hessian Updated using BFGS Update


** GEOMETRY OPTIMIZATION IN DELOCALIZED INTERNAL COORDINATES **
   Searching for a Minimum

   Optimization Cycle:   4

                       Coordinates (Angstroms)
     ATOM                X               Y               Z
      1  C         0.4114862312   -2.4720736883   -0.0100889817
      2  C        -0.5210202632   -2.1449205222    1.2109296443
      3  C        -0.8856387323   -0.6937125935    1.4547173559
      4  C         0.9979284489   -1.2858790571   -0.7534666643
      5  O        -1.2040858422   -0.0479312083    0.3198739360
      6  O        -0.9439418192   -0.1917076110    2.5520715157
      7  O         1.6810126092   -0.4926620298    0.1002580958
      8  O         0.9371300673   -1.0958821749   -1.9409003878
      9  C         2.2783784643    0.6850910183   -0.4705464709
     10  C        -1.6111461506    1.3244930593    0.4527753770
     11  C        -0.5116635712   -3.3592051413   -0.8818139116
     12  C        -0.5976315368   -4.7667446205   -0.2552257489
     13  C        -1.4871721622   -4.4811028714    0.9937261718
     14  C        -1.7833262042   -2.9756377786    0.8082542775
     15  O        -1.8185265907   -2.8244549901   -0.6125887183
     16  H         1.2733359765   -3.0402139971    0.3512317652
     17  H        -0.0933984457   -2.5005374765    2.1466028501
     18  H         1.5144953040    1.3039762482   -0.9439507994
     19  H        -0.8151012900    1.9156847767    0.9087915001
     20  H        -0.3051443164   -3.3067025296   -1.9466032176
     21  H        -1.0909745512   -5.4541282307   -0.9435393942
     22  H         0.3809434922   -5.1811494068   -0.0045664594
     23  H        -2.4150051051   -5.0536495007    0.9612131876
     24  H        -0.9894543117   -4.6976792804    1.9409147799
     25  H        -2.7153985516   -2.6222668313    1.2445658969
     26  H         2.7378982079    1.2108013528    0.3633813304
     27  H         3.0287893153    0.4114289516   -1.2138940202
     28  H        -2.5084481556    1.3974135257    1.0688806115
     29  H        -1.8128405266    1.6634326374   -0.5607335415
   Point Group: c1    Number of degrees of freedom:    81


   Energy is   -765.862785371

 Hessian Updated using BFGS Update

 79 Hessian modes will be used to form the next step
  Hessian Eigenvalues:
     0.002297    0.003942    0.006946    0.007299    0.010477    0.010988
     0.012663    0.022093    0.022356    0.022927    0.026464    0.031423
     0.036323    0.040158    0.040974    0.045347    0.049395    0.051884
     0.054799    0.055800    0.056469    0.058506    0.061113    0.064234
     0.064623    0.066031    0.073859    0.075550    0.093201    0.096322
     0.099656    0.101363    0.101423    0.104902    0.106000    0.117657
     0.136240    0.159965    0.159999    0.160081    0.160342    0.165053
     0.180674    0.236406    0.244150    0.247954    0.249733    0.249839
     0.249946    0.250135    0.250960    0.254223    0.258568    0.273686
     0.280806    0.306258    0.308154    0.338984    0.344044    0.345989
     0.346157    0.346213    0.346797    0.346812    0.346923    0.347260
     0.347315    0.349890    0.350309    0.350877    0.350982    0.351051
     0.352905    0.398329    0.399575    0.548421    0.563920    1.008438
     1.027945

 Minimum Search - Taking Simple RFO Step
 Searching for Lamda that Minimizes Along All modes
 Value Taken    Lamda =   0.00000000
 Step Taken.  Stepsize is  0.007028

                             Maximum     Tolerance    Cnvgd?
         Gradient           0.000137      0.000001      NO
         Displacement       0.002925      0.000001      NO
         Energy change      0.000001      0.000000      NO


 New Cartesian Coordinates Obtained by Inverse Iteration

 Displacement from previous Coordinates is:  0.022579
 Adding empirical dispersion correction 
 ----------------------------------------------------------------
 Doing -D3(op) with
 s6 =   1.00000
 s8 =   0.78311
 a1 =   0.30000
 a2 =   4.25000
 n  =  10.00000
 -D3 energy without 3body term =     -0.0314739510 hartrees
 ----------------------------------------------------------------
             Standard Nuclear Orientation (Angstroms)
    I     Atom           X                Y                Z
 ----------------------------------------------------------------
    1      C       0.4115475083    -2.4724856622    -0.0102894664
    2      C      -0.5208936906    -2.1454112857     1.2108070518
    3      C      -0.8849570337    -0.6941197751     1.4548011802
    4      C       0.9973306360    -1.2860405394    -0.7537480711
    5      O      -1.2024528555    -0.0479437692     0.3199494427
    6      O      -0.9430585485    -0.1922301672     2.5522280377
    7      O       1.6794756126    -0.4921279560     0.1000978354
    8      O       0.9362514417    -1.0959832739    -1.9411495212
    9      C       2.2757236493     0.6862402503    -0.4706162128
   10      C      -1.6083657472     1.3248307184     0.4528551301
   11      C      -0.5114867899    -3.3598748642    -0.8817929480
   12      C      -0.5976387729    -4.7672465416    -0.2547747972
   13      C      -1.4876247923    -4.4812702505     0.9937804755
   14      C      -1.7833524087    -2.9757974063     0.8080143356
   15      O      -1.8183457869    -2.8249171768    -0.6128884866
   16      H       1.2736349076    -3.0402621556     0.3510167936
   17      H      -0.0933257143    -2.5012766128     2.1464066722
   18      H       1.5114400857     1.3038920003    -0.9449614210
   19      H      -0.8133038490     1.9146628452     0.9122807502
   20      H      -0.3049059051    -3.3077295008    -1.9465873503
   21      H      -1.0906609440    -5.4549046478    -0.9430360433
   22      H       0.3808831727    -5.1814802035    -0.0036336752
   23      H      -2.4155985787    -5.0535700803     0.9609144005
   24      H      -0.9903705170    -4.6979032876     1.9411978601
   25      H      -2.7154090850    -2.6221517516     1.2441385190
   26      H       2.7337617625     1.2128541282     0.3635511384
   27      H       3.0272064394     0.4132949498    -1.2131473284
   28      H      -2.5077842484     1.3980690110     1.0658578105
   29      H      -1.8062399581     1.6649630350    -0.5610021319
 ----------------------------------------------------------------
 Nuclear Repulsion Energy =  1124.2428398982 hartrees
 There are       57 alpha and       57 beta electrons
 Applying Cartesian multipole field
    Component          Value
    ---------          -----
     (2,0,0)        1.00000E-11
     (0,2,0)        2.00000E-12
     (0,0,2)       -3.00000E-11
 Nucleus-field energy     =    -0.0000000033 hartrees
 Requested basis set is 6-311++G(d,p)
 There are 160 shells and 428 basis functions
 A cutoff of  1.0D-11 yielded  10695 shell pairs
 There are     78213 function pairs (     83561 Cartesian)
 Smallest overlap matrix eigenvalue = 1.25E-06

 Q-Chem warning in module /fs/scratch/osu6415/qchem-kaunlao-vdw/stvman/mkSTV.C, line 281:

 Overlap eigenvalue is smaller than square root of threshold

 Guess MOs from SCF MO coefficient file
 Reading MOs from coefficient file
 Reading MOs from coefficient file
 A restricted hybrid HF-DFT SCF calculation will be
 performed using Pulay DIIS extrapolation
 Exchange:     0.2000 Hartree-Fock + 0.0800 Slater + 0.7200 B88
 Correlation:  0.1900 VWN1RPA + 0.8100 LYP
 Using SG-1 standard quadrature grid
 Dispersion:   Grimme D3
 SCF converges when DIIS error is below 1.0E-08
 Geometry optimization detected.  Setting ReadMinima to 0
 Setting SaveMinima to 0
 using 20 threads for integral computing
 -------------------------------------------------------
 OpenMP Integral computing Module                
 Release: version 1.0, May 2013, Q-Chem Inc. Pittsburgh 
 -------------------------------------------------------
 -------------------------------------------------------
 OpenMP BLAS3 based DFT computing Module                
 Release: version 1.0, May 2013, Q-Chem Inc. Pittsburgh 
 -------------------------------------------------------
 ---------------------------------------
  Cycle       Energy         DIIS Error
 ---------------------------------------
    1    -765.8631583862      1.85E-05
    2    -765.8627859700      2.35E-06
    3    -765.8627858797      3.62E-06
    4    -765.8627861120      9.65E-07
[...]
     0.00135086     -0.00067103     -0.00069525
     0.09570953      0.10953928      0.17724415
     0.22484918     -0.08711618     -0.21709877
     0.43458605     -0.02351228     -0.29094662
     0.06576025     -0.11107522      0.34119278
vibration 69
     0.00228471     -0.00137625      0.00101465
    -0.00022352      0.00020372     -0.00046332
     0.00021394     -0.00037616      0.00154043
    -0.00098458     -0.00114267     -0.00201713
    -0.00039932      0.00132553     -0.00039161
     0.00003233     -0.00025342     -0.00051332
     0.00113344      0.00204687     -0.00012065
     0.00004103     -0.00014323      0.00085525
     0.01042697      0.02715727     -0.02432518
    -0.00458013      0.02114216      0.00930172
    -0.00003661     -0.00005191      0.00001507
    -0.00073129      0.00107876      0.00028541
     0.00015444      0.00007801     -0.00000763
    -0.00000699     -0.00008807     -0.00003327
     0.00002582      0.00003626      0.00001042
    -0.02592590      0.01749893     -0.01122515
     0.00225025     -0.00152486      0.00513569
     0.39100278     -0.30589711      0.23151720
    -0.25405381     -0.18117504     -0.14195769
     0.00020504      0.00007911     -0.00100055
    -0.00527988     -0.00648262     -0.00696276
     0.01404746     -0.00565496      0.00387093
    -0.00153434     -0.00084588     -0.00004906
    -0.00000272     -0.00001549      0.00004231
    -0.00048503      0.00025862      0.00027444
    -0.15506109     -0.17754241     -0.28711827
    -0.36824507      0.14216115      0.35646356
     0.27163020     -0.01512024     -0.18228231
     0.04063127     -0.06869322      0.21073100
vibration 70
     0.03646690     -0.02461233      0.01548718
    -0.00247721      0.00219342     -0.00517391
    -0.00013630      0.00011770     -0.00001145
     0.00084476     -0.00024376      0.00096402
    -0.00001744      0.00001169      0.00001414
     0.00002107     -0.00004199     -0.00001273
    -0.00011150     -0.00004929     -0.00003337
    -0.00003761     -0.00001678     -0.00037209
    -0.00064198     -0.00142607      0.00116295
    -0.00004088      0.00013818      0.00007619
     0.00025440     -0.00103503     -0.00149348
    -0.02794058      0.03964808      0.00935173
    -0.00564515     -0.01703553      0.02164362
     0.00143672     -0.00056645     -0.00076821
    -0.00007873      0.00007059     -0.00005502
    -0.43427063      0.29793869     -0.19012613
     0.02965797     -0.02487592      0.06235314
    -0.01883472      0.01517192     -0.01136366
    -0.00162962     -0.00115980     -0.00091097
    -0.00370433      0.00206988      0.01699864
    -0.19602325     -0.24510089     -0.25421748
     0.52487959     -0.21094211      0.14568048
     0.22058740      0.13355599      0.01593314
    -0.15296827      0.06033830     -0.27392119
    -0.01754009      0.00573377      0.00903214
     0.00771218      0.00876748      0.01429895
     0.01823392     -0.00690671     -0.01755172
     0.00195572     -0.00016319     -0.00130546
     0.00025193     -0.00041992      0.00136659
vibration 71
    -0.04941175      0.03281726     -0.02126317
     0.00210979     -0.00143039      0.00356649
     0.00013711     -0.00014476     -0.00010430
    -0.00102851      0.00033714     -0.00111652
     0.00000309      0.00000134     -0.00001405
    -0.00000974      0.00005033      0.00002279
     0.00012418      0.00004329      0.00001878
     0.00005343      0.00005688      0.00045569
     0.00061365      0.00101574     -0.00082393
     0.00010522     -0.00024240     -0.00013907
     0.00023471      0.00065130     -0.00127888
    -0.00454494      0.01852703      0.00820153
    -0.01002879     -0.02380290      0.02956770
     0.00204691     -0.00011325     -0.00115031
     0.00027468     -0.00013272     -0.00008799
     0.58840746     -0.40166552      0.25809576
    -0.02243026      0.01711499     -0.04401328
     0.01257707     -0.01042241      0.00771340
     0.00262799      0.00192778      0.00149603
    -0.00462906      0.00008973      0.01654584
    -0.11113201     -0.14688369     -0.14820985
     0.16945992     -0.06850188      0.04906004
     0.31920948      0.19299119      0.02248982
    -0.20471903      0.07999479     -0.36823792
    -0.02166567      0.00624869      0.01168082
    -0.00545596     -0.00614399     -0.01020559
    -0.01361698      0.00510316      0.01305329
    -0.00363241      0.00028884      0.00247187
    -0.00044607      0.00075193     -0.00228565
vibration 72
    -0.01753283      0.01141882     -0.00778004
     0.00247102     -0.00236076      0.00558513
     0.00012840     -0.00015468      0.00002503
    -0.00036300      0.00006338     -0.00038192
     0.00001090      0.00002857     -0.00000879
    -0.00002665      0.00006986      0.00004514
     0.00007787      0.00006742      0.00001122
     0.00005287      0.00005905      0.00016280
     0.00016784      0.00000363      0.00001443
     0.00016915     -0.00034019     -0.00018117
     0.00005782     -0.00047439     -0.00265502
    -0.02015951      0.03728998      0.01337948
     0.01149125      0.02865646     -0.03849562
    -0.00477542      0.00084895      0.00186239
     0.00024543     -0.00017701      0.00018142
     0.20925135     -0.14217174      0.09223581
    -0.03036547      0.02627436     -0.06529825
    -0.00037031      0.00012631     -0.00018113
     0.00339614      0.00250333      0.00191409
    -0.00847983      0.00136230      0.03757755
    -0.20159603     -0.25813773     -0.26485192
     0.43373059     -0.17280378      0.11924417
    -0.38481721     -0.23156659     -0.02764748
     0.25960751     -0.10099817      0.46987694
     0.05835694     -0.01911839     -0.02872370
    -0.00036763     -0.00036140     -0.00077824
    -0.00108474      0.00041657      0.00098879
    -0.00490615      0.00033277      0.00329844
    -0.00057445      0.00095529     -0.00301420
vibration 73
     0.00529427     -0.00362373      0.00206165
     0.00238083     -0.00185742      0.00481525
     0.00002741      0.00012250      0.00026443
    -0.00001230     -0.00007886      0.00014803
    -0.00000191     -0.00001948     -0.00001628
    -0.00000806     -0.00001780     -0.00005888
     0.00000414      0.00002400     -0.00000579
     0.00001272      0.00001185     -0.00007779
    -0.00019895      0.00002090      0.00007754
    -0.00013301      0.00005213      0.00004570
     0.00135589      0.00031361     -0.00264115
     0.05496485      0.01544883      0.03843606
    -0.05375682     -0.01585381     -0.03259413
     0.00537790     -0.00258394     -0.00310458
    -0.00017404      0.00003675      0.00006247
    -0.06492762      0.04244496     -0.02843780
    -0.02575672      0.02377361     -0.05711296
     0.00031818     -0.00015401      0.00015660
    -0.00009178     -0.00013360     -0.00005873
    -0.00689104     -0.00104954      0.03270035
    -0.25509292     -0.35528755     -0.35048372
    -0.40019072      0.17374700     -0.10456388
     0.44088107      0.27674792      0.01652249
     0.19609816     -0.08970175      0.37293326
    -0.06753251      0.02552367      0.03219592
     0.00022872      0.00029588      0.00044216
     0.00170774     -0.00061563     -0.00169747
     0.00160124     -0.00014733     -0.00110140
     0.00012652     -0.00027620      0.00062762
vibration 74
    -0.00066168      0.00051524     -0.00047128
     0.01312710     -0.01104056      0.02790739
     0.00018765      0.00038347      0.00095677
     0.00019393      0.00019126     -0.00023901
    -0.00001645      0.00003364     -0.00010688
    -0.00003775     -0.00008539     -0.00030285
    -0.00004034     -0.00004119     -0.00000934
    -0.00002694     -0.00004674      0.00010387
     0.00016214     -0.00002795     -0.00012608
     0.00069944      0.00041656     -0.00005621
    -0.00171054     -0.00034400      0.00281173
    -0.04916490     -0.01373496     -0.03425322
    -0.05018247     -0.01489701     -0.03020282
     0.01044973     -0.00473746     -0.00582201
     0.00035622      0.00001774      0.00005185
     0.00895802     -0.00389302      0.00509659
    -0.15304811      0.13171283     -0.32833715
    -0.00033653      0.00023115     -0.00024370
    -0.00551703     -0.00421801     -0.00324732
     0.00726962      0.00083452     -0.03416091
     0.22892350      0.32020800      0.31863560
     0.35809303     -0.15452377      0.09128554
     0.41944599      0.26066297      0.01394388
     0.17922704     -0.08154978      0.34590539
    -0.12641615      0.04783145      0.06030122
    -0.00009518     -0.00014873     -0.00015552
    -0.00160723      0.00056806      0.00154615
    -0.00341835      0.00008477      0.00250203
     0.00042187     -0.00059488      0.00136237
vibration 75
    -0.00015055      0.00012639     -0.00001193
     0.00017792     -0.00040968      0.00084765
     0.00019576      0.00010923     -0.00003064
    -0.00002345     -0.00017000     -0.00007882
     0.00033530      0.00009865     -0.00001284
     0.00012644      0.00002373     -0.00001077
     0.00016818     -0.00000088     -0.00000052
     0.00006411      0.00001289      0.00001670
    -0.03094298      0.01761315      0.00577011
    -0.08412573     -0.02420520      0.00650206
    -0.00005717      0.00001254     -0.00009054
    -0.00035870     -0.00001005     -0.00018701
     0.00010848      0.00008393     -0.00000153
     0.00113639     -0.00046453     -0.00052475
     0.00003823     -0.00001379     -0.00001728
     0.00101598     -0.00049656      0.00036689
    -0.00453011      0.00389676     -0.00974257
     0.18433068     -0.14263415      0.11550584
     0.46473944      0.33506813      0.27772289
    -0.00021483     -0.00008031      0.00108631
     0.00113539      0.00162299      0.00150823
     0.00318539     -0.00141082      0.00083988
    -0.00135459     -0.00093918     -0.00008427
     0.00000815     -0.00001975     -0.00001873
    -0.01309148      0.00512144      0.00609418
    -0.00339902      0.00609571      0.00538696
     0.18486854     -0.07174552     -0.18912906
     0.54071164     -0.03522711     -0.38413705
    -0.01117846     -0.01407676      0.02979411
vibration 76
     0.00001155      0.00001557     -0.00007931
    -0.00109165      0.00088702     -0.00219684
     0.00008849     -0.00013749      0.00002743
    -0.00017434      0.00004555     -0.00001514
     0.00011057      0.00009768     -0.00004105
     0.00005098      0.00004549     -0.00000760
    -0.00027949      0.00022144      0.00008125
    -0.00010931      0.00006429      0.00004101
     0.07503794     -0.04357001     -0.01374527
    -0.03449520     -0.01020627      0.00248604
    -0.00002505      0.00000787     -0.00000440
    -0.00051671     -0.00016843     -0.00038018
    -0.00094726     -0.00020491     -0.00069799
     0.00017551     -0.00008234     -0.00014157
     0.00001467      0.00000338      0.00002594
     0.00186499     -0.00151263      0.00100404
     0.01218376     -0.01011115      0.02580743
    -0.45347746      0.35163701     -0.28614139
     0.19311169      0.13979042      0.11601242
     0.00005259     -0.00002524      0.00013820
     0.00257071      0.00361401      0.00361388
     0.00364942     -0.00156965      0.00089963
     0.00710584      0.00443020      0.00026126
     0.00427253     -0.00194604      0.00811885
    -0.00222145      0.00083651      0.00101052
     0.01240721     -0.01063337     -0.00623786
    -0.44550648      0.17368186      0.45469907
     0.21932681     -0.01390971     -0.15561720
    -0.00517700     -0.00516120      0.01044280
vibration 77
    -0.00711313      0.00472044     -0.00234585
    -0.03038200      0.02617055     -0.06520200
    -0.00023033     -0.00078363     -0.00220591
    -0.00030067     -0.00015718      0.00011359
     0.00007942     -0.00023602      0.00030916
     0.00003960      0.00017977      0.00079463
     0.00008086      0.00004318      0.00003292
     0.00002177      0.00001655      0.00004893
    -0.00272135      0.00169503      0.00063316
     0.00036954     -0.00025040      0.00030377
    -0.00042272      0.00037587     -0.00035402
    -0.01650289     -0.00401769     -0.01111846
    -0.02560712     -0.00574940     -0.01859966
    -0.00506187      0.00224705      0.00137079
     0.00036816     -0.00006957      0.00066963
     0.08658254     -0.05821120      0.03473069
     0.36082128     -0.30409435      0.76917763
     0.01688281     -0.01323623      0.01077655
    -0.00031569      0.00028882     -0.00020877
    -0.00109039     -0.00078665      0.00702905
     0.07254371      0.10166018      0.10191012
     0.12571740     -0.05410268      0.03175474
     0.19292988      0.11984123      0.00696311
     0.11397091     -0.05135491      0.21722608
     0.05829157     -0.02329926     -0.02809097
    -0.00103817     -0.00021771     -0.00094713
     0.01660456     -0.00649007     -0.01691057
    -0.00284171      0.00047257      0.00186360
    -0.00095044      0.00183234     -0.00494442
vibration 78
     0.00224234     -0.00068291      0.00024212
     0.00448589     -0.00329185      0.00861065
    -0.00061037      0.00054122      0.00041986
     0.00015208      0.00010544      0.00000100
     0.00012214     -0.00010839      0.00003802
     0.00016954     -0.00024289     -0.00038265
    -0.00004935     -0.00007612     -0.00002168
    -0.00004853     -0.00006194     -0.00001285
    -0.00012104      0.00005987     -0.00018880
    -0.00134448     -0.00035281     -0.00005866
    -0.00005505     -0.00050065      0.00426197
    -0.00066426     -0.00221447     -0.00202897
    -0.01084701     -0.00693141     -0.00201823
    -0.07245570      0.02756880      0.03371024
    -0.00008314      0.00001161      0.00043205
    -0.01781769      0.01193830     -0.00732811
    -0.04937641      0.03918590     -0.10166326
     0.00135774     -0.00112514      0.00087287
     0.00764920      0.00543592      0.00448997
     0.01154142      0.00270061     -0.05986815
     0.01418688      0.01919714      0.01947034
    -0.00095840      0.00031209     -0.00090127
     0.12205406      0.07950636      0.00447527
     0.00777868     -0.00266735      0.01887637
     0.83688994     -0.31612552     -0.38838826
     0.00042502      0.00051033      0.00089765
    -0.00039527      0.00009382      0.00034781
     0.00796475     -0.00079727     -0.00572323
     0.00016968     -0.00086483      0.00219268
vibration 79
    -0.00005481      0.00004004      0.00003098
    -0.00006081      0.00000657     -0.00014811
    -0.00005846      0.00016305     -0.00000186
     0.00031402      0.00067216     -0.00086895
     0.00000419      0.00000297     -0.00003642
     0.00002376     -0.00002783     -0.00001645
     0.00007115      0.00011024      0.00032005
    -0.00006511     -0.00020659      0.00043685
    -0.03113197     -0.02802430     -0.08230879
     0.00211783     -0.00211472      0.01984320
    -0.00068330     -0.00013968      0.00364794
     0.00010459      0.00020845      0.00013313
     0.00005777      0.00007434     -0.00007608
     0.00029079     -0.00010386     -0.00017049
    -0.00002354      0.00000194      0.00000471
     0.00081470     -0.00079123      0.00054246
     0.00055613     -0.00050783      0.00135219
     0.21106486     -0.17009754      0.11222941
    -0.04578136     -0.03219114     -0.02220310
     0.00799440      0.00197040     -0.04201928
    -0.00143049     -0.00208846     -0.00187932
     0.00021151     -0.00014747      0.00013005
    -0.00081851     -0.00053172     -0.00004472
     0.00034463     -0.00015539      0.00059191
    -0.00301493      0.00112754      0.00136468
     0.36726749      0.41942783      0.67993158
    -0.21171421      0.07795702      0.18538262
     0.05521762     -0.00273423     -0.03337061
    -0.03433889      0.05854655     -0.17981406
vibration 80
    -0.00004644      0.00002755     -0.00000294
    -0.00014345      0.00016005     -0.00029074
     0.00024761     -0.00102460     -0.00065251
     0.00006807      0.00018269     -0.00028977
    -0.00003123      0.00003626      0.00032385
    -0.00007011      0.00033426      0.00038485
     0.00001127      0.00001663      0.00009924
    -0.00001015     -0.00008208      0.00014945
    -0.00678564     -0.00598418     -0.01782146
    -0.00925196      0.00967002     -0.09132840
    -0.00050506     -0.00010579      0.00260406
     0.00004370      0.00012044      0.00005761
    -0.00001438      0.00003594     -0.00008407
     0.00026368     -0.00010004     -0.00019163
    -0.00000617      0.00000639      0.00002488
     0.00047597     -0.00035683      0.00031621
     0.00197285     -0.00171076      0.00419919
     0.04589055     -0.03715623      0.02442945
     0.20740695      0.14638621      0.10009300
     0.00567899      0.00141727     -0.02988958
    -0.00074375     -0.00109678     -0.00094265
     0.00025466     -0.00017444      0.00012716
    -0.00004730      0.00001032     -0.00000584
     0.00046972     -0.00025384      0.00084732
    -0.00312132      0.00110176      0.00134869
     0.07958637      0.09059844      0.14706262
    -0.04553185      0.01674787      0.03996668
    -0.25746968      0.01294715      0.15636182
     0.15884927     -0.26891005      0.82642611
vibration 81
     0.00097554     -0.00034490      0.00071466
     0.00073568     -0.00009570      0.00208376
    -0.00009664      0.00010772      0.00007781
    -0.00010747      0.00028164     -0.00141202
     0.00000767     -0.00004115      0.00002789
     0.00002310     -0.00003178     -0.00004285
    -0.00005369     -0.00012267      0.00014751
     0.00022341      0.00022593      0.00060387
    -0.00147253     -0.00135601     -0.00413828
    -0.00016455      0.00026463     -0.00193511
     0.01609419      0.00335783     -0.08456946
    -0.00232975     -0.00424116     -0.00255523
    -0.00098788     -0.00122213      0.00125367
    -0.00463797      0.00173120      0.00299828
     0.00040929     -0.00013887      0.00002766
    -0.01015602      0.00546645     -0.00537536
    -0.00872293      0.00690593     -0.01852623
     0.01072802     -0.00877638      0.00571530
     0.00387882      0.00266609      0.00179617
    -0.18359707     -0.04344118      0.97277256
     0.02919958      0.04312417      0.03825488
    -0.00299596      0.00305564     -0.00256556
     0.01093432      0.00727183      0.00084433
    -0.00439146      0.00216943     -0.00707155
     0.04561166     -0.01731689     -0.02048983
     0.01778041      0.02018380      0.03315553
    -0.01133893      0.00407354      0.00994932
    -0.00541808      0.00021847      0.00330978
     0.00345334     -0.00581725      0.01773109
[INT]
    2.648121
    0.853692
    0.025012
    1.185014
    3.020975
    2.700044
    0.413045
    0.625142
    0.254385
    0.755188
    8.354060
    4.770568
    4.547941
    2.201750
    3.364329
   14.317248
    9.763908
   23.184782
    9.728965
    1.409662
    2.273386
    6.537313
   14.505302
   11.401647
   10.267238
    5.055975
    1.138308
    0.354076
    5.569626
   10.368990
   31.857912
    5.245488
   19.200403
   15.599985
   42.424391
   16.712625
   36.236820
   22.516217
   28.403932
   48.217215
    0.370761
    2.057138
   90.793399
    7.693160
   11.101339
  123.726498
   14.975487
   56.307867
   38.753516
  196.934126
   67.667024
   58.518256
   20.796542
    9.384762
   11.015612
    0.874839
   36.549632
    6.796066
   22.001686
    5.401556
   10.599440
    1.759891
   16.169282
    4.424849
    7.754977
  306.165564
  247.501600
   13.322344
   51.578885
   10.690562
   21.318683
   34.398633
    0.596508
   24.060154
   31.404803
    8.887943
   19.149511
   21.650135
    7.467879
   12.384337
    6.870323

======= END OF MOLDEN-FORMATTED INPUT FILE =======


        *************************************************************
        *                                                           *
        *  Thank you very much for using Q-Chem.  Have a nice day.  *
        *                                                           *
        *************************************************************


