r0179.ten.osc.edu 10.25.155
Q-Chem Developer Version! Running on 10.25.155.*
                  Welcome to Q-Chem
     A Quantum Leap Into The Future Of Chemistry


 Q-Chem 5.0, Q-Chem, Inc., Pleasanton, CA (2017)

 Yihan Shao,  Zhengting Gan,  E. Epifanovsky,  A. T. B. Gilbert,  M. Wormit,  
 J. Kussmann,  A. W. Lange,  A. Behn,  Jia Deng,  Xintian Feng,  D. Ghosh,  
 M. Goldey,  P. R. Horn,  L. D. Jacobson,  I. Kaliman,  T. Kus,  A. Landau,  
 Jie Liu,  E. I. Proynov,  R. M. Richard,  R. P. Steele,  E. J. Sundstrom,  
 H. L. Woodcock III,  P. M. Zimmerman,  D. Zuev,  B. Albrecht,  E. Alguire,  
 S. A. Baeppler,  Z. Benda,  Y. A. Bernard,  E. J. Berquist,  K. B. Bravaya,  
 D. Casanova,  Chun-Min Chang,  Yunqing Chen,  A. Chien,  K. D. Closser,  
 M. P. Coons,  S. Dasgupta,  M. Diedenhofen,  Hainam Do,  R. G. Edgar,  
 Po-Tung Fang,  S. Fatehi,  Qingguo Feng,  Qinghui Ge,  A. Ghysels,  
 J. Gomes,  J. Gonthier,  A. Gunina,  M. W. D. Hanson-Heine,  
 P. H. P. Harbach,  A. W. Hauser,  J. E. Herr,  E. G. Hohenstein,  
 Z. C. Holden,  Kerwin Hui,  T.-C. Jagau,  Hyunjun Ji,  B. Kaduk,  
 K. Khistyaev,  Jaehoon Kim,  P. Klunzinger,  K. Koh,  D. Kosenkov,  
 T. Kowalczyk,  C. M. Krauter,  A. Kunitsa,  Ka Un Lao,  A. Laurent,  
 K. V. Lawler,  Joonho Lee,  D. Lefrancois,  S. Lehtola,  D. S. Levine,  
 Yi-Pei Li,  You-Sheng Lin,  Fenglai Liu,  E. Livshits,  A. Luenser,  
 P. Manohar,  E. Mansoor,  S. F. Manzer,  Shan-Ping Mao,  Yuezhi Mao,  
 N. Mardirossian,  A. V. Marenich,  L. A. Martinez-Martinez,  S. A. Maurer,  
 N. J. Mayhall,  S. C. McKenzie,  J.-M. Mewes,  A. F. Morrison,  K. Nanda,  
 T. S. Nguyen-Beck,  R. Olivares-Amaya,  J. A. Parkhill,  T. M. Perrine,  
 F. Plasser,  S. Prager,  A. Prociuk,  D. R. Rehn,  F. Rob,  M. Schneider,  
 N. Sergueev,  S. M. Sharada,  S. Sharma,  D. W. Small,  T. Stauch,  
 T. Stein,  Yu-Chuan Su,  A. J. W. Thom,  T. Tsuchimochi,  L. Vogt,  
 O. Vydrov,  M. A. Watson,  J. Wenzel,  M. de Wergifosse,  T. A. Wesolowski,  
 A. White,  J. Witte,  A. Yamada,  Jun Yang,  K. Yao,  S. Yeganeh,  
 S. R. Yost,  Zhi-Qiang You,  A. Zech,  Igor Ying Zhang,  Xing Zhang,  
 Yan Zhao,  Ying Zhu,  B. R. Brooks,  G. K. L. Chan,  C. J. Cramer,  
 M. S. Gordon,  W. J. Hehre,  A. Klamt,  M. W. Schmidt,  C. D. Sherrill,  
 D. G. Truhlar,  A. Aspuru-Guzik,  R. Baer,  A. T. Bell,  N. A. Besley,  
 Jeng-Da Chai,  A. Dreuw,  B. D. Dunietz,  T. R. Furlani,  Chao-Ping Hsu,  
 Yousung Jung,  Jing Kong,  D. S. Lambrecht,  WanZhen Liang,  C. Ochsenfeld,  
 V. A. Rassolov,  L. V. Slipchenko,  J. E. Subotnik,  T. Van Voorhis,  
 J. M. Herbert,  A. I. Krylov,  P. M. W. Gill,  M. Head-Gordon

 Contributors to earlier versions of Q-Chem not listed above: 
 R. D. Adamson,  B. Austin,  J. Baker,  G. J. O. Beran,  K. Brandhorst,  
 S. T. Brown,  E. F. C. Byrd,  A. K. Chakraborty,  C.-L. Cheng,  
 Siu Hung Chien,  D. M. Chipman,  D. L. Crittenden,  H. Dachsel,  
 R. A. DiStasio Jr.,  R. J. Doerksen,  A. D. Dutoi,  L. Fusti-Molnar,  
 W. A. Goddard III,  A. Golubeva-Zadorozhnaya,  S. R. Gwaltney,  G. Hawkins,  
 A. Heyden,  S. Hirata,  G. Kedziora,  F. J. Keil,  C. Kelley,  Jihan Kim,  
 R. A. King,  R. Z. Khaliullin,  P. P. Korambath,  W. Kurlancheek,  
 A. M. Lee,  M. S. Lee,  S. V. Levchenko,  Ching Yeh Lin,  D. Liotard,  
 R. C. Lochan,  I. Lotan,  P. E. Maslen,  N. Nair,  D. P. O'Neill,  
 D. Neuhauser,  E. Neuscamman,  C. M. Oana,  R. Olson,  B. Peters,  
 R. Peverati,  P. A. Pieniazek,  Y. M. Rhee,  J. Ritchie,  M. A. Rohrdanz,  
 E. Rosta,  N. J. Russ,  H. F. Schaefer III,  N. E. Schultz,  N. Shenvi,  
 A. C. Simmonett,  A. Sodt,  D. Stuck,  K. S. Thanthiriwatte,  V. Vanovschi,  
 Tao Wang,  A. Warshel,  C. F. Williams,  Q. Wu,  X. Xu,  W. Zhang

 Please cite Q-Chem as follows:
 Y. Shao et al., Mol. Phys. 113, 184-215 (2015)
 DOI: 10.1080/00268976.2014.952696

 Q-Chem 5.0.1 for Intel X86 EM64T Linux

 Parts of Q-Chem use Armadillo 5.200.1 (Boston Tea Smuggler).
 http://arma.sourceforge.net/

 Q-Chem begins on Tue Oct 17 14:55:49 2017  

Host: r0179.ten.osc.edu
0

     Scratch files written to /tmp/pbstmp.1311786/5//
Processing $rem in /users/PAS0291/osu6415/.qchemrc.
molden_format             true

Checking the input file for inconsistencies... 	...done.

--------------------------------------------------------------
User input:
--------------------------------------------------------------
$molecule
0 1
  C      0.66751426     -2.26328003      0.13747959
  C     -0.06591189     -2.13202307      1.52400535
  C     -0.13210878     -0.75086582      2.14591904
  C      1.33226229     -0.98043977     -0.33394461
  O     -0.57632039      0.17748986      1.27953623
  O      0.12903761     -0.52146730      3.30179722
  O      0.93220426     -0.60048464     -1.55831693
  O      2.17161270     -0.39602184      0.30852405
  C      1.52118461      0.61024022     -2.06804731
  C     -0.62532854      1.52955685      1.76814478
  C     -0.46434747     -2.84290713     -0.74896508
  C     -0.68131377     -4.32858960     -0.38567583
  C     -1.41997831     -4.20044519      0.98150924
  C     -1.48260617     -2.66459371      1.13490344
  O     -1.63946593     -2.21445416     -0.21470022
  H      1.48975092     -2.97652903      0.23877986
  H      0.39905726     -2.76640069      2.27585628
  H      2.60505588      0.50866330     -2.13796968
  H      0.38049711      1.87159180      2.01736687
  H     -0.37592133     -2.61774997     -1.80680486
  H     -1.31260049     -4.80980733     -1.13380171
  H      0.25385184     -4.88871087     -0.32109775
  H     -2.42791475     -4.61399944      0.93009176
  H     -0.89388403     -4.68354339      1.80694209
  H     -2.29512568     -2.28306181      1.74953010
  H      1.08227036      0.75226768     -3.05293642
  H      1.27944827      1.44980765     -1.41489629
  H     -1.26115435      1.59529026      2.65186292
  H     -1.04099548      2.11617719      0.95179789
$end

$rem
sym_ignore      true
jobtype         opt
method          b3lyp
basis           6-311++G(d,p)
dft_d           d3_op
mem_total       62000
MEM_STATIC      4000
ao2mo_disk      350000
max_scf_cycles  200
geom_opt_max_cycles 1000
geom_opt_tol_displacement 1
GEOM_OPT_TOL_GRADIENT       1
GEOM_OPT_TOL_ENERGY         1
geom_opt_dmax    50
$end

--------------------------------------------------------------
 Adding empirical dispersion correction 
 ----------------------------------------------------------------
 Doing -D3(op) with
 s6 =   1.00000
 s8 =   0.78311
 a1 =   0.30000
 a2 =   4.25000
 n  =  10.00000
 -D3 energy without 3body term =     -0.0310610972 hartrees
 ----------------------------------------------------------------
             Standard Nuclear Orientation (Angstroms)
    I     Atom           X                Y                Z
 ----------------------------------------------------------------
    1      C       0.6675142600    -2.2632800300     0.1374795900
    2      C      -0.0659118900    -2.1320230700     1.5240053500
    3      C      -0.1321087800    -0.7508658200     2.1459190400
    4      C       1.3322622900    -0.9804397700    -0.3339446100
    5      O      -0.5763203900     0.1774898600     1.2795362300
    6      O       0.1290376100    -0.5214673000     3.3017972200
    7      O       0.9322042600    -0.6004846400    -1.5583169300
    8      O       2.1716127000    -0.3960218400     0.3085240500
    9      C       1.5211846100     0.6102402200    -2.0680473100
   10      C      -0.6253285400     1.5295568500     1.7681447800
   11      C      -0.4643474700    -2.8429071300    -0.7489650800
   12      C      -0.6813137700    -4.3285896000    -0.3856758300
   13      C      -1.4199783100    -4.2004451900     0.9815092400
   14      C      -1.4826061700    -2.6645937100     1.1349034400
   15      O      -1.6394659300    -2.2144541600    -0.2147002200
   16      H       1.4897509200    -2.9765290300     0.2387798600
   17      H       0.3990572600    -2.7664006900     2.2758562800
   18      H       2.6050558800     0.5086633000    -2.1379696800
   19      H       0.3804971100     1.8715918000     2.0173668700
   20      H      -0.3759213300    -2.6177499700    -1.8068048600
   21      H      -1.3126004900    -4.8098073300    -1.1338017100
   22      H       0.2538518400    -4.8887108700    -0.3210977500
   23      H      -2.4279147500    -4.6139994400     0.9300917600
   24      H      -0.8938840300    -4.6835433900     1.8069420900
   25      H      -2.2951256800    -2.2830618100     1.7495301000
   26      H       1.0822703600     0.7522676800    -3.0529364200
   27      H       1.2794482700     1.4498076500    -1.4148962900
   28      H      -1.2611543500     1.5952902600     2.6518629200
   29      H      -1.0409954800     2.1161771900     0.9517978900
 ----------------------------------------------------------------
 Nuclear Repulsion Energy =  1122.1462524830 hartrees
 There are       57 alpha and       57 beta electrons
 Requested basis set is 6-311++G(d,p)
 There are 160 shells and 428 basis functions

 Total QAlloc Memory Limit  62000 MB
 Mega-Array Size      3911 MB
 MEM_STATIC part      4000 MB
 A cutoff of  1.0D-11 yielded  10658 shell pairs
 There are     77896 function pairs (     83193 Cartesian)
 
 -------------------------------------------------------
 OpenMP Integral Computing Module                       
 Release: version 1.0, May 2013, Q-Chem Inc. Pittsburgh 
 -------------------------------------------------------
 Integral Job Info:
 Integral job number is                      11
 Integral operator is                         1
 short-range coefficients                     0
 long-range coefficients              100000000
 Omega coefficients                           0
 if combine SR and LR in K                    0
 Integral screening is                        0
 Integral computing path is                   2
 max size of driver memory is            800000
 size of driver memory is                593474
 size of scratch memory is              2361544
 max col of scratch BK array               1296
 max len of scratch array in speh3          155
 max len of scratch index in speh4           18
 max int batch size is                      520
 min int batch size is                       52
 fixed nKL is                                52
 max L of basis functions is                  2
 order of int derivative is                   0
 number of shells is                        160
 number of basis is                         443
 number of cartesian basis is               443
 number of contracted shell pairs         10658
 number of primitive shell pairs          24115
 maxK2 (contraction) of shell pair           36
 max number of K2 of shell pair               1
 max number of CS2 of shell pair           1970
 max number of PS2 of shell pair           3444
 mem total for path MDJ                  143512
 -------------------------------------------------------
 Smallest overlap matrix eigenvalue = 1.07E-06

 Q-Chem warning in module /fs/scratch/osu6415/qchem-kaunlao-vdw/stvman/mkSTV.C, line 281:

 Overlap eigenvalue is smaller than square root of threshold


 Scale SEOQF with 1.000000e-01/1.000000e-01/1.000000e-01

 Standard Electronic Orientation quadrupole field applied
 Nucleus-field energy     =     0.0000000174 hartrees
 Guess from superposition of atomic densities
 Warning:  Energy on first SCF cycle will be non-variational
 A restricted hybrid HF-DFT SCF calculation will be
 performed using Pulay DIIS extrapolation
 Exchange:     0.2000 Hartree-Fock + 0.0800 Slater + 0.7200 B88
 Correlation:  0.1900 VWN1RPA + 0.8100 LYP
 Using SG-1 standard quadrature grid
 Dispersion:   Grimme D3
 SCF converges when DIIS error is below 1.0E-08
 using 20 threads for integral computing
 -------------------------------------------------------
 OpenMP Integral computing Module                
 Release: version 1.0, May 2013, Q-Chem Inc. Pittsburgh 
 -------------------------------------------------------
 -------------------------------------------------------
 OpenMP BLAS3 based DFT computing Module                
 Release: version 1.0, May 2013, Q-Chem Inc. Pittsburgh 
 -------------------------------------------------------
 ---------------------------------------
  Cycle       Energy         DIIS Error
 ---------------------------------------
    1    -768.9282402720      3.08E-02
    2    -765.5750728080      3.93E-03
    3    -765.0844188297      6.74E-03
    4    -765.8211767252      1.46E-03
    5    -765.8576121580      4.57E-04
    6    -765.8607413604      1.44E-04
    7    -765.8610769868      4.50E-05
    8    -765.8611114193      1.13E-05
    9    -765.8611138015      2.71E-06
   10    -765.8611139079      1.21E-06
   11    -765.8611139316      2.91E-07
   12    -765.8611139328      1.36E-07
   13    -765.8611139331      4.86E-08
   14    -765.8611139324      1.53E-08
   15    -765.8611139313      3.71E-09 Convergence criterion met
 ---------------------------------------
 SCF time:  CPU 745.75 s  wall 39.59 s
 SCF   energy in the final basis set = -765.86111393
 Total energy in the final basis set = -765.86111393
 
 --------------------------------------------------------------
 
                    Orbital Energies (a.u.)
 --------------------------------------------------------------
 
 Alpha MOs
 -- Occupied --
-19.179 -19.170 -19.133 -19.117 -19.113 -10.311 -10.303 -10.239
-10.233 -10.233 -10.226 -10.208 -10.205 -10.183 -10.183  -1.121
 -1.112  -1.065  -1.031  -1.024  -0.831  -0.785  -0.780  -0.737
 -0.728  -0.658  -0.607  -0.598  -0.580  -0.568  -0.550  -0.516
 -0.504  -0.493  -0.490  -0.486  -0.478  -0.470  -0.462  -0.434
 -0.426  -0.422  -0.409  -0.396  -0.381  -0.374  -0.370  -0.368
 -0.364  -0.359  -0.342  -0.339  -0.320  -0.310  -0.293  -0.277
 -0.274
 -- Virtual --
 -0.019  -0.012  -0.006   0.001   0.006   0.011   0.013   0.019
  0.027   0.034   0.036   0.040   0.045   0.048   0.051   0.057
  0.068   0.076   0.078   0.082   0.088   0.093   0.097   0.099
  0.106   0.108   0.110   0.113   0.116   0.119   0.123   0.127
  0.128   0.134   0.137   0.140   0.142   0.146   0.147   0.151
  0.152   0.158   0.161   0.162   0.167   0.168   0.175   0.178
  0.182   0.183   0.185   0.189   0.192   0.199   0.204   0.206
  0.211   0.219   0.222   0.225   0.229   0.235   0.241   0.248
  0.252   0.255   0.269   0.271   0.280   0.285   0.286   0.289
  0.299   0.304   0.311   0.315   0.319   0.322   0.327   0.330
  0.334   0.341   0.344   0.349   0.354   0.360   0.362   0.364
  0.368   0.373   0.375   0.382   0.388   0.395   0.397   0.404
  0.412   0.417   0.426   0.437   0.441   0.445   0.471   0.480
  0.487   0.498   0.512   0.517   0.526   0.530   0.539   0.551
  0.561   0.573   0.579   0.598   0.602   0.612   0.621   0.623
  0.629   0.643   0.653   0.655   0.663   0.666   0.670   0.681
  0.689   0.691   0.701   0.714   0.719   0.727   0.729   0.740
  0.745   0.752   0.756   0.765   0.776   0.777   0.790   0.800
  0.808   0.815   0.828   0.864   0.872   0.890   0.941   0.948
  0.991   0.997   1.001   1.020   1.040   1.043   1.066   1.071
  1.081   1.133   1.150   1.157   1.179   1.189   1.197   1.208
  1.218   1.221   1.249   1.251   1.264   1.279   1.290   1.294
  1.306   1.331   1.336   1.364   1.376   1.384   1.387   1.396
  1.411   1.425   1.435   1.446   1.457   1.474   1.502   1.508
  1.522   1.536   1.542   1.552   1.554   1.563   1.576   1.577
  1.584   1.597   1.610   1.624   1.634   1.652   1.670   1.677
  1.690   1.701   1.709   1.713   1.722   1.728   1.744   1.753
  1.778   1.784   1.808   1.812   1.822   1.830   1.841   1.852
  1.863   1.880   1.887   1.905   1.912   1.936   1.946   1.964
  1.995   1.999   2.007   2.026   2.035   2.055   2.078   2.098
  2.118   2.123   2.130   2.138   2.156   2.174   2.179   2.199
  2.202   2.225   2.247   2.288   2.297   2.325   2.378   2.435
  2.453   2.462   2.468   2.469   2.491   2.508   2.513   2.519
  2.530   2.540   2.549   2.568   2.572   2.606   2.618   2.637
  2.662   2.671   2.688   2.724   2.736   2.759   2.774   2.807
  2.808   2.830   2.841   2.846   2.866   2.868   2.896   2.902
  2.908   2.923   2.946   2.977   2.997   3.009   3.035   3.046
  3.054   3.069   3.086   3.101   3.117   3.132   3.146   3.160
  3.179   3.188   3.219   3.240   3.246   3.260   3.295   3.332
  3.351   3.384   3.391   3.396   3.438   3.598   3.604   3.644
  3.689   3.718   3.772   3.790   3.835   3.852   3.914   3.935
  3.989   4.046   4.063   4.071   4.085   4.124   4.150   4.156
  4.168   4.218   4.256   4.385   4.507   5.031   5.084   5.120
  5.168   5.212   5.238   5.249   5.395   5.427   5.504   5.601
  5.640   5.649   5.870   5.885  23.829  23.845  23.850  23.877
 23.904  23.927  23.942  23.945  23.969  24.049  49.914  49.926
 49.966  50.025  50.043
 --------------------------------------------------------------
 
          Ground-State Mulliken Net Atomic Charges

     Atom                 Charge (a.u.)
  ----------------------------------------
      1 C                     0.380921
      2 C                     0.253962
      3 C                    -0.547248
      4 C                    -0.812906
      5 O                    -0.043054
      6 O                    -0.198631
      7 O                    -0.014182
      8 O                    -0.180414
      9 C                    -0.175954
     10 C                    -0.219518
     11 C                    -0.129750
     12 C                    -0.439863
     13 C                    -0.537992
     14 C                     0.083676
     15 O                    -0.127573
     16 H                     0.241682
     17 H                     0.281048
     18 H                     0.176348
     19 H                     0.201029
     20 H                     0.285031
     21 H                     0.185192
     22 H                     0.125388
     23 H                     0.185807
     24 H                     0.123831
     25 H                     0.260962
     26 H                     0.155093
     27 H                     0.162908
     28 H                     0.174029
     29 H                     0.150178
  ----------------------------------------
  Sum of atomic charges =     0.000000

 -----------------------------------------------------------------
                    Cartesian Multipole Moments
 -----------------------------------------------------------------
    Charge (ESU x 10^10)
                -0.0000
    Dipole Moment (Debye)
         X      -0.7034      Y      -0.9462      Z      -2.7522
       Tot       2.9941
    Quadrupole Moments (Debye-Ang)
        XX     -93.4327     XY      -0.7995     YY     -71.5335
        XZ      -8.9436     YZ      -1.3729     ZZ     -95.4620
    Octopole Moments (Debye-Ang^2)
       XXX      -2.1793    XXY     128.0398    XYY       1.5645
       YYY     341.9480    XXZ     -42.8235    XYZ       1.7467
       YYZ     -28.5705    XZZ      -3.2210    YZZ     135.2858
       ZZZ    -185.0003
    Hexadecapole Moments (Debye-Ang^3)
      XXXX    -832.5241   XXXY    -254.4516   XXYY    -586.1896
      XYYY    -248.9021   YYYY   -2726.4382   XXXZ     123.1261
      XXYZ      29.3465   XYYZ      47.7062   YYYZ     108.6669
      XXZZ    -333.7265   XYZZ     -73.7264   YYZZ    -664.5624
      XZZZ     130.4579   YZZZ     148.2081   ZZZZ   -1508.8884
 -----------------------------------------------------------------
 Calculating analytic gradient of the SCF energy
 Gradient of SCF Energy
            1           2           3           4           5           6
    1  -0.0000019  -0.0000026  -0.0000066  -0.0000093  -0.0000108   0.0000053
    2   0.0000044  -0.0000107   0.0000029   0.0000032  -0.0000162  -0.0000127
    3  -0.0000142   0.0000012  -0.0000202  -0.0000086   0.0000103   0.0000188
            7           8           9          10          11          12
    1   0.0000045   0.0000068  -0.0000053   0.0000151   0.0000075   0.0000030
    2   0.0000003   0.0000040   0.0000176   0.0000028  -0.0000039   0.0000075
    3   0.0000064   0.0000064   0.0000105   0.0000135  -0.0000109  -0.0000106
           13          14          15          16          17          18
    1  -0.0000051   0.0000075   0.0000007  -0.0000021   0.0000035  -0.0000003
    2  -0.0000063   0.0000068   0.0000010   0.0000006  -0.0000049   0.0000083
    3  -0.0000105   0.0000052  -0.0000012  -0.0000048  -0.0000047   0.0000043
           19          20          21          22          23          24
    1  -0.0000024  -0.0000005  -0.0000022  -0.0000011   0.0000019   0.0000032
    2  -0.0000092   0.0000095   0.0000059   0.0000021  -0.0000029  -0.0000045
    3   0.0000166  -0.0000054  -0.0000133  -0.0000140  -0.0000095  -0.0000111
           25          26          27          28          29
    1  -0.0000014  -0.0000032   0.0000004  -0.0000046   0.0000002
    2  -0.0000076   0.0000121   0.0000053  -0.0000101  -0.0000052
    3  -0.0000004   0.0000084   0.0000124   0.0000120   0.0000134
 Max gradient component =       2.021E-05
 RMS gradient           =       8.303E-06
 Gradient time:  CPU 245.08 s  wall 18.38 s
 Geometry Optimization Parameters
   NAtoms,    NIC,     NZ,  NCons,   NDum,   NFix, NCnnct, MaxDiis
       29     227       0       0       0       0       0       0


** GEOMETRY OPTIMIZATION IN DELOCALIZED INTERNAL COORDINATES **
   Searching for a Minimum

   Optimization Cycle:   1

                       Coordinates (Angstroms)
     ATOM                X               Y               Z
      1  C         0.6675142600   -2.2632800300    0.1374795900
      2  C        -0.0659118900   -2.1320230700    1.5240053500
      3  C        -0.1321087800   -0.7508658200    2.1459190400
      4  C         1.3322622900   -0.9804397700   -0.3339446100
      5  O        -0.5763203900    0.1774898600    1.2795362300
      6  O         0.1290376100   -0.5214673000    3.3017972200
      7  O         0.9322042600   -0.6004846400   -1.5583169300
      8  O         2.1716127000   -0.3960218400    0.3085240500
      9  C         1.5211846100    0.6102402200   -2.0680473100
     10  C        -0.6253285400    1.5295568500    1.7681447800
     11  C        -0.4643474700   -2.8429071300   -0.7489650800
     12  C        -0.6813137700   -4.3285896000   -0.3856758300
     13  C        -1.4199783100   -4.2004451900    0.9815092400
     14  C        -1.4826061700   -2.6645937100    1.1349034400
     15  O        -1.6394659300   -2.2144541600   -0.2147002200
     16  H         1.4897509200   -2.9765290300    0.2387798600
     17  H         0.3990572600   -2.7664006900    2.2758562800
     18  H         2.6050558800    0.5086633000   -2.1379696800
     19  H         0.3804971100    1.8715918000    2.0173668700
     20  H        -0.3759213300   -2.6177499700   -1.8068048600
     21  H        -1.3126004900   -4.8098073300   -1.1338017100
     22  H         0.2538518400   -4.8887108700   -0.3210977500
     23  H        -2.4279147500   -4.6139994400    0.9300917600
     24  H        -0.8938840300   -4.6835433900    1.8069420900
     25  H        -2.2951256800   -2.2830618100    1.7495301000
     26  H         1.0822703600    0.7522676800   -3.0529364200
     27  H         1.2794482700    1.4498076500   -1.4148962900
     28  H        -1.2611543500    1.5952902600    2.6518629200
     29  H        -1.0409954800    2.1161771900    0.9517978900
   Point Group: c1    Number of degrees of freedom:    81


   Energy is   -765.861113931


 Attempting to Generate Delocalized Internal Coordinates

 81 Hessian modes will be used to form the next step
  Hessian Eigenvalues:
     0.003161    0.006559    0.007041    0.007304    0.010401    0.010555
     0.010832    0.011096    0.022007    0.022883    0.023193    0.026130
     0.030837    0.036329    0.039439    0.040850    0.045679    0.049540
     0.051764    0.054223    0.055174    0.056249    0.058490    0.062584
     0.064356    0.064871    0.073515    0.075000    0.093043    0.095098
     0.096959    0.101377    0.101546    0.106049    0.106234    0.113598
     0.125020    0.159081    0.160000    0.160000    0.160000    0.160000
     0.160000    0.160000    0.168372    0.235069    0.237438    0.247608
     0.249790    0.249828    0.250000    0.250000    0.250000    0.250000
     0.258222    0.271094    0.280388    0.303853    0.307390    0.337910
     0.344469    0.345837    0.346332    0.346708    0.347130    0.347166
     0.347235    0.347329    0.347357    0.349486    0.350358    0.350568
     0.350673    0.350941    0.353798    0.396342    0.397946    0.560372
     0.565502    1.009918    1.013777

 Minimum Search - Taking Simple RFO Step
 Searching for Lamda that Minimizes Along All modes
 Value Taken    Lamda =   0.00000000
 Step Taken.  Stepsize is  0.001466

                             Maximum     Tolerance    Cnvgd?
         Gradient           0.000014      0.000001      NO
         Displacement       0.000583      0.000001      NO
         Energy change     *********      0.000000      NO


 New Cartesian Coordinates Obtained by Inverse Iteration

 Displacement from previous Coordinates is:  0.003057
 Adding empirical dispersion correction 
 ----------------------------------------------------------------
 Doing -D3(op) with
 s6 =   1.00000
 s8 =   0.78311
 a1 =   0.30000
 a2 =   4.25000
 n  =  10.00000
 -D3 energy without 3body term =     -0.0310612429 hartrees
 ----------------------------------------------------------------
             Standard Nuclear Orientation (Angstroms)
    I     Atom           X                Y                Z
 ----------------------------------------------------------------
    1      C       0.6675305259    -2.2632588099     0.1375175912
    2      C      -0.0659317571    -2.1320518926     1.5240098098
    3      C      -0.1320251834    -0.7509121721     2.1459790606
    4      C       1.3321778411    -0.9803617076    -0.3338922990
    5      O      -0.5762654017     0.1774841259     1.2796397198
    6      O       0.1291485648    -0.5215476285     3.3018495476
    7      O       0.9322251171    -0.6005395141    -1.5583495105
    8      O       2.1713930837    -0.3958201877     0.3086322668
    9      C       1.5211615765     0.6101758241    -2.0681510045
   10      C      -0.6252707585     1.5295456211     1.7682521305
   11      C      -0.4642980045    -2.8429087841    -0.7489551069
   12      C      -0.6812500336    -4.3285922525    -0.3856377868
   13      C      -1.4200896211    -4.2004120896     0.9814417441
   14      C      -1.4826498028    -2.6645601482     1.1348253265
   15      O      -1.6394369970    -2.2144266842    -0.2147831500
   16      H       1.4898169336    -2.9764554996     0.2388066675
   17      H       0.3989722933    -2.7665083470     2.2758347282
   18      H       2.6050760256     0.5088009285    -2.1376539277
   19      H       0.3806393773     1.8717873569     2.0168655481
   20      H      -0.3758167669    -2.6177910407    -1.8067966734
   21      H      -1.3124130906    -4.8098732367    -1.1338235395
   22      H       0.2539368739    -4.8886635738    -0.3209128035
   23      H      -2.4280464262    -4.6139009243     0.9298691364
   24      H      -0.8941496294    -4.6835601924     1.8069418044
   25      H      -2.2951753570    -2.2829725412     1.7494039692
   26      H       1.0825775683     0.7519056767    -3.0532302641
   27      H       1.2790240644     1.4498550092    -1.4152900760
   28      H      -1.2605713691     1.5951816458     2.6523504518
   29      H      -1.0415196366     2.1160910588     0.9521466595
 ----------------------------------------------------------------
 Nuclear Repulsion Energy =  1122.1484593445 hartrees
 There are       57 alpha and       57 beta electrons
 Applying Cartesian multipole field
    Component          Value
    ---------          -----
     (2,0,0)        1.00000E-11
     (0,2,0)        2.00000E-11
     (0,0,2)       -3.00000E-11
 Nucleus-field energy     =     0.0000000174 hartrees
 Requested basis set is 6-311++G(d,p)
 There are 160 shells and 428 basis functions
 A cutoff of  1.0D-11 yielded  10657 shell pairs
 There are     77892 function pairs (     83189 Cartesian)
 Smallest overlap matrix eigenvalue = 1.07E-06

 Q-Chem warning in module /fs/scratch/osu6415/qchem-kaunlao-vdw/stvman/mkSTV.C, line 281:

 Overlap eigenvalue is smaller than square root of threshold

 Guess MOs from SCF MO coefficient file
 Reading MOs from coefficient file
 Reading MOs from coefficient file
 A restricted hybrid HF-DFT SCF calculation will be
 performed using Pulay DIIS extrapolation
 Exchange:     0.2000 Hartree-Fock + 0.0800 Slater + 0.7200 B88
 Correlation:  0.1900 VWN1RPA + 0.8100 LYP
 Using SG-1 standard quadrature grid
 Dispersion:   Grimme D3
 SCF converges when DIIS error is below 1.0E-08
 Geometry optimization detected.  Setting ReadMinima to 0
 Setting SaveMinima to 0
 using 20 threads for integral computing
 -------------------------------------------------------
 OpenMP Integral computing Module                
 Release: version 1.0, May 2013, Q-Chem Inc. Pittsburgh 
 -------------------------------------------------------
 -------------------------------------------------------
 OpenMP BLAS3 based DFT computing Module                
 Release: version 1.0, May 2013, Q-Chem Inc. Pittsburgh 
 -------------------------------------------------------
 ---------------------------------------
  Cycle       Energy         DIIS Error
 ---------------------------------------
    1    -765.8611469109      3.40E-06
    2    -765.8611139378      3.54E-07
    3    -765.8611139367      5.23E-07
    4    -765.8611139414      1.14E-07
    5    -765.8611139414      6.29E-08
    6    -765.8611139417      1.57E-08
    7    -765.8611139418      5.88E-09 Convergence criterion met
 ---------------------------------------
 SCF time:  CPU 344.21 s  wall 18.87 s
 SCF   energy in the final basis set = -765.86111394
 Total energy in the final basis set = -765.86111394
 
 --------------------------------------------------------------
 
                    Orbital Energies (a.u.)
 --------------------------------------------------------------
 
 Alpha MOs
 -- Occupied --
-19.179 -19.170 -19.133 -19.117 -19.113 -10.311 -10.303 -10.239
-10.233 -10.233 -10.226 -10.208 -10.205 -10.183 -10.183  -1.121
 -1.112  -1.065  -1.031  -1.024  -0.831  -0.785  -0.780  -0.737
 -0.728  -0.658  -0.607  -0.598  -0.580  -0.568  -0.550  -0.516
 -0.504  -0.493  -0.490  -0.486  -0.478  -0.470  -0.462  -0.434
 -0.426  -0.422  -0.409  -0.396  -0.381  -0.374  -0.370  -0.368
 -0.364  -0.359  -0.342  -0.339  -0.320  -0.310  -0.293  -0.277
 -0.274
 -- Virtual --
 -0.019  -0.012  -0.006   0.001   0.006   0.011   0.013   0.019
  0.027   0.034   0.036   0.040   0.045   0.048   0.051   0.057
  0.068   0.076   0.078   0.082   0.088   0.093   0.097   0.099
  0.106   0.108   0.110   0.113   0.116   0.119   0.123   0.127
  0.128   0.134   0.137   0.140   0.142   0.146   0.147   0.151
  0.152   0.158   0.161   0.162   0.167   0.168   0.175   0.178
  0.182   0.183   0.185   0.189   0.192   0.199   0.204   0.206
  0.211   0.219   0.222   0.225   0.229   0.235   0.241   0.248
  0.252   0.255   0.269   0.271   0.280   0.285   0.286   0.289
  0.299   0.304   0.311   0.315   0.319   0.322   0.327   0.330
  0.334   0.341   0.344   0.349   0.354   0.360   0.362   0.364
  0.368   0.373   0.375   0.382   0.388   0.395   0.397   0.404
  0.412   0.417   0.426   0.437   0.441   0.445   0.471   0.480
  0.487   0.498   0.512   0.517   0.526   0.530   0.539   0.551
  0.561   0.573   0.579   0.598   0.602   0.612   0.621   0.623
  0.629   0.643   0.653   0.655   0.663   0.666   0.670   0.681
  0.689   0.691   0.701   0.714   0.719   0.727   0.729   0.740
  0.745   0.752   0.756   0.765   0.776   0.777   0.790   0.800
  0.808   0.815   0.828   0.864   0.872   0.890   0.941   0.948
  0.991   0.997   1.001   1.020   1.040   1.043   1.066   1.071
  1.081   1.133   1.150   1.157   1.179   1.189   1.197   1.208
  1.218   1.221   1.249   1.251   1.264   1.279   1.290   1.294
  1.306   1.331   1.336   1.364   1.376   1.384   1.387   1.396
  1.411   1.425   1.435   1.446   1.457   1.474   1.502   1.508
  1.522   1.536   1.542   1.552   1.554   1.563   1.576   1.577
  1.584   1.597   1.610   1.624   1.634   1.652   1.670   1.677
  1.690   1.701   1.709   1.713   1.722   1.728   1.744   1.753
  1.778   1.784   1.808   1.812   1.822   1.830   1.841   1.852
  1.863   1.880   1.887   1.905   1.912   1.936   1.946   1.964
  1.995   1.999   2.007   2.026   2.035   2.055   2.078   2.098
  2.118   2.123   2.130   2.138   2.156   2.174   2.179   2.199
  2.202   2.225   2.247   2.288   2.297   2.325   2.378   2.435
  2.453   2.462   2.468   2.469   2.491   2.508   2.513   2.519
  2.530   2.540   2.550   2.568   2.572   2.606   2.618   2.637
  2.662   2.671   2.688   2.724   2.736   2.759   2.774   2.807
  2.808   2.830   2.841   2.846   2.866   2.868   2.896   2.902
  2.908   2.923   2.946   2.977   2.997   3.009   3.035   3.046
  3.054   3.069   3.086   3.101   3.117   3.132   3.146   3.160
  3.179   3.188   3.219   3.240   3.246   3.260   3.295   3.332
  3.351   3.384   3.391   3.396   3.438   3.598   3.604   3.644
  3.689   3.718   3.772   3.790   3.835   3.852   3.914   3.935
  3.989   4.046   4.063   4.071   4.085   4.124   4.150   4.156
  4.168   4.218   4.256   4.385   4.507   5.031   5.084   5.120
  5.168   5.212   5.238   5.249   5.395   5.427   5.504   5.601
  5.640   5.649   5.870   5.885  23.829  23.845  23.850  23.877
 23.904  23.927  23.942  23.945  23.969  24.049  49.914  49.926
 49.966  50.025  50.043
 --------------------------------------------------------------
 
          Ground-State Mulliken Net Atomic Charges

     Atom                 Charge (a.u.)
  ----------------------------------------
      1 C                     0.380845
      2 C                     0.254023
      3 C                    -0.547204
      4 C                    -0.812887
      5 O                    -0.043075
      6 O                    -0.198648
      7 O                    -0.014203
      8 O                    -0.180433
      9 C                    -0.175937
     10 C                    -0.219505
     11 C                    -0.129816
     12 C                    -0.439656
     13 C                    -0.538191
     14 C                     0.083742
     15 O                    -0.127564
     16 H                     0.241681
     17 H                     0.281050
     18 H                     0.176353
     19 H                     0.201014
     20 H                     0.285038
     21 H                     0.185184
     22 H                     0.125393
     23 H                     0.185812
     24 H                     0.123827
     25 H                     0.260962
     26 H                     0.155090
     27 H                     0.162896
     28 H                     0.174017
     29 H                     0.150192
  ----------------------------------------
  Sum of atomic charges =     0.000000

 -----------------------------------------------------------------
                    Cartesian Multipole Moments
 -----------------------------------------------------------------
    Charge (ESU x 10^10)
                 0.0000
    Dipole Moment (Debye)
         X      -0.7032      Y      -0.9464      Z      -2.7523
       Tot       2.9943
    Quadrupole Moments (Debye-Ang)
        XX     -93.4308     XY      -0.8002     YY     -71.5338
        XZ      -8.9443     YZ      -1.3729     ZZ     -95.4623
    Octopole Moments (Debye-Ang^2)
       XXX      -2.1724    XXY     128.0366    XYY       1.5644
       YYY     341.9463    XXZ     -42.8252    XYZ       1.7458
       YYZ     -28.5708    XZZ      -3.2229    YZZ     135.2881
       ZZZ    -185.0053
    Hexadecapole Moments (Debye-Ang^3)
      XXXX    -832.4629   XXXY    -254.4652   XXYY    -586.1785
      XYYY    -248.9107   YYYY   -2726.4073   XXXZ     123.1234
      XXYZ      29.3414   XYYZ      47.7054   YYYZ     108.6595
      XXZZ    -333.7413   XYZZ     -73.7288   YYZZ    -664.5711
      XZZZ     130.4304   YZZZ     148.2128   ZZZZ   -1508.9307
 -----------------------------------------------------------------
 Calculating analytic gradient of the SCF energy
 Gradient of SCF Energy
            1           2           3           4           5           6
    1   0.0000024  -0.0000002   0.0000086  -0.0000106  -0.0000055  -0.0000010
    2   0.0000025  -0.0000091  -0.0000022   0.0000045  -0.0000123  -0.0000111
    3  -0.0000081  -0.0000006  -0.0000136   0.0000000   0.0000122   0.0000096
            7           8           9          10          11          12
    1   0.0000029   0.0000019  -0.0000054   0.0000094  -0.0000002   0.0000048
    2   0.0000011   0.0000010   0.0000156   0.0000010  -0.0000003   0.0000043
    3   0.0000042   0.0000059   0.0000077   0.0000112  -0.0000006  -0.0000095
           13          14          15          16          17          18
    1  -0.0000043   0.0000084  -0.0000073  -0.0000005   0.0000030  -0.0000013
    2  -0.0000056  -0.0000002   0.0000055  -0.0000001  -0.0000061   0.0000096
    3  -0.0000126  -0.0000037  -0.0000035  -0.0000040  -0.0000056   0.0000046
           19          20          21          22          23          24
    1  -0.0000022  -0.0000013  -0.0000012  -0.0000003   0.0000017   0.0000026
    2  -0.0000077   0.0000094   0.0000068   0.0000013  -0.0000041  -0.0000050
    3   0.0000161  -0.0000041  -0.0000126  -0.0000134  -0.0000104  -0.0000122
           25          26          27          28          29
    1   0.0000001  -0.0000023   0.0000005  -0.0000028   0.0000001
    2  -0.0000067   0.0000134   0.0000060  -0.0000089  -0.0000026
    3  -0.0000030   0.0000081   0.0000111   0.0000119   0.0000148
 Max gradient component =       1.606E-05
 RMS gradient           =       7.184E-06
 Gradient time:  CPU 244.59 s  wall 17.81 s
 Geometry Optimization Parameters
   NAtoms,    NIC,     NZ,  NCons,   NDum,   NFix, NCnnct, MaxDiis
       29     227       0       0       0       0       0       0

 Cartesian Hessian Update
 Hessian Updated using BFGS Update


** GEOMETRY OPTIMIZATION IN DELOCALIZED INTERNAL COORDINATES **
   Searching for a Minimum

   Optimization Cycle:   2

                       Coordinates (Angstroms)
     ATOM                X               Y               Z
      1  C         0.6675305259   -2.2632588099    0.1375175912
      2  C        -0.0659317571   -2.1320518926    1.5240098098
      3  C        -0.1320251834   -0.7509121721    2.1459790606
      4  C         1.3321778411   -0.9803617076   -0.3338922990
      5  O        -0.5762654017    0.1774841259    1.2796397198
      6  O         0.1291485648   -0.5215476285    3.3018495476
      7  O         0.9322251171   -0.6005395141   -1.5583495105
      8  O         2.1713930837   -0.3958201877    0.3086322668
      9  C         1.5211615765    0.6101758241   -2.0681510045
     10  C        -0.6252707585    1.5295456211    1.7682521305
     11  C        -0.4642980045   -2.8429087841   -0.7489551069
     12  C        -0.6812500336   -4.3285922525   -0.3856377868
     13  C        -1.4200896211   -4.2004120896    0.9814417441
     14  C        -1.4826498028   -2.6645601482    1.1348253265
     15  O        -1.6394369970   -2.2144266842   -0.2147831500
     16  H         1.4898169336   -2.9764554996    0.2388066675
     17  H         0.3989722933   -2.7665083470    2.2758347282
     18  H         2.6050760256    0.5088009285   -2.1376539277
     19  H         0.3806393773    1.8717873569    2.0168655481
     20  H        -0.3758167669   -2.6177910407   -1.8067966734
     21  H        -1.3124130906   -4.8098732367   -1.1338235395
     22  H         0.2539368739   -4.8886635738   -0.3209128035
     23  H        -2.4280464262   -4.6139009243    0.9298691364
     24  H        -0.8941496294   -4.6835601924    1.8069418044
     25  H        -2.2951753570   -2.2829725412    1.7494039692
     26  H         1.0825775683    0.7519056767   -3.0532302641
     27  H         1.2790240644    1.4498550092   -1.4152900760
     28  H        -1.2605713691    1.5951816458    2.6523504518
     29  H        -1.0415196366    2.1160910588    0.9521466595
   Point Group: c1    Number of degrees of freedom:    81


   Energy is   -765.861113942

 Hessian Updated using BFGS Update

 75 Hessian modes will be used to form the next step
  Hessian Eigenvalues:
     0.002462    0.003873    0.006842    0.007292    0.008262    0.010436
     0.010836    0.011490    0.022165    0.023009    0.023126    0.026452
     0.031148    0.036298    0.040820    0.041316    0.045689    0.049432
     0.051889    0.054356    0.056052    0.056392    0.058842    0.062862
     0.064652    0.065024    0.073478    0.074964    0.093059    0.095133
     0.101289    0.101398    0.102309    0.105203    0.106098    0.115473
     0.128063    0.159551    0.159845    0.163587    0.169576    0.235866
     0.241967    0.245860    0.247861    0.249830    0.249867    0.257775
     0.263836    0.277987    0.284865    0.306083    0.309117    0.337618
     0.344637    0.345912    0.346250    0.346383    0.347058    0.347161
     0.347286    0.347319    0.347407    0.350151    0.350367    0.350668
     0.350940    0.351908    0.354029    0.396745    0.399657    0.557578
     0.566337    1.008870    1.012719

 Minimum Search - Taking Simple RFO Step
 Searching for Lamda that Minimizes Along All modes
 Value Taken    Lamda =   0.00000000
 Step Taken.  Stepsize is  0.003870

                             Maximum     Tolerance    Cnvgd?
         Gradient           0.000006      0.000001      NO
         Displacement       0.001621      0.000001      NO
         Energy change     -0.000000      0.000000      NO


 New Cartesian Coordinates Obtained by Inverse Iteration

 Displacement from previous Coordinates is:  0.009143
 Adding empirical dispersion correction 
 ----------------------------------------------------------------
 Doing -D3(op) with
 s6 =   1.00000
 s8 =   0.78311
 a1 =   0.30000
 a2 =   4.25000
 n  =  10.00000
 -D3 energy without 3body term =     -0.0310602157 hartrees
 ----------------------------------------------------------------
             Standard Nuclear Orientation (Angstroms)
    I     Atom           X                Y                Z
 ----------------------------------------------------------------
    1      C       0.6675380674    -2.2632030732     0.1375579881
    2      C      -0.0659299817    -2.1320559379     1.5240446432
    3      C      -0.1319012606    -0.7509594204     2.1461251863
    4      C       1.3322237401    -0.9803153703    -0.3338593832
    5      O      -0.5767488650     0.1773734073     1.2799922629
    6      O       0.1299185457    -0.5215366350     3.3018204935
    7      O       0.9323990156    -0.6005938167    -1.5584076003
    8      O       2.1713974515    -0.3957449804     0.3086751215
    9      C       1.5215174349     0.6099639729    -2.0683471599
   10      C      -0.6256843515     1.5294548159     1.7684957819
   11      C      -0.4643061128    -2.8427760345    -0.7489489333
   12      C      -0.6812636676    -4.3284786708    -0.3856568553
   13      C      -1.4202343780    -4.2003070520     0.9813476542
   14      C      -1.4827005417    -2.6644737919     1.1348015660
   15      O      -1.6394178237    -2.2142723219    -0.2147841285
   16      H       1.4898308849    -2.9764107692     0.2387436392
   17      H       0.3989070651    -2.7666423234     2.2758030043
   18      H       2.6055041420     0.5087880800    -2.1369151903
   19      H       0.3805462435     1.8724437224     2.0148230440
   20      H      -0.3757947881    -2.6176632437    -1.8067860890
   21      H      -1.3122961177    -4.8098245895    -1.1339046974
   22      H       0.2539626915    -4.8884728122    -0.3208164818
   23      H      -2.4282395253    -4.6136614956     0.9295905980
   24      H      -0.8944858217    -4.6835975350     1.8068831852
   25      H      -2.2951926602    -2.2828256447     1.7493802504
   26      H       1.0836900829     0.7511434197    -3.0538426135
   27      H       1.2786711305     1.4499346992    -1.4161160684
   28      H      -1.2590581177     1.5948135408     2.6539843110
   29      H      -1.0440824723     2.1156098800     0.9532064912
 ----------------------------------------------------------------
 Nuclear Repulsion Energy =  1122.1374801240 hartrees
 There are       57 alpha and       57 beta electrons
 Applying Cartesian multipole field
    Component          Value
    ---------          -----
     (2,0,0)        1.00000E-11
     (0,2,0)        2.00000E-11
     (0,0,2)       -3.00000E-11
 Nucleus-field energy     =     0.0000000174 hartrees
 Requested basis set is 6-311++G(d,p)
 There are 160 shells and 428 basis functions
 A cutoff of  1.0D-11 yielded  10655 shell pairs
 There are     77876 function pairs (     83173 Cartesian)
 Smallest overlap matrix eigenvalue = 1.07E-06

 Q-Chem warning in module /fs/scratch/osu6415/qchem-kaunlao-vdw/stvman/mkSTV.C, line 281:

 Overlap eigenvalue is smaller than square root of threshold

 Guess MOs from SCF MO coefficient file
 Reading MOs from coefficient file
 Reading MOs from coefficient file
 A restricted hybrid HF-DFT SCF calculation will be
 performed using Pulay DIIS extrapolation
 Exchange:     0.2000 Hartree-Fock + 0.0800 Slater + 0.7200 B88
 Correlation:  0.1900 VWN1RPA + 0.8100 LYP
 Using SG-1 standard quadrature grid
 Dispersion:   Grimme D3
 SCF converges when DIIS error is below 1.0E-08
 Geometry optimization detected.  Setting ReadMinima to 0
 Setting SaveMinima to 0
 using 20 threads for integral computing
 -------------------------------------------------------
 OpenMP Integral computing Module                
 Release: version 1.0, May 2013, Q-Chem Inc. Pittsburgh 
 -------------------------------------------------------
 -------------------------------------------------------
 OpenMP BLAS3 based DFT computing Module                
 Release: version 1.0, May 2013, Q-Chem Inc. Pittsburgh 
 -------------------------------------------------------
 ---------------------------------------
  Cycle       Energy         DIIS Error
 ---------------------------------------
    1    -765.8611664086      9.16E-06
    2    -765.8611139079      8.35E-07
    3    -765.8611139112      1.12E-06
    4    -765.8611139315      3.14E-07
    5    -765.8611139326      1.61E-07
    6    -765.8611139332      4.68E-08
    7    -765.8611139328      1.37E-08
    8    -765.8611139333      2.50E-09 Convergence criterion met
 ---------------------------------------
 SCF time:  CPU 381.82 s  wall 19.94 s
 SCF   energy in the final basis set = -765.86111393
 Total energy in the final basis set = -765.86111393
 
 --------------------------------------------------------------
 
                    Orbital Energies (a.u.)
 --------------------------------------------------------------
 
 Alpha MOs
 -- Occupied --
-19.179 -19.170 -19.133 -19.117 -19.113 -10.311 -10.303 -10.239
-10.233 -10.233 -10.226 -10.208 -10.205 -10.183 -10.183  -1.121
 -1.112  -1.065  -1.031  -1.024  -0.831  -0.785  -0.780  -0.737
 -0.728  -0.658  -0.607  -0.598  -0.580  -0.568  -0.550  -0.516
 -0.504  -0.493  -0.490  -0.486  -0.478  -0.470  -0.462  -0.434
 -0.426  -0.422  -0.409  -0.396  -0.381  -0.374  -0.370  -0.368
 -0.364  -0.359  -0.342  -0.339  -0.320  -0.310  -0.293  -0.277
 -0.274
 -- Virtual --
 -0.019  -0.012  -0.006   0.001   0.006   0.011   0.013   0.019
  0.027   0.034   0.036   0.040   0.045   0.048   0.051   0.057
  0.068   0.076   0.078   0.082   0.088   0.093   0.097   0.100
  0.106   0.108   0.110   0.113   0.116   0.119   0.123   0.127
  0.128   0.134   0.137   0.140   0.142   0.146   0.147   0.151
  0.152   0.158   0.161   0.162   0.167   0.168   0.175   0.178
  0.182   0.183   0.185   0.189   0.192   0.199   0.204   0.206
  0.211   0.219   0.222   0.225   0.229   0.235   0.241   0.248
  0.252   0.255   0.269   0.271   0.280   0.285   0.286   0.289
  0.299   0.304   0.311   0.315   0.319   0.322   0.327   0.330
  0.334   0.341   0.344   0.350   0.354   0.360   0.362   0.364
  0.368   0.373   0.375   0.382   0.388   0.395   0.397   0.404
  0.412   0.417   0.426   0.437   0.441   0.445   0.471   0.480
  0.487   0.498   0.512   0.517   0.526   0.530   0.539   0.551
  0.561   0.573   0.579   0.598   0.602   0.612   0.621   0.623
  0.629   0.643   0.653   0.655   0.663   0.666   0.670   0.681
  0.689   0.691   0.701   0.714   0.719   0.727   0.729   0.740
  0.745   0.752   0.756   0.765   0.776   0.777   0.790   0.800
  0.808   0.815   0.828   0.864   0.872   0.890   0.941   0.948
  0.991   0.997   1.001   1.020   1.040   1.043   1.066   1.071
  1.081   1.133   1.150   1.157   1.179   1.189   1.197   1.208
  1.218   1.221   1.249   1.251   1.264   1.279   1.290   1.294
  1.306   1.331   1.336   1.364   1.376   1.384   1.387   1.396
  1.411   1.425   1.435   1.446   1.457   1.474   1.502   1.508
  1.522   1.536   1.542   1.552   1.554   1.563   1.576   1.577
  1.584   1.597   1.610   1.624   1.634   1.652   1.670   1.677
  1.690   1.701   1.709   1.713   1.722   1.728   1.744   1.753
  1.778   1.784   1.808   1.812   1.822   1.830   1.841   1.852
  1.863   1.880   1.887   1.905   1.912   1.936   1.946   1.964
  1.995   1.999   2.006   2.026   2.035   2.055   2.078   2.098
  2.118   2.123   2.130   2.138   2.156   2.174   2.179   2.199
  2.202   2.225   2.247   2.288   2.297   2.325   2.378   2.435
  2.453   2.462   2.468   2.469   2.491   2.508   2.513   2.519
  2.530   2.540   2.550   2.568   2.572   2.606   2.618   2.637
  2.662   2.671   2.688   2.724   2.736   2.759   2.774   2.807
  2.808   2.830   2.841   2.846   2.866   2.868   2.896   2.902
  2.908   2.923   2.946   2.977   2.997   3.009   3.035   3.046
  3.054   3.068   3.086   3.101   3.117   3.132   3.146   3.160
  3.179   3.187   3.219   3.240   3.246   3.260   3.295   3.332
  3.351   3.384   3.391   3.396   3.438   3.598   3.604   3.644
  3.689   3.718   3.772   3.790   3.835   3.852   3.914   3.935
  3.989   4.046   4.063   4.071   4.085   4.124   4.150   4.156
  4.168   4.218   4.256   4.385   4.507   5.031   5.084   5.120
  5.168   5.212   5.238   5.249   5.395   5.427   5.504   5.601
  5.640   5.649   5.870   5.885  23.829  23.845  23.850  23.877
 23.904  23.927  23.942  23.945  23.969  24.049  49.914  49.926
 49.966  50.025  50.043
 --------------------------------------------------------------
 
          Ground-State Mulliken Net Atomic Charges

     Atom                 Charge (a.u.)
  ----------------------------------------
      1 C                     0.380124
      2 C                     0.254950
      3 C                    -0.547364
      4 C                    -0.812872
      5 O                    -0.043103
      6 O                    -0.198644
      7 O                    -0.014210
      8 O                    -0.180456
      9 C                    -0.175937
     10 C                    -0.219443
     11 C                    -0.129377
     12 C                    -0.439489
     13 C                    -0.538434
     14 C                     0.083317
     15 O                    -0.127508
     16 H                     0.241656
     17 H                     0.281069
     18 H                     0.176361
     19 H                     0.200949
     20 H                     0.285067
     21 H                     0.185176
     22 H                     0.125384
     23 H                     0.185815
     24 H                     0.123827
     25 H                     0.260949
     26 H                     0.155079
     27 H                     0.162879
     28 H                     0.173977
     29 H                     0.150257
  ----------------------------------------
  Sum of atomic charges =     0.000000

 -----------------------------------------------------------------
                    Cartesian Multipole Moments
 -----------------------------------------------------------------
    Charge (ESU x 10^10)
                 0.0000
    Dipole Moment (Debye)
         X      -0.7039      Y      -0.9468      Z      -2.7524
       Tot       2.9946
    Quadrupole Moments (Debye-Ang)
        XX     -93.4297     XY      -0.8005     YY     -71.5351
        XZ      -8.9507     YZ      -1.3729     ZZ     -95.4593
    Octopole Moments (Debye-Ang^2)
       XXX      -2.1708    XXY     128.0368    XYY       1.5602
       YYY     341.9464    XXZ     -42.8359    XYZ       1.7454
       YYZ     -28.5726    XZZ      -3.2453    YZZ     135.2834
       ZZZ    -184.9995
    Hexadecapole Moments (Debye-Ang^3)
      XXXX    -832.5766   XXXY    -254.4494   XXYY    -586.1685
      XYYY    -248.8976   YYYY   -2726.2656   XXXZ     123.1468
      XXYZ      29.3331   XYYZ      47.7102   YYYZ     108.6404
      XXZZ    -333.8029   XYZZ     -73.7143   YYZZ    -664.5646
      XZZZ     130.3434   YZZZ     148.1917   ZZZZ   -1508.9392
 -----------------------------------------------------------------
 Calculating analytic gradient of the SCF energy
 Gradient of SCF Energy
            1           2           3           4           5           6
    1   0.0000024   0.0000128  -0.0000006   0.0000031  -0.0000078  -0.0000001
    2  -0.0000072   0.0000051  -0.0000142   0.0000081   0.0000031  -0.0000096
    3   0.0000041  -0.0000083   0.0000143   0.0000102   0.0000169  -0.0000077
            7           8           9          10          11          12
    1   0.0000013   0.0000008  -0.0000040  -0.0000001  -0.0000031  -0.0000024
    2   0.0000086  -0.0000082   0.0000069  -0.0000091   0.0000108  -0.0000000
    3  -0.0000012  -0.0000043   0.0000063   0.0000072  -0.0000008  -0.0000115
           13          14          15          16          17          18
    1   0.0000069  -0.0000093  -0.0000023   0.0000023  -0.0000006  -0.0000027
    2  -0.0000009  -0.0000130   0.0000068   0.0000005  -0.0000100   0.0000112
    3  -0.0000090  -0.0000075   0.0000007  -0.0000096  -0.0000067   0.0000059
           19          20          21          22          23          24
    1  -0.0000005  -0.0000014   0.0000018   0.0000014   0.0000008   0.0000000
    2  -0.0000055   0.0000070   0.0000060   0.0000036  -0.0000024  -0.0000071
    3   0.0000118  -0.0000034  -0.0000117  -0.0000131  -0.0000121  -0.0000129
           25          26          27          28          29
    1   0.0000034  -0.0000015  -0.0000012   0.0000009  -0.0000002
    2  -0.0000045   0.0000151   0.0000073  -0.0000088   0.0000002
    3  -0.0000036   0.0000081   0.0000094   0.0000124   0.0000163
 Max gradient component =       1.689E-05
 RMS gradient           =       7.536E-06
 Gradient time:  CPU 245.05 s  wall 17.60 s
 Geometry Optimization Parameters
   NAtoms,    NIC,     NZ,  NCons,   NDum,   NFix, NCnnct, MaxDiis
       29     227       0       0       0       0       0       0

 Cartesian Hessian Update
 Hessian Updated using BFGS Update


** GEOMETRY OPTIMIZATION IN DELOCALIZED INTERNAL COORDINATES **
   Searching for a Minimum

   Optimization Cycle:   3

                       Coordinates (Angstroms)
     ATOM                X               Y               Z
      1  C         0.6675380674   -2.2632030732    0.1375579881
      2  C        -0.0659299817   -2.1320559379    1.5240446432
      3  C        -0.1319012606   -0.7509594204    2.1461251863
      4  C         1.3322237401   -0.9803153703   -0.3338593832
      5  O        -0.5767488650    0.1773734073    1.2799922629
      6  O         0.1299185457   -0.5215366350    3.3018204935
      7  O         0.9323990156   -0.6005938167   -1.5584076003
      8  O         2.1713974515   -0.3957449804    0.3086751215
      9  C         1.5215174349    0.6099639729   -2.0683471599
     10  C        -0.6256843515    1.5294548159    1.7684957819
     11  C        -0.4643061128   -2.8427760345   -0.7489489333
     12  C        -0.6812636676   -4.3284786708   -0.3856568553
     13  C        -1.4202343780   -4.2003070520    0.9813476542
     14  C        -1.4827005417   -2.6644737919    1.1348015660
     15  O        -1.6394178237   -2.2142723219   -0.2147841285
     16  H         1.4898308849   -2.9764107692    0.2387436392
     17  H         0.3989070651   -2.7666423234    2.2758030043
     18  H         2.6055041420    0.5087880800   -2.1369151903
     19  H         0.3805462435    1.8724437224    2.0148230440
     20  H        -0.3757947881   -2.6176632437   -1.8067860890
     21  H        -1.3122961177   -4.8098245895   -1.1339046974
     22  H         0.2539626915   -4.8884728122   -0.3208164818
     23  H        -2.4282395253   -4.6136614956    0.9295905980
     24  H        -0.8944858217   -4.6835975350    1.8068831852
     25  H        -2.2951926602   -2.2828256447    1.7493802504
     26  H         1.0836900829    0.7511434197   -3.0538426135
     27  H         1.2786711305    1.4499346992   -1.4161160684
     28  H        -1.2590581177    1.5948135408    2.6539843110
     29  H        -1.0440824723    2.1156098800    0.9532064912
   Point Group: c1    Number of degrees of freedom:    81


   Energy is   -765.861113933

 Hessian Updated using BFGS Update

 77 Hessian modes will be used to form the next step
  Hessian Eigenvalues:
     0.001924    0.004224    0.006847    0.007342    0.009488    0.010439
     0.011335    0.013360    0.022236    0.023096    0.023143    0.026818
     0.031457    0.036282    0.040852    0.041436    0.045760    0.050943
     0.052217    0.054587    0.056063    0.056630    0.058991    0.063832
     0.064700    0.065442    0.073547    0.075399    0.093132    0.095710
     0.101307    0.101393    0.102565    0.105080    0.106100    0.116055
     0.134498    0.159786    0.159991    0.161667    0.164119    0.173793
     0.236321    0.244123    0.246243    0.248145    0.249839    0.249906
     0.251016    0.257830    0.263510    0.278042    0.284510    0.306628
     0.308750    0.337666    0.344642    0.345904    0.346208    0.346371
     0.347062    0.347160    0.347285    0.347331    0.347478    0.350212
     0.350376    0.350669    0.350940    0.351900    0.354050    0.396739
     0.399531    0.558709    0.566962    1.010391    1.015924

 Minimum Search - Taking Simple RFO Step
 Searching for Lamda that Minimizes Along All modes
 Value Taken    Lamda =   0.00000000
 Step Taken.  Stepsize is  0.001390

                             Maximum     Tolerance    Cnvgd?
         Gradient           0.000021      0.000001      NO
         Displacement       0.000494      0.000001      NO
         Energy change      0.000000      0.000000     YES


 New Cartesian Coordinates Obtained by Inverse Iteration

 Displacement from previous Coordinates is:  0.005103
 Adding empirical dispersion correction 
 ----------------------------------------------------------------
 Doing -D3(op) with
 s6 =   1.00000
 s8 =   0.78311
 a1 =   0.30000
 a2 =   4.25000
 n  =  10.00000
 -D3 energy without 3body term =     -0.0310624828 hartrees
 ----------------------------------------------------------------
             Standard Nuclear Orientation (Angstroms)
    I     Atom           X                Y                Z
 ----------------------------------------------------------------
    1      C       0.6675455632    -2.2632490040     0.1375953929
    2      C      -0.0660724587    -2.1321422103     1.5240095990
    3      C      -0.1320043401    -0.7510534482     2.1460949794
    4      C       1.3320597672    -0.9802513178    -0.3337748032
    5      O      -0.5763090777     0.1773708332     1.2797807115
    6      O       0.1296930094    -0.5216578971     3.3018256947
    7      O       0.9322255705    -0.6005463267    -1.5583223960
    8      O       2.1708549840    -0.3953573027     0.3089622212
    9      C       1.5210386047     0.6102342468    -2.0680767982
   10      C      -0.6249958710     1.5294750611     1.7682312598
   11      C      -0.4641268725    -2.8430174094    -0.7490052574
   12      C      -0.6811409460    -4.3286747525    -0.3855364930
   13      C      -1.4203675601    -4.2003396064     0.9813226154
   14      C      -1.4828114292    -2.6644950220     1.1345992555
   15      O      -1.6393098657    -2.2144618562    -0.2150730733
   16      H       1.4899362760    -2.9763248921     0.2388927286
   17      H       0.3986561301    -2.7667575351     2.2758115731
   18      H       2.6050754124     0.5094341587    -2.1364102097
   19      H       0.3812987924     1.8722589255     2.0145947948
   20      H      -0.3754748815    -2.6180378554    -1.8068602320
   21      H      -1.3120353907    -4.8101350164    -1.1338296626
   22      H       0.2540783530    -4.8886511150    -0.3204566002
   23      H      -2.4283785901    -4.6136627471     0.9294301484
   24      H      -0.8947839250    -4.6835529684     1.8070093957
   25      H      -2.2953796598    -2.2827581420     1.7490270402
   26      H       1.0833680918     0.7513021483    -3.0536582893
   27      H       1.2777521240     1.4500888852    -1.4158568743
   28      H      -1.2584024249     1.5950027603     2.6536826620
   29      H      -1.0432193758     2.1156694257     0.9528806372
 ----------------------------------------------------------------
 Nuclear Repulsion Energy =  1122.1610698788 hartrees
 There are       57 alpha and       57 beta electrons
 Applying Cartesian multipole field
    Component          Value
    ---------          -----
     (2,0,0)        1.00000E-11
     (0,2,0)        2.00000E-11
     (0,0,2)       -3.00000E-11
 Nucleus-field energy     =     0.0000000174 hartrees
 Requested basis set is 6-311++G(d,p)
 There are 160 shells and 428 basis functions
 A cutoff of  1.0D-11 yielded  10656 shell pairs
 There are     77880 function pairs (     83177 Cartesian)
 Smallest overlap matrix eigenvalue = 1.07E-06

 Q-Chem warning in module /fs/scratch/osu6415/qchem-kaunlao-vdw/stvman/mkSTV.C, line 281:

 Overlap eigenvalue is smaller than square root of threshold

 Guess MOs from SCF MO coefficient file
 Reading MOs from coefficient file
 Reading MOs from coefficient file
 A restricted hybrid HF-DFT SCF calculation will be
 performed using Pulay DIIS extrapolation
 Exchange:     0.2000 Hartree-Fock + 0.0800 Slater + 0.7200 B88
 Correlation:  0.1900 VWN1RPA + 0.8100 LYP
 Using SG-1 standard quadrature grid
 Dispersion:   Grimme D3
 SCF converges when DIIS error is below 1.0E-08
 Geometry optimization detected.  Setting ReadMinima to 0
 Setting SaveMinima to 0
 using 20 threads for integral computing
 -------------------------------------------------------
 OpenMP Integral computing Module                
 Release: version 1.0, May 2013, Q-Chem Inc. Pittsburgh 
 -------------------------------------------------------
 -------------------------------------------------------
 OpenMP BLAS3 based DFT computing Module                
 Release: version 1.0, May 2013, Q-Chem Inc. Pittsburgh 
 -------------------------------------------------------
 ---------------------------------------
  Cycle       Energy         DIIS Error
 ---------------------------------------
    1    -765.8610901573      6.93E-06
    2    -765.8611139380      9.01E-07
    3    -765.8611139248      1.35E-06
    4    -765.8611139555      3.48E-07
    5    -765.8611139573      1.12E-07
    6    -765.8611139575      3.40E-08
    7    -765.8611139571      1.41E-08
    8    -765.8611139572      4.71E-09 Convergence criterion met
 ---------------------------------------
 SCF time:  CPU 387.21 s  wall 21.11 s
 SCF   energy in the final basis set = -765.86111396
 Total energy in the final basis set = -765.86111396
 
 --------------------------------------------------------------
 
                    Orbital Energies (a.u.)
 --------------------------------------------------------------
 
 Alpha MOs
 -- Occupied --
-19.179 -19.170 -19.133 -19.117 -19.113 -10.311 -10.303 -10.239
-10.233 -10.233 -10.226 -10.208 -10.205 -10.183 -10.183  -1.121
 -1.112  -1.065  -1.031  -1.024  -0.831  -0.785  -0.780  -0.737
 -0.728  -0.658  -0.607  -0.598  -0.580  -0.568  -0.550  -0.516
 -0.504  -0.493  -0.490  -0.486  -0.478  -0.470  -0.462  -0.434
 -0.426  -0.422  -0.409  -0.396  -0.381  -0.374  -0.370  -0.368
 -0.364  -0.359  -0.342  -0.339  -0.320  -0.310  -0.293  -0.277
 -0.274
 -- Virtual --
 -0.019  -0.012  -0.006   0.001   0.006   0.011   0.013   0.019
  0.027   0.034   0.036   0.040   0.045   0.048   0.051   0.057
  0.068   0.076   0.078   0.082   0.088   0.093   0.097   0.100
  0.106   0.108   0.110   0.113   0.116   0.119   0.123   0.127
  0.128   0.134   0.137   0.140   0.142   0.146   0.147   0.151
  0.152   0.158   0.161   0.162   0.167   0.168   0.175   0.178
  0.182   0.183   0.185   0.189   0.192   0.199   0.204   0.206
  0.211   0.219   0.222   0.225   0.229   0.235   0.241   0.248
  0.252   0.255   0.269   0.271   0.280   0.285   0.286   0.289
  0.299   0.304   0.311   0.315   0.319   0.322   0.327   0.330
  0.334   0.341   0.344   0.350   0.354   0.360   0.362   0.364
  0.368   0.373   0.375   0.382   0.388   0.395   0.397   0.404
  0.412   0.417   0.426   0.437   0.441   0.445   0.471   0.480
  0.487   0.498   0.512   0.517   0.526   0.530   0.539   0.551
  0.561   0.573   0.579   0.598   0.602   0.612   0.621   0.623
  0.629   0.643   0.653   0.655   0.663   0.666   0.670   0.681
  0.689   0.691   0.701   0.714   0.719   0.727   0.729   0.740
  0.745   0.752   0.756   0.765   0.776   0.777   0.790   0.799
  0.808   0.815   0.828   0.864   0.872   0.890   0.941   0.948
  0.991   0.997   1.001   1.020   1.040   1.043   1.066   1.071
  1.081   1.133   1.150   1.157   1.179   1.189   1.197   1.208
  1.218   1.221   1.249   1.251   1.264   1.279   1.290   1.294
  1.306   1.331   1.336   1.364   1.376   1.384   1.387   1.396
  1.411   1.425   1.435   1.446   1.457   1.474   1.502   1.508
  1.522   1.536   1.542   1.552   1.554   1.563   1.575   1.577
  1.584   1.597   1.610   1.624   1.634   1.652   1.670   1.677
  1.690   1.701   1.709   1.713   1.722   1.728   1.744   1.753
  1.778   1.784   1.808   1.812   1.822   1.830   1.841   1.852
  1.863   1.880   1.887   1.905   1.912   1.936   1.946   1.964
  1.995   1.999   2.006   2.026   2.035   2.055   2.078   2.098
  2.118   2.123   2.130   2.138   2.156   2.174   2.179   2.199
  2.202   2.225   2.247   2.288   2.297   2.325   2.378   2.435
  2.453   2.462   2.468   2.469   2.491   2.508   2.513   2.519
  2.530   2.540   2.550   2.568   2.572   2.606   2.618   2.637
  2.662   2.671   2.688   2.724   2.736   2.759   2.774   2.807
  2.808   2.830   2.841   2.846   2.866   2.868   2.896   2.902
  2.908   2.923   2.946   2.977   2.997   3.009   3.035   3.046
  3.054   3.068   3.086   3.101   3.117   3.132   3.146   3.160
  3.179   3.187   3.219   3.240   3.246   3.260   3.295   3.332
  3.351   3.384   3.391   3.396   3.438   3.598   3.604   3.644
  3.689   3.718   3.772   3.790   3.835   3.852   3.914   3.935
  3.989   4.046   4.063   4.071   4.085   4.124   4.150   4.156
  4.168   4.218   4.256   4.385   4.507   5.031   5.084   5.120
  5.168   5.212   5.238   5.249   5.395   5.427   5.504   5.601
  5.640   5.649   5.870   5.885  23.829  23.845  23.850  23.877
 23.904  23.927  23.942  23.945  23.969  24.049  49.914  49.926
 49.966  50.025  50.043
 --------------------------------------------------------------
 
          Ground-State Mulliken Net Atomic Charges

     Atom                 Charge (a.u.)
  ----------------------------------------
      1 C                     0.380285
      2 C                     0.254507
      3 C                    -0.547137
      4 C                    -0.812558
      5 O                    -0.043139
      6 O                    -0.198679
      7 O                    -0.014225
      8 O                    -0.180472
      9 C                    -0.175867
     10 C                    -0.219486
     11 C                    -0.129809
     12 C                    -0.439374
     13 C                    -0.538556
     14 C                     0.083621
     15 O                    -0.127539
     16 H                     0.241653
     17 H                     0.281074
     18 H                     0.176365
     19 H                     0.200968
     20 H                     0.285047
     21 H                     0.185175
     22 H                     0.125395
     23 H                     0.185815
     24 H                     0.123815
     25 H                     0.260965
     26 H                     0.155091
     27 H                     0.162856
     28 H                     0.173971
     29 H                     0.150240
  ----------------------------------------
  Sum of atomic charges =     0.000000

 -----------------------------------------------------------------
                    Cartesian Multipole Moments
 -----------------------------------------------------------------
    Charge (ESU x 10^10)
                 0.0000
    Dipole Moment (Debye)
         X      -0.7031      Y      -0.9470      Z      -2.7523
       Tot       2.9944
    Quadrupole Moments (Debye-Ang)
        XX     -93.4266     XY      -0.8010     YY     -71.5349
        XZ      -8.9481     YZ      -1.3736     ZZ     -95.4625
    Octopole Moments (Debye-Ang^2)
       XXX      -2.1539    XXY     128.0311    XYY       1.5656
       YYY     341.9484    XXZ     -42.8294    XYZ       1.7476
       YYZ     -28.5739    XZZ      -3.2373    YZZ     135.2866
       ZZZ    -184.9986
    Hexadecapole Moments (Debye-Ang^3)
      XXXX    -832.3097   XXXY    -254.5172   XXYY    -586.1684
      XYYY    -248.9566   YYYY   -2726.4526   XXXZ     123.0856
      XXYZ      29.3295   XYYZ      47.6885   YYYZ     108.6624
      XXZZ    -333.7638   XYZZ     -73.7382   YYZZ    -664.5736
      XZZZ     130.3118   YZZZ     148.2198   ZZZZ   -1508.8301
 -----------------------------------------------------------------
 Calculating analytic gradient of the SCF energy
 Gradient of SCF Energy
            1           2           3           4           5           6
    1  -0.0000153   0.0000183  -0.0000386   0.0000344   0.0000213   0.0000171
    2   0.0000081  -0.0000046  -0.0000202  -0.0000214   0.0000053  -0.0000093
    3   0.0000086  -0.0000084   0.0000273  -0.0000094  -0.0000061  -0.0000056
            7           8           9          10          11          12
    1  -0.0000110  -0.0000208  -0.0000022  -0.0000019  -0.0000010  -0.0000040
    2   0.0000203   0.0000123   0.0000063  -0.0000114   0.0000061   0.0000012
    3   0.0000030   0.0000098   0.0000083   0.0000109  -0.0000144  -0.0000115
           13          14          15          16          17          18
    1   0.0000062  -0.0000116   0.0000088   0.0000007   0.0000001  -0.0000019
    2   0.0000013  -0.0000031  -0.0000052   0.0000036  -0.0000082   0.0000102
    3  -0.0000080  -0.0000023  -0.0000020  -0.0000102  -0.0000044   0.0000067
           19          20          21          22          23          24
    1   0.0000006  -0.0000010   0.0000008   0.0000002   0.0000002   0.0000006
    2  -0.0000046   0.0000076   0.0000044   0.0000041  -0.0000010  -0.0000063
    3   0.0000129  -0.0000038  -0.0000118  -0.0000137  -0.0000103  -0.0000118
           25          26          27          28          29
    1   0.0000025  -0.0000025  -0.0000019   0.0000017   0.0000002
    2  -0.0000054   0.0000139   0.0000084  -0.0000093  -0.0000028
    3   0.0000000   0.0000082   0.0000101   0.0000133   0.0000145
 Max gradient component =       3.858E-05
 RMS gradient           =       1.108E-05
 Gradient time:  CPU 245.20 s  wall 18.15 s
 Geometry Optimization Parameters
   NAtoms,    NIC,     NZ,  NCons,   NDum,   NFix, NCnnct, MaxDiis
       29     227       0       0       0       0       0       0

 Cartesian Hessian Update
 Hessian Updated using BFGS Update


** GEOMETRY OPTIMIZATION IN DELOCALIZED INTERNAL COORDINATES **
   Searching for a Minimum

   Optimization Cycle:   4

                       Coordinates (Angstroms)
     ATOM                X               Y               Z
      1  C         0.6675455632   -2.2632490040    0.1375953929
      2  C        -0.0660724587   -2.1321422103    1.5240095990
      3  C        -0.1320043401   -0.7510534482    2.1460949794
      4  C         1.3320597672   -0.9802513178   -0.3337748032
      5  O        -0.5763090777    0.1773708332    1.2797807115
      6  O         0.1296930094   -0.5216578971    3.3018256947
      7  O         0.9322255705   -0.6005463267   -1.5583223960
      8  O         2.1708549840   -0.3953573027    0.3089622212
      9  C         1.5210386047    0.6102342468   -2.0680767982
     10  C        -0.6249958710    1.5294750611    1.7682312598
     11  C        -0.4641268725   -2.8430174094   -0.7490052574
     12  C        -0.6811409460   -4.3286747525   -0.3855364930
     13  C        -1.4203675601   -4.2003396064    0.9813226154
     14  C        -1.4828114292   -2.6644950220    1.1345992555
     15  O        -1.6393098657   -2.2144618562   -0.2150730733
     16  H         1.4899362760   -2.9763248921    0.2388927286
     17  H         0.3986561301   -2.7667575351    2.2758115731
     18  H         2.6050754124    0.5094341587   -2.1364102097
     19  H         0.3812987924    1.8722589255    2.0145947948
     20  H        -0.3754748815   -2.6180378554   -1.8068602320
     21  H        -1.3120353907   -4.8101350164   -1.1338296626
     22  H         0.2540783530   -4.8886511150   -0.3204566002
     23  H        -2.4283785901   -4.6136627471    0.9294301484
     24  H        -0.8947839250   -4.6835529684    1.8070093957
     25  H        -2.2953796598   -2.2827581420    1.7490270402
     26  H         1.0833680918    0.7513021483   -3.0536582893
     27  H         1.2777521240    1.4500888852   -1.4158568743
     28  H        -1.2584024249    1.5950027603    2.6536826620
     29  H        -1.0432193758    2.1156694257    0.9528806372
   Point Group: c1    Number of degrees of freedom:    81


   Energy is   -765.861113957

 Hessian Updated using BFGS Update

 79 Hessian modes will be used to form the next step
  Hessian Eigenvalues:
     0.002293    0.004123    0.006791    0.007206    0.008347    0.010439
     0.010975    0.022023    0.022917    0.023125    0.025650    0.030624
     0.035076    0.037855    0.041303    0.042204    0.046094    0.051497
     0.052675    0.054616    0.056059    0.057530    0.059581    0.063966
     0.064685    0.065140    0.073440    0.075136    0.093055    0.097682
     0.101368    0.101491    0.105077    0.105871    0.106105    0.115710
     0.133848    0.159604    0.159950    0.159994    0.161029    0.165872
     0.177789    0.236264    0.244447    0.247382    0.248851    0.249682
     0.249860    0.249922    0.253563    0.258279    0.263341    0.277628
     0.284189    0.306787    0.309094    0.338291    0.344757    0.345945
     0.346223    0.346371    0.347059    0.347169    0.347257    0.347324
     0.347427    0.350361    0.350507    0.350686    0.350939    0.352087
     0.353995    0.396740    0.399558    0.557522    0.565932    1.007669
     1.012360

 Minimum Search - Taking Simple RFO Step
 Searching for Lamda that Minimizes Along All modes
 Value Taken    Lamda =   0.00000000
 Step Taken.  Stepsize is  0.001659

                             Maximum     Tolerance    Cnvgd?
         Gradient           0.000028      0.000001      NO
         Displacement       0.000595      0.000001      NO
         Energy change     -0.000000      0.000000      NO


 New Cartesian Coordinates Obtained by Inverse Iteration

 Displacement from previous Coordinates is:  0.003584
 Adding empirical dispersion correction 
 ----------------------------------------------------------------
 Doing -D3(op) with
 s6 =   1.00000
 s8 =   0.78311
 a1 =   0.30000
 a2 =   4.25000
 n  =  10.00000
 -D3 energy without 3body term =     -0.0310611649 hartrees
 ----------------------------------------------------------------
             Standard Nuclear Orientation (Angstroms)
    I     Atom           X                Y                Z
 ----------------------------------------------------------------
    1      C       0.6675638653    -2.2632168196     0.1375167234
    2      C      -0.0659541909    -2.1320844857     1.5239902600
    3      C      -0.1318514144    -0.7509849293     2.1460538704
    4      C       1.3320970265    -0.9802391479    -0.3338686913
    5      O      -0.5763488237     0.1774015925     1.2798145610
    6      O       0.1294946152    -0.5216789161     3.3018903796
    7      O       0.9322775124    -0.6005545887    -1.5584177941
    8      O       2.1711841803    -0.3955660986     0.3086981477
    9      C       1.5212616127     0.6101137678    -2.0682508115
   10      C      -0.6253474872     1.5294442177     1.7684279185
   11      C      -0.4641881154    -2.8429463467    -0.7490064528
   12      C      -0.6812289907    -4.3286006696    -0.3855659993
   13      C      -1.4202789003    -4.2002839160     0.9813931109
   14      C      -1.4827066652    -2.6644327829     1.1346933238
   15      O      -1.6393229016    -2.2143810347    -0.2149630359
   16      H       1.4899196871    -2.9763350436     0.2387912290
   17      H       0.3988462721    -2.7666651776     2.2757764697
   18      H       2.6052549855     0.5090307258    -2.1368913611
   19      H       0.3807931891     1.8722302368     2.0154008954
   20      H      -0.3756185495    -2.6179285138    -1.8068621772
   21      H      -1.3122647439    -4.8099784536    -1.1337968789
   22      H       0.2539552084    -4.8886526453    -0.3206373182
   23      H      -2.4282847458    -4.6136363278     0.9296515906
   24      H      -0.8945552402    -4.6834762669     1.8070047335
   25      H      -2.2952379182    -2.2827228001     1.7491911226
   26      H       1.0833570248     0.7513466309    -3.0537046968
   27      H       1.2783737104     1.4499798486    -1.4158995317
   28      H      -1.2592564204     1.5948121109     2.6535354626
   29      H      -1.0431637723     2.1157158536     0.9529249704
 ----------------------------------------------------------------
 Nuclear Repulsion Energy =  1122.1501592044 hartrees
 There are       57 alpha and       57 beta electrons
 Applying Cartesian multipole field
    Component          Value
    ---------          -----
     (2,0,0)        1.00000E-11
     (0,2,0)        2.00000E-11
     (0,0,2)       -3.00000E-11
 Nucleus-field energy     =     0.0000000174 hartrees
 Requested basis set is 6-311++G(d,p)
 There are 160 shells and 428 basis functions
 A cutoff of  1.0D-11 yielded  10656 shell pairs
 There are     77880 function pairs (     83177 Cartesian)
 Smallest overlap matrix eigenvalue = 1.07E-06

 Q-Chem warning in module /fs/scratch/osu6415/qchem-kaunlao-vdw/stvman/mkSTV.C, line 281:

 Overlap eigenvalue is smaller than square root of threshold

 Guess MOs from SCF MO coefficient file
 Reading MOs from coefficient file
 Reading MOs from coefficient file
 A restricted hybrid HF-DFT SCF calculation will be
 performed using Pulay DIIS extrapolation
 Exchange:     0.2000 Hartree-Fock + 0.0800 Slater + 0.7200 B88
 Correlation:  0.1900 VWN1RPA + 0.8100 LYP
 Using SG-1 standard quadrature grid
 Dispersion:   Grimme D3
 SCF converges when DIIS error is below 1.0E-08
 Geometry optimization detected.  Setting ReadMinima to 0
 Setting SaveMinima to 0
 using 20 threads for integral computing
 -------------------------------------------------------
 OpenMP Integral computing Module                
 Release: version 1.0, May 2013, Q-Chem Inc. Pittsburgh 
 -------------------------------------------------------
 -------------------------------------------------------
 OpenMP BLAS3 based DFT computing Module                
 Release: version 1.0, May 2013, Q-Chem Inc. Pittsburgh 
 -------------------------------------------------------
 ---------------------------------------
  Cycle       Energy         DIIS Error
 ---------------------------------------
    1    -765.8611112943      4.98E-06
    2    -765.8611139297      4.39E-07
    3    -765.8611139298      6.12E-07
    4    -765.8611139353      2.14E-07
    5    -765.8611139362      5.57E-08
    6    -765.8611139366      1.93E-08
[...]
    -0.00131871      0.00073159      0.00106074
     0.01978412     -0.00581477      0.04403658
     0.01668700     -0.05281168     -0.04216041
    -0.36080177      0.02599739      0.49238529
    -0.17175899      0.23729515     -0.33673442
vibration 69
     0.00014943     -0.00015009      0.00015743
     0.00004844     -0.00008114      0.00005614
    -0.00009958      0.00010527     -0.00031178
    -0.00129586      0.00031218     -0.00268088
     0.00003379     -0.00025278      0.00001132
     0.00002874      0.00004508      0.00014331
    -0.00050274     -0.00213005      0.00170545
     0.00067450      0.00048999      0.00054636
    -0.02386911     -0.03657131      0.00470810
    -0.00061930     -0.00403050     -0.00269361
     0.00002593     -0.00003570      0.00035366
     0.00008266     -0.00050926     -0.00036064
    -0.00014314     -0.00026697      0.00022843
    -0.00003547      0.00005993      0.00003142
    -0.00003194     -0.00002048      0.00002429
    -0.00160887      0.00102813     -0.00006374
    -0.00052083      0.00049364     -0.00054420
     0.62620526     -0.07125986     -0.04037897
     0.06605456      0.02149768      0.01519459
     0.00071404      0.00137084     -0.00424848
     0.00416395      0.00290787      0.00478552
    -0.00530988      0.00303948     -0.00048954
     0.00350687      0.00136236      0.00030970
    -0.00192439      0.00161201     -0.00281020
     0.00050519     -0.00034098     -0.00039196
    -0.18020087      0.05389160     -0.40018155
    -0.14964658      0.47554416      0.37822206
    -0.03987665      0.00298156      0.05439203
    -0.01860221      0.02569453     -0.03627969
vibration 70
     0.01623994     -0.01461381      0.00206227
    -0.00201560      0.00323200     -0.00347154
    -0.00009524      0.00009439     -0.00003577
     0.00038247     -0.00023236      0.00018949
    -0.00000440      0.00000297      0.00000751
     0.00000505     -0.00002357     -0.00001173
    -0.00000476     -0.00000487     -0.00006724
    -0.00004964      0.00002513     -0.00001447
    -0.00006428     -0.00013333     -0.00000656
     0.00000577      0.00004695      0.00002879
     0.00006910     -0.00034740     -0.00175456
    -0.01666643      0.03983130      0.02208165
    -0.01300221     -0.03185788      0.02792981
     0.00217914     -0.00071995     -0.00166856
     0.00000923      0.00004115     -0.00009898
    -0.19508524      0.17534287     -0.02730111
     0.02575515     -0.03687659      0.04088273
     0.00188174     -0.00023262     -0.00006892
    -0.00066702     -0.00021436     -0.00016246
    -0.00196799     -0.00136237      0.01902616
    -0.27088948     -0.18783232     -0.30365918
     0.47103958     -0.27073121      0.04501229
     0.39832167      0.15556324      0.03306611
    -0.24782347      0.21074064     -0.36408480
    -0.02527080      0.00965551      0.02003586
    -0.00042594      0.00006390     -0.00082591
    -0.00045751      0.00152261      0.00122908
     0.00047631     -0.00005541     -0.00066908
     0.00021880     -0.00026864      0.00042190
vibration 71
    -0.04957292      0.04382086     -0.00676102
     0.00215088     -0.00242464      0.00277407
     0.00009208     -0.00011749     -0.00011439
    -0.00105557      0.00058756     -0.00043646
    -0.00000678     -0.00000582     -0.00000475
     0.00001424      0.00002477      0.00000730
     0.00004373      0.00002802      0.00019955
     0.00018262     -0.00003956      0.00004191
     0.00017148      0.00012220     -0.00003389
     0.00003059     -0.00003714     -0.00005142
     0.00023259      0.00099220      0.00028196
     0.01073891     -0.01095560     -0.00378208
    -0.01289326     -0.02681820      0.02386892
     0.00235705     -0.00022686     -0.00155254
     0.00019386     -0.00010063     -0.00013341
     0.59133227     -0.53175793      0.08369039
    -0.02383469      0.03023749     -0.03522150
    -0.00327692      0.00045436      0.00009639
     0.00038228      0.00012371      0.00011283
    -0.00092158     -0.00097922     -0.00161056
     0.04757560      0.02863503      0.05062937
    -0.17012727      0.09732756     -0.01412607
     0.35043768      0.13661198      0.02857548
    -0.20511587      0.17361991     -0.30302424
    -0.02465157      0.00887033      0.01949217
     0.00053858      0.00005111      0.00084319
     0.00034971     -0.00097859     -0.00090431
    -0.00073498      0.00010822      0.00111061
    -0.00021418      0.00030166     -0.00041356
vibration 72
    -0.03132878      0.02733195     -0.00460617
     0.00344205     -0.00508668      0.00557728
     0.00013823     -0.00020421     -0.00005430
    -0.00070027      0.00025758     -0.00028840
     0.00001073      0.00003444     -0.00000009
     0.00000571      0.00006612      0.00006520
     0.00006436      0.00006038      0.00011808
     0.00019453      0.00005988      0.00004309
    -0.00014841     -0.00045761     -0.00001910
     0.00000749     -0.00034246     -0.00026925
    -0.00029313      0.00030605     -0.00289864
    -0.01162414      0.03807028      0.02499530
     0.01012771      0.02469783     -0.02366629
    -0.00351865      0.00102541      0.00203782
     0.00030197     -0.00025902      0.00003451
     0.37247600     -0.33494643      0.05332438
    -0.04204967      0.05860404     -0.06568536
     0.00472299     -0.00037902     -0.00040711
     0.00477206      0.00161875      0.00113731
    -0.00463429     -0.00568041      0.04089575
    -0.28487697     -0.20080660     -0.32182610
     0.42074228     -0.24040115      0.03974031
    -0.30934087     -0.11974974     -0.02580775
     0.19836893     -0.16809554      0.29426745
     0.04242896     -0.01731006     -0.03231206
    -0.00156209      0.00060583     -0.00368210
    -0.00168129      0.00573233      0.00436938
    -0.00354137      0.00033529      0.00491801
    -0.00137217      0.00188163     -0.00269450
vibration 73
     0.00516729     -0.00460919      0.00054381
     0.00313050     -0.00427620      0.00470917
     0.00010360      0.00006263      0.00033640
    -0.00002403     -0.00009935      0.00005030
    -0.00001368     -0.00001570     -0.00002140
    -0.00002975     -0.00000661     -0.00007912
     0.00000679      0.00003252     -0.00004151
     0.00000495      0.00002634      0.00000792
    -0.00016604      0.00003490      0.00003827
    -0.00006626      0.00007801      0.00008365
     0.00100829      0.00057405     -0.00260551
     0.05987994     -0.00013138      0.03359640
    -0.05750247      0.00072786     -0.03056191
     0.00378437     -0.00227163     -0.00376757
    -0.00015713      0.00005433      0.00010123
    -0.06305597      0.05577258     -0.00926714
    -0.03432432      0.05073797     -0.05592846
     0.00190051     -0.00017006     -0.00011467
    -0.00047588     -0.00022149     -0.00012844
    -0.00306145     -0.00626320      0.03144015
    -0.31319233     -0.24104420     -0.36800178
    -0.40079055      0.24326516     -0.02911596
     0.46595133      0.19504549      0.02635280
     0.21687841     -0.20316547      0.33873015
    -0.05060526      0.02365029      0.03887622
    -0.00002486      0.00003041     -0.00000076
     0.00011078     -0.00040326     -0.00035876
     0.00100740     -0.00014868     -0.00143401
     0.00032446     -0.00052816      0.00062233
vibration 74
    -0.00014610      0.00024722     -0.00019419
     0.01449200     -0.02010894      0.02287077
     0.00040728      0.00014120      0.00104447
     0.00023679      0.00021247     -0.00015391
    -0.00003795      0.00005212     -0.00009150
    -0.00011249     -0.00000492     -0.00033230
    -0.00001295     -0.00006342      0.00005980
    -0.00006739     -0.00004617     -0.00001669
     0.00026453     -0.00001974      0.00002081
     0.00046737      0.00028780     -0.00013483
    -0.00137523     -0.00064847      0.00288241
    -0.05404641     -0.00006807     -0.03028514
    -0.05364732     -0.00044982     -0.02738634
     0.00642118     -0.00360565     -0.00613069
     0.00033509     -0.00006400      0.00002489
     0.00282591     -0.00083811      0.00176557
    -0.16923080      0.23762150     -0.26929849
    -0.00278388      0.00024799      0.00019670
    -0.00522890     -0.00190254     -0.00133402
     0.00340986      0.00653186     -0.03390013
     0.28590840      0.21992998      0.33903987
     0.36013533     -0.21757559      0.02395443
     0.44984837      0.18626025      0.02338264
     0.19075487     -0.17929032      0.30254253
    -0.08158359      0.03803110      0.06293957
    -0.00031358      0.00001816     -0.00066886
    -0.00002210      0.00011235      0.00016104
    -0.00115182     -0.00009425      0.00169027
     0.00078311     -0.00114112      0.00128249
vibration 75
    -0.00042538      0.00040401     -0.00000777
    -0.00162963      0.00193982     -0.00220694
     0.00019447      0.00002059      0.00001077
    -0.00010249     -0.00016915     -0.00008132
     0.00032898      0.00009240     -0.00011553
     0.00014087     -0.00008733     -0.00004776
     0.00005375      0.00000963     -0.00001009
     0.00006599      0.00008724      0.00002719
    -0.00846838      0.00616230      0.00508188
    -0.08745966     -0.01320180      0.03265332
    -0.00007393      0.00006450     -0.00013774
    -0.00115355      0.00007345     -0.00057649
    -0.00134188      0.00020630     -0.00090438
     0.00091682     -0.00044640     -0.00075447
     0.00005203     -0.00002067      0.00000526
     0.00503045     -0.00433929      0.00065050
     0.01695692     -0.02324126      0.02678880
     0.08420891     -0.00831678     -0.00340063
     0.63635276      0.20492017      0.16391065
    -0.00015244     -0.00049782      0.00202275
     0.00551293      0.00427398      0.00652695
     0.00838929     -0.00509332      0.00055133
     0.00945793      0.00383150      0.00047182
     0.00665443     -0.00620024      0.01036245
    -0.01073302      0.00516388      0.00806378
    -0.00328023      0.00183584     -0.00242144
     0.01910875     -0.06660092     -0.05444004
     0.40242172     -0.02966001     -0.57956168
    -0.00486826     -0.01847001      0.02887289
vibration 76
    -0.00681310      0.00588509     -0.00037301
    -0.03231839      0.04534239     -0.05151726
    -0.00073914     -0.00020492     -0.00224612
    -0.00036381     -0.00014268      0.00014288
     0.00010518     -0.00029522      0.00022160
     0.00021382     -0.00002220      0.00080281
    -0.00000443      0.00001244      0.00006194
     0.00011230      0.00005445      0.00005704
     0.00705117     -0.00509546     -0.00390183
     0.00296510      0.00000447     -0.00080312
    -0.00041810      0.00046897     -0.00029831
    -0.01751920      0.00055743     -0.00931289
    -0.02790082      0.00291401     -0.01771000
    -0.00265285      0.00167030      0.00095501
     0.00043654     -0.00025988      0.00057852
     0.08292040     -0.07424091      0.00930700
     0.38491781     -0.53095068      0.60973965
    -0.06943008      0.00697558      0.00286507
    -0.01917350     -0.00574167     -0.00486201
    -0.00054408     -0.00223828      0.00809064
     0.08741403      0.06714383      0.10444303
     0.12298219     -0.07409040      0.00780083
     0.20640653      0.08521150      0.01115056
     0.12922340     -0.12009400      0.20181901
     0.02852439     -0.01430062     -0.02276000
     0.00141411     -0.00100195     -0.00065110
    -0.01547973      0.05424738      0.04402099
    -0.01364267      0.00138635      0.01963375
    -0.00206413      0.00379087     -0.00507976
vibration 77
    -0.00095271      0.00078377      0.00004198
    -0.00310190      0.00436165     -0.00498741
    -0.00013573      0.00008802     -0.00031138
     0.00009925     -0.00010520     -0.00001381
    -0.00002061     -0.00009921      0.00008094
     0.00001859     -0.00001141      0.00012370
     0.00028817     -0.00015020     -0.00018655
     0.00012123     -0.00005918     -0.00009058
    -0.06955187      0.04974014      0.03854677
     0.01144737      0.00143892     -0.00346682
    -0.00004685      0.00009290     -0.00017065
    -0.00190113      0.00010877     -0.00097145
    -0.00271883      0.00028376     -0.00172881
    -0.00030139      0.00019645      0.00012782
     0.00005583     -0.00004056      0.00005071
     0.00962326     -0.00830628      0.00092775
     0.03721907     -0.05148475      0.05907973
     0.68611547     -0.06874371     -0.02872725
    -0.08388218     -0.02702398     -0.02146201
    -0.00030302     -0.00058862      0.00259778
     0.00904364      0.00696558      0.01080520
     0.01378421     -0.00832188      0.00092173
     0.02008407      0.00828273      0.00106428
     0.01262236     -0.01173294      0.01971759
     0.00339866     -0.00168232     -0.00269039
    -0.01501083      0.01019811      0.00393562
     0.15107465     -0.53003868     -0.43039551
    -0.04944199      0.00353149      0.07166007
    -0.00197506      0.00611033     -0.00936055
vibration 78
     0.00198579     -0.00084880     -0.00020579
     0.00333311     -0.00381998      0.00439756
    -0.00050471      0.00048798      0.00038429
     0.00015802      0.00010045     -0.00000475
     0.00014761     -0.00012843      0.00000935
     0.00005324     -0.00016870     -0.00035693
    -0.00004486     -0.00006902      0.00000747
    -0.00006593     -0.00006959     -0.00002888
     0.00003431      0.00018101      0.00011942
    -0.00142087     -0.00022682      0.00042214
     0.00043535     -0.00121300      0.00390613
    -0.00036847     -0.00159726     -0.00181299
    -0.01000165     -0.00436462     -0.00164929
    -0.06379616      0.03006455      0.04793816
    -0.00003805     -0.00008637      0.00046648
    -0.01507067      0.01328942     -0.00190508
    -0.03499969      0.04517163     -0.05238145
    -0.00072749      0.00000048      0.00010483
     0.01081715      0.00353328      0.00275259
     0.00486203      0.01229618     -0.05765605
     0.01308417      0.00953032      0.01517524
    -0.00497321      0.00304016     -0.00093126
     0.11446089      0.05057146      0.00729815
     0.00455117     -0.00381600      0.01037083
     0.73612446     -0.34554656     -0.55199559
    -0.00017430      0.00004115     -0.00030377
     0.00050636     -0.00194665     -0.00142372
     0.00577641     -0.00059304     -0.00853625
     0.00014119     -0.00069845      0.00093309
vibration 79
    -0.00002529      0.00002858      0.00000671
    -0.00013784      0.00026587     -0.00021586
    -0.00013047     -0.00088318     -0.00089539
    -0.00005956      0.00003300     -0.00015011
     0.00010872     -0.00007013      0.00030680
     0.00007795      0.00026111      0.00045737
     0.00002167     -0.00005122      0.00006666
     0.00002326      0.00001104      0.00005376
    -0.00083419      0.00044967     -0.00023319
    -0.03499946      0.03110872     -0.08223927
    -0.00004342     -0.00007477      0.00035759
    -0.00004170      0.00000592     -0.00002548
    -0.00008526      0.00001555     -0.00006368
     0.00003870     -0.00001575     -0.00008607
     0.00001276     -0.00000033      0.00002668
     0.00027757     -0.00027824      0.00009414
     0.00217561     -0.00307339      0.00345687
     0.00678371     -0.00095374     -0.00051635
     0.27399093      0.09384225      0.04837295
     0.00037392      0.00093686     -0.00405060
     0.00021403      0.00015983      0.00027291
     0.00028568     -0.00020022      0.00002252
     0.00068003      0.00034111      0.00005844
     0.00048301     -0.00049897      0.00075373
    -0.00086246      0.00035308      0.00053532
     0.00250801     -0.00075156      0.00587483
     0.00051634     -0.00327898     -0.00266303
    -0.20308662      0.01709397      0.25316715
     0.34421804     -0.47439936      0.67490675
vibration 80
     0.00005154      0.00005626      0.00006093
     0.00005274     -0.00004222      0.00008645
    -0.00000659     -0.00001523      0.00004426
    -0.00080027     -0.00095262     -0.00010260
     0.00002051      0.00000370     -0.00001797
     0.00000209     -0.00000326     -0.00001791
     0.00020499      0.00001066      0.00032309
     0.00036310      0.00036072      0.00015519
    -0.04940202     -0.00653587     -0.08047689
    -0.00009358     -0.00024156      0.00064838
     0.00014793      0.00045920     -0.00213560
    -0.00016602     -0.00010882     -0.00014935
    -0.00009625     -0.00004572      0.00000507
    -0.00018919      0.00006952      0.00013136
     0.00002590     -0.00000687      0.00001116
     0.00018024     -0.00006339     -0.00005704
    -0.00046499      0.00064137     -0.00073483
     0.30604020     -0.03964231     -0.03331049
     0.00054645      0.00014223      0.00039933
    -0.00191931     -0.00507393      0.02399391
     0.00172509      0.00141955      0.00192592
     0.00030873     -0.00017821     -0.00003071
     0.00103744      0.00046529      0.00007858
     0.00002693     -0.00005734      0.00009950
     0.00184315     -0.00084089     -0.00132380
     0.36553031     -0.10908760      0.81107196
    -0.08377384      0.23121259      0.17373948
     0.00280775     -0.00019078     -0.00371727
    -0.00236131      0.00306021     -0.00431139
vibration 81
     0.00131452     -0.00047272      0.00056061
     0.00085788     -0.00065920      0.00180983
    -0.00006446      0.00012844      0.00012473
    -0.00039725      0.00032248     -0.00106126
     0.00001087     -0.00005623      0.00001091
     0.00000702     -0.00004216     -0.00006586
     0.00033934      0.00036935      0.00028122
     0.00001561     -0.00012663      0.00018062
     0.00126533     -0.00018134      0.00206734
    -0.00008241      0.00021068     -0.00036227
     0.00658620      0.01726065     -0.08410715
    -0.00304811     -0.00318925     -0.00301355
    -0.00089553     -0.00124528      0.00108719
    -0.00394760      0.00163616      0.00387604
     0.00039483     -0.00016424     -0.00014489
    -0.01118462      0.00836164     -0.00295798
    -0.00880166      0.01154210     -0.01381939
    -0.00625086      0.00108075      0.00055991
     0.00021707      0.00002978     -0.00007714
    -0.07783823     -0.20755366      0.96700777
     0.03653682      0.03082519      0.04136355
    -0.00181945      0.00315834     -0.00156372
     0.01070136      0.00468435      0.00100926
    -0.00478437      0.00445891     -0.00634027
     0.03973738     -0.01874811     -0.02928216
    -0.00969752      0.00278239     -0.02150257
     0.00129323     -0.00241163     -0.00207435
    -0.00091559     -0.00000329      0.00114451
     0.00170846     -0.00233038      0.00322942
[INT]
    1.307384
    1.297367
    1.006121
    5.124036
    0.310288
    1.323698
    1.411964
    0.845822
    0.568299
    0.950333
    5.480417
    4.927364
    7.338860
    9.128275
    9.327182
    3.449278
    3.310324
   24.684901
   10.851052
    3.352092
    2.106982
    8.217379
   11.389608
   21.280484
    9.250268
    6.639345
    1.025113
    4.473671
    8.441032
    7.698804
   24.720356
    8.588349
    3.086908
   12.586540
   31.489514
   23.373533
   18.259197
   53.011283
   32.916529
   65.182977
    2.442902
    1.012697
    5.099247
    1.120612
   10.214277
   25.582028
   24.308594
    8.077358
   64.931624
  326.187354
  130.797228
   16.990205
   55.209373
    9.774152
   26.270287
    1.355793
    6.015979
    9.676966
   22.011414
    4.580976
   14.209749
    1.987998
   16.419537
    1.816691
    8.115438
   96.797108
  466.371632
   28.673761
   37.675042
   19.298339
   14.982918
   31.759408
    0.582337
   24.784808
   19.598773
   16.168150
   15.874994
   20.905697
   12.620170
   13.070186
    8.650943

======= END OF MOLDEN-FORMATTED INPUT FILE =======


        *************************************************************
        *                                                           *
        *  Thank you very much for using Q-Chem.  Have a nice day.  *
        *                                                           *
        *************************************************************


