mFile = /opt/software/qchem/qchem-5.0.1//bin/mpi/machines
Process 0 of 1 is on vega03.cac.cornell.edu - thread support 0
initial socket setup ...start
initial socket setup ...done 
now start server 0 ... 
vega03 10.84.3
Q-Chem Developer Version! Running on 10.84.3.*
                  Welcome to Q-Chem
     A Quantum Leap Into The Future Of Chemistry


 Q-Chem 5.0, Q-Chem, Inc., Pleasanton, CA (2017)

 Yihan Shao,  Zhengting Gan,  E. Epifanovsky,  A. T. B. Gilbert,  M. Wormit,  
 J. Kussmann,  A. W. Lange,  A. Behn,  Jia Deng,  Xintian Feng,  D. Ghosh,  
 M. Goldey,  P. R. Horn,  L. D. Jacobson,  I. Kaliman,  T. Kus,  A. Landau,  
 Jie Liu,  E. I. Proynov,  R. M. Richard,  R. P. Steele,  E. J. Sundstrom,  
 H. L. Woodcock III,  P. M. Zimmerman,  D. Zuev,  B. Albrecht,  E. Alguire,  
 S. A. Baeppler,  Z. Benda,  Y. A. Bernard,  E. J. Berquist,  K. B. Bravaya,  
 D. Casanova,  Chun-Min Chang,  Yunqing Chen,  A. Chien,  K. D. Closser,  
 M. P. Coons,  S. Dasgupta,  M. Diedenhofen,  Hainam Do,  R. G. Edgar,  
 Po-Tung Fang,  S. Fatehi,  Qingguo Feng,  Qinghui Ge,  A. Ghysels,  
 J. Gomes,  J. Gonthier,  A. Gunina,  M. W. D. Hanson-Heine,  
 P. H. P. Harbach,  A. W. Hauser,  J. E. Herr,  E. G. Hohenstein,  
 Z. C. Holden,  Kerwin Hui,  T.-C. Jagau,  Hyunjun Ji,  B. Kaduk,  
 K. Khistyaev,  Jaehoon Kim,  P. Klunzinger,  K. Koh,  D. Kosenkov,  
 T. Kowalczyk,  C. M. Krauter,  A. Kunitsa,  Ka Un Lao,  A. Laurent,  
 K. V. Lawler,  Joonho Lee,  D. Lefrancois,  S. Lehtola,  D. S. Levine,  
 Yi-Pei Li,  You-Sheng Lin,  Fenglai Liu,  E. Livshits,  A. Luenser,  
 P. Manohar,  E. Mansoor,  S. F. Manzer,  Shan-Ping Mao,  Yuezhi Mao,  
 N. Mardirossian,  A. V. Marenich,  L. A. Martinez-Martinez,  S. A. Maurer,  
 N. J. Mayhall,  S. C. McKenzie,  J.-M. Mewes,  A. F. Morrison,  K. Nanda,  
 T. S. Nguyen-Beck,  R. Olivares-Amaya,  J. A. Parkhill,  T. M. Perrine,  
 F. Plasser,  S. Prager,  A. Prociuk,  D. R. Rehn,  F. Rob,  M. Schneider,  
 N. Sergueev,  S. M. Sharada,  S. Sharma,  D. W. Small,  T. Stauch,  
 T. Stein,  Yu-Chuan Su,  A. J. W. Thom,  T. Tsuchimochi,  L. Vogt,  
 O. Vydrov,  M. A. Watson,  J. Wenzel,  M. de Wergifosse,  T. A. Wesolowski,  
 A. White,  J. Witte,  A. Yamada,  Jun Yang,  K. Yao,  S. Yeganeh,  
 S. R. Yost,  Zhi-Qiang You,  A. Zech,  Igor Ying Zhang,  Xing Zhang,  
 Yan Zhao,  Ying Zhu,  B. R. Brooks,  G. K. L. Chan,  C. J. Cramer,  
 M. S. Gordon,  W. J. Hehre,  A. Klamt,  M. W. Schmidt,  C. D. Sherrill,  
 D. G. Truhlar,  A. Aspuru-Guzik,  R. Baer,  A. T. Bell,  N. A. Besley,  
 Jeng-Da Chai,  A. Dreuw,  B. D. Dunietz,  T. R. Furlani,  Chao-Ping Hsu,  
 Yousung Jung,  Jing Kong,  D. S. Lambrecht,  WanZhen Liang,  C. Ochsenfeld,  
 V. A. Rassolov,  L. V. Slipchenko,  J. E. Subotnik,  T. Van Voorhis,  
 J. M. Herbert,  A. I. Krylov,  P. M. W. Gill,  M. Head-Gordon

 Contributors to earlier versions of Q-Chem not listed above: 
 R. D. Adamson,  B. Austin,  J. Baker,  G. J. O. Beran,  K. Brandhorst,  
 S. T. Brown,  E. F. C. Byrd,  A. K. Chakraborty,  C.-L. Cheng,  
 Siu Hung Chien,  D. M. Chipman,  D. L. Crittenden,  H. Dachsel,  
 R. A. DiStasio Jr.,  R. J. Doerksen,  A. D. Dutoi,  L. Fusti-Molnar,  
 W. A. Goddard III,  A. Golubeva-Zadorozhnaya,  S. R. Gwaltney,  G. Hawkins,  
 A. Heyden,  S. Hirata,  G. Kedziora,  F. J. Keil,  C. Kelley,  Jihan Kim,  
 R. A. King,  R. Z. Khaliullin,  P. P. Korambath,  W. Kurlancheek,  
 A. M. Lee,  M. S. Lee,  S. V. Levchenko,  Ching Yeh Lin,  D. Liotard,  
 R. C. Lochan,  I. Lotan,  P. E. Maslen,  N. Nair,  D. P. O'Neill,  
 D. Neuhauser,  E. Neuscamman,  C. M. Oana,  R. Olson,  B. Peters,  
 R. Peverati,  P. A. Pieniazek,  Y. M. Rhee,  J. Ritchie,  M. A. Rohrdanz,  
 E. Rosta,  N. J. Russ,  H. F. Schaefer III,  N. E. Schultz,  N. Shenvi,  
 A. C. Simmonett,  A. Sodt,  D. Stuck,  K. S. Thanthiriwatte,  V. Vanovschi,  
 Tao Wang,  A. Warshel,  C. F. Williams,  Q. Wu,  X. Xu,  W. Zhang

 Please cite Q-Chem as follows:
 Y. Shao et al., Mol. Phys. 113, 184-215 (2015)
 DOI: 10.1080/00268976.2014.952696

 Q-Chem 5.0.1 for Intel X86 EM64T Linux

 Parts of Q-Chem use Armadillo 5.200.1 (Boston Tea Smuggler).
 http://arma.sourceforge.net/

 Q-Chem begins on Mon Apr 16 23:00:53 2018  

Host: vega03.cac.cornell.edu
0

     Scratch files written to /scratch/jj585/vdw/0000_distance_4.500_11.save//
 Parallel job on  1  processors

Checking the input file for inconsistencies... 	...done.

--------------------------------------------------------------
User input:
--------------------------------------------------------------
$molecule
0  1
--
0  1
C        +0.22270000        +1.04488000        +0.58595000
C        +0.62626000        -0.41353000        +0.99871000
C        +1.33008000        +1.39974000        -0.43491000
C        +2.63070000        +1.71700000        +0.32855000
C        +3.04336000        +0.29351000        +0.80300000
C        +1.94423000        -0.59299000        +0.15262000
O        +1.62840000        +0.13663000        -1.04376000
H        +3.37234000        +2.13782000        -0.35195000
H        +2.48236000        +2.42488000        +1.14651000
H        +4.02182000        +0.00994000        +0.41161000
H        +3.07359000        +0.18738000        +1.88928000
H        +1.03270000        +2.19943000        -1.08064000
H        +2.24339000        -1.61496000        +0.04786000
H        +0.81693000        -0.48905000        +2.04887000
H        -0.12524000        -1.15356000        +0.81843000
H        -0.74673000        +1.06811000        +0.13365000
H        +0.15552000        +1.72617000        +1.40828000
--
0  1
C        +3.27031000        +2.81908000        +3.38135000
C        +3.67387000        +1.36067000        +3.79411000
C        +4.37769000        +3.17394000        +2.36049000
C        +5.67831000        +3.49120000        +3.12395000
C        +6.09097000        +2.06771000        +3.59840000
C        +4.99184000        +1.18121000        +2.94802000
O        +4.67601000        +1.91083000        +1.75164000
H        +6.41995000        +3.91202000        +2.44345000
H        +5.52997000        +4.19908000        +3.94191000
H        +7.06943000        +1.78414000        +3.20701000
H        +6.12120000        +1.96158000        +4.68468000
H        +4.08031000        +3.97363000        +1.71476000
H        +5.29100000        +0.15924000        +2.84326000
H        +3.86454000        +1.28515000        +4.84427000
H        +2.92237000        +0.62064000        +3.61383000
H        +2.30088000        +2.84231000        +2.92905000
H        +3.20313000        +3.50037000        +4.20368000
$end

$rem
JOBTYPE                   SP
METHOD                    B3LYP
DFT_D                     d3_op
BASIS                     6-311++G(d,p)
SYMMETRY                  False
THRESH                    12
SCF_CONVERGENCE           8
MAX_SUB_FILE_NUM          128
MEM_STATIC                400
MEM_TOTAL                 4000
$end
--------------------------------------------------------------
 Adding empirical dispersion correction 
 ----------------------------------------------------------------
 Doing -D3(op) with
 s6 =   1.00000
 s8 =   0.78311
 a1 =   0.30000
 a2 =   4.25000
 n  =  10.00000
 -D3 energy without 3body term =     -0.0373680822 hartrees
 ----------------------------------------------------------------
             Standard Nuclear Orientation (Angstroms)
    I     Atom           X                Y                Z
 ----------------------------------------------------------------
    1      C       2.8453019365    -0.5648556430     1.1917797517
    2      C       2.8942720801     0.9747983583     0.8963839143
    3      C       2.5036607705    -1.1411552374    -0.2030432890
    4      C       1.0081313708    -0.9034811899    -0.4894701125
    5      C       1.0011808036     0.6323039707    -0.7405288473
    6      C       2.5121455260     0.9821444545    -0.6330095708
    7      O       3.1408306033    -0.2220731918    -1.0999506502
    8      H       0.7051738140    -1.4518571140    -1.3826107379
    9      H       0.3622011477    -1.2151041511     0.3338297651
   10      H       0.6400894210     0.8717637004    -1.7421545757
   11      H       0.3940196408     1.1888138159    -0.0237068451
   12      H       2.7734347410    -2.1735359746    -0.2825304692
   13      H       2.7623477477     1.8978192824    -1.1268035581
   14      H       2.1812561793     1.5134367223     1.4849171613
   15      H       3.8274933180     1.4449424074     1.1265147975
   16      H       3.7900485455    -0.9250843977     1.5419204904
   17      H       2.1493554620    -0.8383771558     1.9571164959
   18      C      -1.6472987957    -0.5061430459     1.4429072183
   19      C      -1.5983286521     1.0335109553     1.1475113809
   20      C      -1.9889399616    -1.0824426404     0.0480841776
   21      C      -3.4844693614    -0.8447685929    -0.2383426459
   22      C      -3.4914199286     0.6910165677    -0.4894013807
   23      C      -1.9804552062     1.0408570515    -0.3818821041
   24      O      -1.3517701289    -0.1633605948    -0.8488231836
   25      H      -3.7874269182    -1.3931445169    -1.1314832713
   26      H      -4.1303995845    -1.1563915540     0.5849572317
   27      H      -3.8525113111     0.9304762974    -1.4910271091
   28      H      -4.0985810914     1.2475264129     0.2274206215
   29      H      -1.7191659911    -2.1148233775    -0.0314030026
   30      H      -1.7302529844     1.9565318794    -0.8756760915
   31      H      -2.3113445529     1.5721493194     1.7360446279
   32      H      -0.6651074141     1.5036550045     1.3776422642
   33      H      -0.7025521867    -0.8663718006     1.7930479570
   34      H      -2.3432452702    -0.7796645588     2.2082439625
 ----------------------------------------------------------------
 Molecular Point Group                 C1    NOp =  1
 Largest Abelian Subgroup              C1    NOp =  1
 Nuclear Repulsion Energy =  1001.6026678181 hartrees
 There are       54 alpha and       54 beta electrons
 Requested basis set is 6-311++G(d,p)
 There are 184 shells and 448 basis functions

 Total QAlloc Memory Limit   4000 MB
 Mega-Array Size       392 MB
 MEM_STATIC part       400 MB
 A cutoff of  1.0D-12 yielded  14743 shell pairs
 There are     87183 function pairs (     92435 Cartesian)
 
 -------------------------------------------------------
 OpenMP Integral Computing Module                       
 Release: version 1.0, May 2013, Q-Chem Inc. Pittsburgh 
 -------------------------------------------------------
 Integral Job Info:
 Integral job number is                      11
 Integral operator is                         1
 short-range coefficients                     0
 long-range coefficients              100000000
 Omega coefficients                           0
 if combine SR and LR in K                    0
 Integral screening is                        0
 Integral computing path is                   2
 max size of driver memory is            800000
 size of driver memory is                593474
 size of scratch memory is              2361544
 max col of scratch BK array               1296
 max len of scratch array in speh3          155
 max len of scratch index in speh4           18
 max int batch size is                      520
 min int batch size is                       52
 fixed nKL is                                52
 max L of basis functions is                  2
 order of int derivative is                   0
 number of shells is                        184
 number of basis is                         462
 number of cartesian basis is               462
 number of contracted shell pairs         14743
 number of primitive shell pairs          32067
 maxK2 (contraction) of shell pair           36
 max number of K2 of shell pair               1
 max number of CS2 of shell pair           2618
 max number of PS2 of shell pair           4638
 mem total for path MDJ                  124338
 -------------------------------------------------------
 Smallest overlap matrix eigenvalue = 9.40E-07
 Linear dependence detected in AO basis
 Number of orthogonalized atomic orbitals = 447
 Maximum deviation from orthogonality = 4.581E-11

 Scale SEOQF with 1.000000e-01/1.000000e-01/1.000000e-01

 Standard Electronic Orientation quadrupole field applied
 Nucleus-field energy     =     0.0000000199 hartrees
 Guess from superposition of atomic densities
 Warning:  Energy on first SCF cycle will be non-variational
 A restricted hybrid HF-DFT SCF calculation will be
 performed using Pulay DIIS extrapolation
 Exchange:     0.2000 Hartree-Fock + 0.0800 Slater + 0.7200 B88
 Correlation:  0.1900 VWN1RPA + 0.8100 LYP
 Using SG-1 standard quadrature grid
 Dispersion:   Grimme D3
 SCF converges when DIIS error is below 1.0E-08
 using 4 threads for integral computing
 -------------------------------------------------------
 OpenMP Integral computing Module                
 Release: version 1.0, May 2013, Q-Chem Inc. Pittsburgh 
 -------------------------------------------------------
 -------------------------------------------------------
 OpenMP BLAS3 based DFT computing Module                
 Release: version 1.0, May 2013, Q-Chem Inc. Pittsburgh 
 -------------------------------------------------------
 ---------------------------------------
  Cycle       Energy         DIIS Error
 ---------------------------------------
    1    -622.9603492076      2.94E-02
    2    -619.6138337124      3.35E-03
    3    -619.4496651953      4.30E-03
    4    -619.8927416911      5.48E-04
    5    -619.8974891248      2.42E-04
    6    -619.8985041408      7.04E-05
    7    -619.8985878609      1.91E-05
    8    -619.8985955611      2.53E-06
    9    -619.8985957053      8.40E-07
   10    -619.8985957192      3.88E-07
   11    -619.8985957219      7.17E-08
   12    -619.8985957219      1.87E-08
   13    -619.8985957219      6.78E-09 Convergence criterion met
 ---------------------------------------
 SCF time:  CPU 691.92 s  wall 173.77 s
 SCF   energy in the final basis set = -619.89859572
 Total energy in the final basis set = -619.89859572
 
 --------------------------------------------------------------
 
                    Orbital Energies (a.u.)
 --------------------------------------------------------------
 
 Alpha MOs
 -- Occupied --
-19.126 -19.109 -10.228 -10.225 -10.206 -10.203 -10.174 -10.173
-10.173 -10.172 -10.156 -10.155 -10.148 -10.148  -1.059  -1.036
 -0.806  -0.785  -0.758  -0.757  -0.735  -0.734  -0.624  -0.603
 -0.586  -0.582  -0.569  -0.559  -0.535  -0.513  -0.493  -0.479
 -0.459  -0.447  -0.439  -0.417  -0.414  -0.405  -0.393  -0.384
 -0.377  -0.367  -0.358  -0.349  -0.346  -0.345  -0.337  -0.325
 -0.322  -0.310  -0.305  -0.289  -0.270  -0.244
 -- Virtual --
 -0.014  -0.000   0.000   0.005   0.018   0.018   0.019   0.027
  0.029   0.038   0.039   0.048   0.048   0.055   0.059   0.066
  0.071   0.075   0.077   0.088   0.090   0.094   0.099   0.100
  0.107   0.107   0.111   0.114   0.117   0.119   0.123   0.125
  0.127   0.128   0.133   0.136   0.137   0.141   0.141   0.146
  0.148   0.153   0.155   0.160   0.160   0.161   0.162   0.165
  0.170   0.172   0.173   0.175   0.180   0.184   0.187   0.188
  0.198   0.201   0.203   0.206   0.210   0.215   0.220   0.221
  0.225   0.229   0.236   0.239   0.239   0.243   0.245   0.249
  0.254   0.260   0.262   0.274   0.280   0.283   0.285   0.290
  0.300   0.302   0.309   0.311   0.316   0.317   0.327   0.331
  0.332   0.336   0.340   0.349   0.353   0.354   0.357   0.362
  0.366   0.369   0.374   0.376   0.381   0.384   0.392   0.394
  0.401   0.418   0.422   0.423   0.437   0.453   0.459   0.491
  0.495   0.506   0.519   0.537   0.544   0.549   0.553   0.560
  0.570   0.575   0.582   0.588   0.599   0.603   0.624   0.626
  0.633   0.645   0.648   0.652   0.668   0.671   0.675   0.677
  0.683   0.694   0.698   0.709   0.714   0.718   0.724   0.735
  0.739   0.743   0.750   0.757   0.758   0.768   0.769   0.774
  0.778   0.780   0.791   0.805   0.808   0.815   0.822   0.830
  0.836   0.848   0.863   0.880   0.907   0.917   0.920   0.944
  0.950   0.961   0.966   0.982   0.999   1.025   1.062   1.072
  1.083   1.119   1.144   1.157   1.185   1.210   1.214   1.226
  1.235   1.243   1.257   1.270   1.298   1.316   1.330   1.339
  1.361   1.400   1.409   1.437   1.442   1.448   1.472   1.479
  1.484   1.492   1.502   1.512   1.522   1.539   1.541   1.544
  1.559   1.568   1.571   1.585   1.598   1.602   1.605   1.628
  1.637   1.645   1.656   1.668   1.678   1.689   1.693   1.696
  1.707   1.714   1.714   1.736   1.744   1.755   1.770   1.774
  1.799   1.803   1.818   1.821   1.825   1.837   1.841   1.854
  1.859   1.877   1.887   1.901   1.911   1.915   1.924   1.931
  1.939   1.952   1.959   1.962   1.972   1.996   2.015   2.028
  2.037   2.052   2.063   2.106   2.131   2.145   2.154   2.161
  2.175   2.184   2.187   2.192   2.194   2.203   2.211   2.223
  2.242   2.271   2.282   2.293   2.309   2.319   2.330   2.356
  2.360   2.455   2.467   2.479   2.494   2.506   2.508   2.518
  2.524   2.535   2.541   2.545   2.573   2.589   2.593   2.604
  2.625   2.626   2.636   2.648   2.684   2.717   2.731   2.738
  2.753   2.756   2.769   2.784   2.789   2.798   2.802   2.811
  2.819   2.842   2.853   2.875   2.890   2.900   2.908   2.913
  2.918   2.932   2.965   2.982   3.007   3.028   3.031   3.050
  3.056   3.071   3.080   3.113   3.127   3.129   3.142   3.167
  3.174   3.223   3.240   3.262   3.286   3.304   3.312   3.329
  3.379   3.402   3.419   3.434   3.469   3.620   3.657   3.698
  3.733   3.940   3.955   3.972   3.980   3.986   3.999   4.090
  4.099   4.107   4.111   4.134   4.164   4.182   4.198   4.235
  4.253   4.366   4.392   4.477   4.497   5.183   5.260   5.499
  5.542   5.646   5.648  23.837  23.852  23.860  23.875  23.944
 23.981  23.988  24.010  24.018  24.058  24.069  24.096  49.967
 50.004
 --------------------------------------------------------------
 
          Ground-State Mulliken Net Atomic Charges

     Atom                 Charge (a.u.)
  ----------------------------------------
      1 C                    -0.374309
      2 C                    -0.368482
      3 C                    -0.205849
      4 C                    -0.127021
      5 C                    -0.164589
      6 C                    -0.216650
      7 O                    -0.126604
      8 H                     0.211588
      9 H                     0.025038
     10 H                     0.206065
     11 H                     0.013189
     12 H                     0.217748
     13 H                     0.216237
     14 H                     0.089312
     15 H                     0.180589
     16 H                     0.173284
     17 H                     0.102311
     18 C                    -0.414476
     19 C                    -0.393198
     20 C                     0.186760
     21 C                    -0.593728
     22 C                    -0.551290
     23 C                     0.188379
     24 O                     0.037389
     25 H                     0.169182
     26 H                     0.127853
     27 H                     0.171086
     28 H                     0.124641
     29 H                     0.226371
     30 H                     0.228552
     31 H                     0.166538
     32 H                     0.162776
     33 H                     0.134505
     34 H                     0.176801
  ----------------------------------------
  Sum of atomic charges =     0.000000

 -----------------------------------------------------------------
                    Cartesian Multipole Moments
 -----------------------------------------------------------------
    Charge (ESU x 10^10)
                -0.0000
    Dipole Moment (Debye)
         X      -3.2489      Y       0.4719      Z       2.3606
       Tot       4.0436
    Quadrupole Moments (Debye-Ang)
        XX     -92.7090     XY       0.9081     YY     -81.7893
        XZ       3.8966     YZ      -2.0229     ZZ     -90.5868
    Octopole Moments (Debye-Ang^2)
       XXX     -40.4802    XXY       3.7187    XYY       4.1425
       YYY      -3.6058    XXZ      19.4925    XYZ      -2.4257
       YYZ      -6.0130    XZZ      -8.9477    YZZ       1.9947
       ZZZ      -3.6561
    Hexadecapole Moments (Debye-Ang^3)
      XXXX   -3347.9793   XXXY      15.3208   XXYY    -598.6703
      XYYY      -4.3813   YYYY    -551.8585   XXXZ      62.1569
      XXYZ     -12.2450   XYYZ      -7.0421   YYYZ      -1.3742
      XXZZ    -647.6778   XYZZ       4.1442   YYZZ    -180.2053
      XZZZ       0.5214   YZZZ      -5.4267   ZZZZ    -552.4135
 -----------------------------------------------------------------
Archival summary:
1\1\vega03.cac.cornell.edu\SP\ProcedureUnspecified\BasisUnspecified\21220\jj585\MonApr1623:03:482018MonApr1623:03:482018\0\\#,ProcedureUnspecified,BasisUnspecified,\\0,1\O\C,1,1.43358\H,2,1.07,1,117.389\C,1,1.43646,2,98.0224,3,-179.253,0\H,4,1.07,1,117.714,2,-178.733,0\C,2,1.54115,1,102.483,3,-123.548,0\H,6,1.09096,2,110.128,1,81.1589,0\H,6,1.09186,2,112.95,1,-157.962,0\C,2,1.54738,1,103.124,3,123.327,0\H,9,1.07,2,113.95,1,155.255,0\H,9,1.07,2,111.379,1,-86.5463,0\C,4,1.55466,1,102.371,2,-54.4128,0\H,12,1.09132,4,109.614,1,-87.4148,0\H,12,1.09187,4,112.355,1,152.676,0\C,9,1.5685,2,101.696,1,32.1918,0\H,15,1.07,9,111.7,2,120.458,0\H,15,1.07,9,114.71,2,-121.541,0\H,17,1.78456,15,105.737,9,82.1026,0\C,18,1.09187,17,159.306,15,-66.8215,0\H,19,1.09132,18,107.862,17,126.212,0\C,19,1.55466,18,112.355,17,-112.866,0\H,21,1.07,19,112.825,18,-79.816,0\O,21,1.43646,19,102.371,18,152.676,0\C,23,1.43358,21,98.0224,19,-54.4128,0\H,24,1.07,23,117.389,21,-179.253,0\C,24,1.54115,23,102.483,21,57.1986,0\H,26,1.09096,24,110.128,23,81.1589,0\H,26,1.09186,24,112.95,23,-157.962,0\C,24,1.54738,23,103.124,21,-55.9256,0\H,29,1.07,24,113.95,23,155.255,0\H,29,1.07,24,111.379,23,-86.5463,0\C,29,1.5685,24,101.696,23,32.1918,0\H,32,1.07,29,111.7,24,120.458,0\H,32,1.07,29,114.71,24,-121.541,0\\\@

 Total job time:  174.83s(wall), 694.94s(cpu) 
 Mon Apr 16 23:03:48 2018

        *************************************************************
        *                                                           *
        *  Thank you very much for using Q-Chem.  Have a nice day.  *
        *                                                           *
        *************************************************************


0 sent ACK to 0 
now end server 0 ... 
