mFile = /opt/software/qchem/qchem-5.0.1//bin/mpi/machines
Process 0 of 1 is on vega02.cac.cornell.edu - thread support 0
initial socket setup ...start
initial socket setup ...done 
now start server 0 ... 
vega02.cac.cornell.edu 10.84.3
Q-Chem Developer Version! Running on 10.84.3.*
                  Welcome to Q-Chem
     A Quantum Leap Into The Future Of Chemistry


 Q-Chem 5.0, Q-Chem, Inc., Pleasanton, CA (2017)

 Yihan Shao,  Zhengting Gan,  E. Epifanovsky,  A. T. B. Gilbert,  M. Wormit,  
 J. Kussmann,  A. W. Lange,  A. Behn,  Jia Deng,  Xintian Feng,  D. Ghosh,  
 M. Goldey,  P. R. Horn,  L. D. Jacobson,  I. Kaliman,  T. Kus,  A. Landau,  
 Jie Liu,  E. I. Proynov,  R. M. Richard,  R. P. Steele,  E. J. Sundstrom,  
 H. L. Woodcock III,  P. M. Zimmerman,  D. Zuev,  B. Albrecht,  E. Alguire,  
 S. A. Baeppler,  Z. Benda,  Y. A. Bernard,  E. J. Berquist,  K. B. Bravaya,  
 D. Casanova,  Chun-Min Chang,  Yunqing Chen,  A. Chien,  K. D. Closser,  
 M. P. Coons,  S. Dasgupta,  M. Diedenhofen,  Hainam Do,  R. G. Edgar,  
 Po-Tung Fang,  S. Fatehi,  Qingguo Feng,  Qinghui Ge,  A. Ghysels,  
 J. Gomes,  J. Gonthier,  A. Gunina,  M. W. D. Hanson-Heine,  
 P. H. P. Harbach,  A. W. Hauser,  J. E. Herr,  E. G. Hohenstein,  
 Z. C. Holden,  Kerwin Hui,  T.-C. Jagau,  Hyunjun Ji,  B. Kaduk,  
 K. Khistyaev,  Jaehoon Kim,  P. Klunzinger,  K. Koh,  D. Kosenkov,  
 T. Kowalczyk,  C. M. Krauter,  A. Kunitsa,  Ka Un Lao,  A. Laurent,  
 K. V. Lawler,  Joonho Lee,  D. Lefrancois,  S. Lehtola,  D. S. Levine,  
 Yi-Pei Li,  You-Sheng Lin,  Fenglai Liu,  E. Livshits,  A. Luenser,  
 P. Manohar,  E. Mansoor,  S. F. Manzer,  Shan-Ping Mao,  Yuezhi Mao,  
 N. Mardirossian,  A. V. Marenich,  L. A. Martinez-Martinez,  S. A. Maurer,  
 N. J. Mayhall,  S. C. McKenzie,  J.-M. Mewes,  A. F. Morrison,  K. Nanda,  
 T. S. Nguyen-Beck,  R. Olivares-Amaya,  J. A. Parkhill,  T. M. Perrine,  
 F. Plasser,  S. Prager,  A. Prociuk,  D. R. Rehn,  F. Rob,  M. Schneider,  
 N. Sergueev,  S. M. Sharada,  S. Sharma,  D. W. Small,  T. Stauch,  
 T. Stein,  Yu-Chuan Su,  A. J. W. Thom,  T. Tsuchimochi,  L. Vogt,  
 O. Vydrov,  M. A. Watson,  J. Wenzel,  M. de Wergifosse,  T. A. Wesolowski,  
 A. White,  J. Witte,  A. Yamada,  Jun Yang,  K. Yao,  S. Yeganeh,  
 S. R. Yost,  Zhi-Qiang You,  A. Zech,  Igor Ying Zhang,  Xing Zhang,  
 Yan Zhao,  Ying Zhu,  B. R. Brooks,  G. K. L. Chan,  C. J. Cramer,  
 M. S. Gordon,  W. J. Hehre,  A. Klamt,  M. W. Schmidt,  C. D. Sherrill,  
 D. G. Truhlar,  A. Aspuru-Guzik,  R. Baer,  A. T. Bell,  N. A. Besley,  
 Jeng-Da Chai,  A. Dreuw,  B. D. Dunietz,  T. R. Furlani,  Chao-Ping Hsu,  
 Yousung Jung,  Jing Kong,  D. S. Lambrecht,  WanZhen Liang,  C. Ochsenfeld,  
 V. A. Rassolov,  L. V. Slipchenko,  J. E. Subotnik,  T. Van Voorhis,  
 J. M. Herbert,  A. I. Krylov,  P. M. W. Gill,  M. Head-Gordon

 Contributors to earlier versions of Q-Chem not listed above: 
 R. D. Adamson,  B. Austin,  J. Baker,  G. J. O. Beran,  K. Brandhorst,  
 S. T. Brown,  E. F. C. Byrd,  A. K. Chakraborty,  C.-L. Cheng,  
 Siu Hung Chien,  D. M. Chipman,  D. L. Crittenden,  H. Dachsel,  
 R. A. DiStasio Jr.,  R. J. Doerksen,  A. D. Dutoi,  L. Fusti-Molnar,  
 W. A. Goddard III,  A. Golubeva-Zadorozhnaya,  S. R. Gwaltney,  G. Hawkins,  
 A. Heyden,  S. Hirata,  G. Kedziora,  F. J. Keil,  C. Kelley,  Jihan Kim,  
 R. A. King,  R. Z. Khaliullin,  P. P. Korambath,  W. Kurlancheek,  
 A. M. Lee,  M. S. Lee,  S. V. Levchenko,  Ching Yeh Lin,  D. Liotard,  
 R. C. Lochan,  I. Lotan,  P. E. Maslen,  N. Nair,  D. P. O'Neill,  
 D. Neuhauser,  E. Neuscamman,  C. M. Oana,  R. Olson,  B. Peters,  
 R. Peverati,  P. A. Pieniazek,  Y. M. Rhee,  J. Ritchie,  M. A. Rohrdanz,  
 E. Rosta,  N. J. Russ,  H. F. Schaefer III,  N. E. Schultz,  N. Shenvi,  
 A. C. Simmonett,  A. Sodt,  D. Stuck,  K. S. Thanthiriwatte,  V. Vanovschi,  
 Tao Wang,  A. Warshel,  C. F. Williams,  Q. Wu,  X. Xu,  W. Zhang

 Please cite Q-Chem as follows:
 Y. Shao et al., Mol. Phys. 113, 184-215 (2015)
 DOI: 10.1080/00268976.2014.952696

 Q-Chem 5.0.1 for Intel X86 EM64T Linux

 Parts of Q-Chem use Armadillo 5.200.1 (Boston Tea Smuggler).
 http://arma.sourceforge.net/

 Q-Chem begins on Tue Apr 17 23:34:59 2018  

Host: vega02.cac.cornell.edu
0

     Scratch files written to /scratch/jj585/vdw/0110_distance_4.500_11.save//
 Parallel job on  1  processors

Checking the input file for inconsistencies... 	...done.

--------------------------------------------------------------
User input:
--------------------------------------------------------------
$molecule
0  1
--
0  1
C        +0.20186000        +1.01419000        +0.57588000
C        +0.65458000        -0.40740000        +1.00877000
C        +1.31047000        +1.40432000        -0.43622000
C        +2.61036000        +1.71622000        +0.34904000
C        +3.06420000        +0.29616000        +0.78527000
C        +1.94960000        -0.59295000        +0.17632000
O        +1.62620000        +0.12693000        -1.03574000
H        +3.34518000        +2.18171000        -0.31153000
H        +2.43386000        +2.39558000        +1.18603000
H        +4.02983000        +0.03650000        +0.34656000
H        +3.14253000        +0.17627000        +1.86830000
C        +0.91819000        +2.41036000        -1.49368000
C        +2.33867000        -2.01935000        -0.13734000
H        +3.21332000        -2.04461000        -0.79203000
H        +2.58239000        -2.55643000        +0.78377000
H        +1.51806000        -2.54232000        -0.63447000
H        +1.73500000        +2.55908000        -2.20400000
H        +0.68341000        +3.37378000        -1.03196000
H        +0.03753000        +2.06800000        -2.04235000
H        +0.83643000        -0.49892000        +2.08202000
H        -0.08220000        -1.16297000        +0.72684000
H        -0.76801000        +0.98583000        +0.07445000
H        +0.13288000        +1.72189000        +1.40479000
--
0  1
C        +0.21855000        +2.33519000        +4.87759000
C        +0.67127000        +0.91360000        +5.31048000
C        +1.32716000        +2.72532000        +3.86549000
C        +2.62705000        +3.03722000        +4.65075000
C        +3.08089000        +1.61716000        +5.08698000
C        +1.96629000        +0.72805000        +4.47803000
O        +1.64289000        +1.44793000        +3.26597000
H        +3.36187000        +3.50271000        +3.99018000
H        +2.45055000        +3.71658000        +5.48774000
H        +4.04652000        +1.35750000        +4.64827000
H        +3.15922000        +1.49727000        +6.17001000
C        +0.93488000        +3.73136000        +2.80803000
C        +2.35536000        -0.69835000        +4.16437000
H        +3.23001000        -0.72361000        +3.50968000
H        +2.59908000        -1.23543000        +5.08548000
H        +1.53475000        -1.22132000        +3.66724000
H        +1.75169000        +3.88008000        +2.09771000
H        +0.70010000        +4.69478000        +3.26975000
H        +0.05422000        +3.38900000        +2.25936000
H        +0.85312000        +0.82208000        +6.38373000
H        -0.06551000        +0.15803000        +5.02855000
H        -0.75132000        +2.30683000        +4.37616000
H        +0.14957000        +3.04289000        +5.70650000
$end

$rem
JOBTYPE                   SP
METHOD                    B3LYP
DFT_D                     d3_op
BASIS                     6-311++G(d,p)
SYMMETRY                  False
THRESH                    12
SCF_CONVERGENCE           8
MAX_SUB_FILE_NUM          128
MEM_STATIC                400
MEM_TOTAL                 4000
$end
--------------------------------------------------------------
 Adding empirical dispersion correction 
 ----------------------------------------------------------------
 Doing -D3(op) with
 s6 =   1.00000
 s8 =   0.78311
 a1 =   0.30000
 a2 =   4.25000
 n  =  10.00000
 -D3 energy without 3body term =     -0.0569959916 hartrees
 ----------------------------------------------------------------
             Standard Nuclear Orientation (Angstroms)
    I     Atom           X                Y                Z
 ----------------------------------------------------------------
    1      C       1.5101314911    -0.7769672606     1.2591275719
    2      C       1.5118368931     0.7764994338     1.2614939341
    3      C       2.3590903026    -1.0919473097    -0.0000866529
    4      C       1.5120983359    -0.7768784608    -1.2598346906
    5      C       1.5101576987     0.7764510709    -1.2586676968
    6      C       2.3573174975     1.0927211152     0.0006826869
    7      O       3.3059243386     0.0009110315     0.0008242782
    8      H       2.0042669011    -1.1719640041    -2.1512782471
    9      H       0.5132450397    -1.2157524998    -1.2058329291
   10      H       2.0021988557     1.1740417639    -2.1486947847
   11      H       0.5097197669     1.2118026447    -1.2033853879
   12      C       3.0761791168    -2.4223627951    -0.0001048532
   13      C       3.0743410705     2.4232276928    -0.0014299747
   14      H       3.7043954940     2.5194629835    -0.8891460771
   15      H       2.3505174461     3.2432133513    -0.0023667054
   16      H       3.7060725032     2.5220811534     0.8846738682
   17      H       3.7085681746    -2.5177012717    -0.8860198443
   18      H       2.3529200214    -3.2429553753    -0.0031382272
   19      H       3.7043977157    -2.5206491360     0.8884289736
   20      H       0.5120417661     1.2134959234     1.2090090088
   21      H       2.0057987548     1.1727502432     2.1515514004
   22      H       2.0013685272    -1.1752842568     2.1495846996
   23      H       0.5102899602    -1.2125221326     1.2016977449
   24      C      -2.9898716538    -0.7773035051     1.2588772958
   25      C      -2.9881662518     0.7761631893     1.2612436579
   26      C      -2.1409128423    -1.0922835542    -0.0003369291
   27      C      -2.9879048091    -0.7772147053    -1.2600849668
   28      C      -2.9898454463     0.7761148264    -1.2589179730
   29      C      -2.1426856474     1.0923848707     0.0004324107
   30      O      -1.1940788063     0.0005747870     0.0005740020
   31      H      -2.4957362438    -1.1723002486    -2.1515285232
   32      H      -3.9867581053    -1.2160887443    -1.2060832052
   33      H      -2.4978042892     1.1737055194    -2.1489450609
   34      H      -3.9902833781     1.2114664002    -1.2036356641
   35      C      -1.4238240281    -2.4226990396    -0.0003551294
   36      C      -1.4256620744     2.4228914482    -0.0016802508
   37      H      -0.7956076510     2.5191267390    -0.8893963532
   38      H      -2.1494856988     3.2428771068    -0.0026169815
   39      H      -0.7939306418     2.5217449089     0.8844235920
   40      H      -0.7914349703    -2.5180375163    -0.8862701204
   41      H      -2.1470831235    -3.2432916198    -0.0033885034
   42      H      -0.7956054293    -2.5209853806     0.8881786974
   43      H      -3.9879613789     1.2131596789     1.2087587327
   44      H      -2.4942043901     1.1724139987     2.1513011243
   45      H      -2.4986346178    -1.1756205013     2.1493344235
   46      H      -3.9897131848    -1.2128583771     1.2014474688
 ----------------------------------------------------------------
 Molecular Point Group                 C1    NOp =  1
 Largest Abelian Subgroup              C1    NOp =  1
 Nuclear Repulsion Energy =  1543.8863517083 hartrees
 There are       70 alpha and       70 beta electrons
 Requested basis set is 6-311++G(d,p)
 There are 248 shells and 592 basis functions

 Total QAlloc Memory Limit   4000 MB
 Mega-Array Size       392 MB
 MEM_STATIC part       400 MB
 A cutoff of  1.0D-12 yielded  25824 shell pairs
 There are    146540 function pairs (    155096 Cartesian)
 
 -------------------------------------------------------
 OpenMP Integral Computing Module                       
 Release: version 1.0, May 2013, Q-Chem Inc. Pittsburgh 
 -------------------------------------------------------
 Integral Job Info:
 Integral job number is                      11
 Integral operator is                         1
 short-range coefficients                     0
 long-range coefficients              100000000
 Omega coefficients                           0
 if combine SR and LR in K                    0
 Integral screening is                        0
 Integral computing path is                   2
 max size of driver memory is            800000
 size of driver memory is                593474
 size of scratch memory is              2361544
 max col of scratch BK array               1296
 max len of scratch array in speh3          155
 max len of scratch index in speh4           18
 max int batch size is                      520
 min int batch size is                       52
 fixed nKL is                                52
 max L of basis functions is                  2
 order of int derivative is                   0
 number of shells is                        248
 number of basis is                         610
 number of cartesian basis is               610
 number of contracted shell pairs         25824
 number of primitive shell pairs          53524
 maxK2 (contraction) of shell pair           36
 max number of K2 of shell pair               1
 max number of CS2 of shell pair           4682
 max number of PS2 of shell pair           8028
 mem total for path MDJ                  199122
 -------------------------------------------------------
 Smallest overlap matrix eigenvalue = 4.40E-07
 Linear dependence detected in AO basis
 Number of orthogonalized atomic orbitals = 590
 Maximum deviation from orthogonality = 1.923E-10

 Scale SEOQF with 1.000000e-01/1.000000e-01/1.000000e-01

 Standard Electronic Orientation quadrupole field applied
 Nucleus-field energy     =     0.0000000374 hartrees
 Guess from superposition of atomic densities
 Warning:  Energy on first SCF cycle will be non-variational
 A restricted hybrid HF-DFT SCF calculation will be
 performed using Pulay DIIS extrapolation
 Exchange:     0.2000 Hartree-Fock + 0.0800 Slater + 0.7200 B88
 Correlation:  0.1900 VWN1RPA + 0.8100 LYP
 Using SG-1 standard quadrature grid
 Dispersion:   Grimme D3
 SCF converges when DIIS error is below 1.0E-08
 using 4 threads for integral computing
 -------------------------------------------------------
 OpenMP Integral computing Module                
 Release: version 1.0, May 2013, Q-Chem Inc. Pittsburgh 
 -------------------------------------------------------
 -------------------------------------------------------
 OpenMP BLAS3 based DFT computing Module                
 Release: version 1.0, May 2013, Q-Chem Inc. Pittsburgh 
 -------------------------------------------------------
 ---------------------------------------
  Cycle       Energy         DIIS Error
 ---------------------------------------
    1    -780.9634764824      2.51E-02
    2    -776.8439415416      3.12E-03
    3    -776.6673460438      3.73E-03
    4    -777.2600120679      5.98E-04
    5    -777.2712595250      2.05E-04
    6    -777.2725229872      5.95E-05
    7    -777.2726221425      2.11E-05
    8    -777.2726380804      2.67E-06
    9    -777.2726382989      1.45E-06
   10    -777.2726383654      4.17E-07
   11    -777.2726383706      9.42E-08
   12    -777.2726383708      2.27E-08
   13    -777.2726383711      6.13E-09 Convergence criterion met
 ---------------------------------------
 SCF time:  CPU 1579.70 s  wall 400.05 s
 SCF   energy in the final basis set = -777.27263837
 Total energy in the final basis set = -777.27263837
 
 --------------------------------------------------------------
 
                    Orbital Energies (a.u.)
 --------------------------------------------------------------
 
 Alpha MOs
 -- Occupied --
-19.122 -19.100 -10.232 -10.232 -10.209 -10.209 -10.174 -10.174
-10.174 -10.174 -10.168 -10.168 -10.151 -10.151 -10.149 -10.149
-10.148 -10.148  -1.054  -1.030  -0.808  -0.799  -0.784  -0.776
 -0.757  -0.733  -0.726  -0.705  -0.660  -0.638  -0.621  -0.599
 -0.567  -0.565  -0.545  -0.538  -0.496  -0.485  -0.476  -0.468
 -0.462  -0.455  -0.451  -0.432  -0.428  -0.419  -0.411  -0.410
 -0.404  -0.395  -0.395  -0.393  -0.387  -0.370  -0.367  -0.354
 -0.352  -0.351  -0.348  -0.344  -0.333  -0.327  -0.326  -0.320
 -0.316  -0.305  -0.301  -0.284  -0.271  -0.245
 -- Virtual --
 -0.014  -0.004   0.001   0.006   0.013   0.014   0.019   0.022
  0.026   0.034   0.037   0.039   0.044   0.045   0.046   0.050
  0.059   0.063   0.064   0.068   0.070   0.072   0.081   0.084
  0.086   0.090   0.092   0.093   0.094   0.097   0.101   0.105
  0.111   0.111   0.114   0.120   0.121   0.123   0.123   0.126
  0.127   0.129   0.136   0.136   0.139   0.139   0.140   0.143
  0.144   0.145   0.148   0.155   0.157   0.158   0.160   0.161
  0.162   0.164   0.165   0.166   0.167   0.167   0.170   0.172
  0.175   0.176   0.177   0.190   0.190   0.194   0.194   0.195
  0.195   0.201   0.202   0.209   0.210   0.211   0.212   0.215
  0.218   0.221   0.223   0.226   0.228   0.232   0.234   0.236
  0.239   0.245   0.249   0.249   0.259   0.260   0.261   0.264
  0.269   0.270   0.275   0.276   0.280   0.283   0.283   0.293
  0.293   0.298   0.300   0.303   0.304   0.312   0.319   0.325
  0.331   0.333   0.334   0.339   0.340   0.343   0.353   0.355
  0.355   0.358   0.363   0.365   0.366   0.374   0.375   0.384
  0.387   0.389   0.390   0.392   0.395   0.396   0.400   0.406
  0.418   0.423   0.435   0.436   0.441   0.446   0.464   0.469
  0.478   0.483   0.486   0.510   0.512   0.531   0.534   0.534
  0.539   0.546   0.562   0.566   0.567   0.581   0.583   0.592
  0.595   0.599   0.606   0.615   0.616   0.627   0.630   0.631
  0.644   0.645   0.648   0.655   0.659   0.663   0.665   0.672
  0.675   0.676   0.680   0.682   0.684   0.688   0.703   0.706
  0.713   0.713   0.717   0.721   0.721   0.731   0.732   0.734
  0.745   0.753   0.761   0.770   0.771   0.783   0.786   0.790
  0.793   0.800   0.802   0.807   0.808   0.812   0.819   0.820
  0.829   0.829   0.847   0.852   0.854   0.883   0.889   0.893
  0.895   0.899   0.928   0.946   0.947   0.963   0.965   0.971
  0.992   1.003   1.018   1.022   1.025   1.046   1.094   1.109
  1.111   1.132   1.164   1.167   1.171   1.174   1.199   1.212
  1.218   1.225   1.228   1.229   1.268   1.274   1.282   1.300
  1.315   1.316   1.318   1.321   1.324   1.374   1.376   1.429
  1.444   1.455   1.456   1.460   1.469   1.472   1.478   1.503
  1.507   1.508   1.519   1.523   1.529   1.535   1.539   1.546
  1.550   1.562   1.565   1.576   1.584   1.591   1.592   1.601
  1.605   1.609   1.614   1.619   1.625   1.628   1.637   1.651
  1.661   1.665   1.666   1.674   1.684   1.689   1.693   1.703
  1.710   1.714   1.718   1.722   1.730   1.731   1.739   1.742
  1.746   1.749   1.752   1.758   1.765   1.776   1.777   1.787
  1.789   1.816   1.827   1.838   1.849   1.854   1.854   1.873
  1.880   1.892   1.893   1.893   1.894   1.905   1.915   1.924
  1.934   1.941   1.957   1.978   1.993   1.997   2.008   2.010
  2.016   2.027   2.029   2.029   2.053   2.055   2.067   2.083
  2.100   2.104   2.107   2.116   2.134   2.150   2.172   2.177
  2.177   2.184   2.198   2.212   2.220   2.223   2.227   2.234
  2.255   2.274   2.280   2.290   2.299   2.307   2.308   2.355
  2.390   2.401   2.416   2.437   2.442   2.451   2.455   2.472
  2.485   2.493   2.495   2.499   2.516   2.518   2.524   2.531
  2.533   2.537   2.539   2.542   2.553   2.569   2.570   2.586
  2.591   2.596   2.629   2.632   2.636   2.637   2.644   2.651
  2.657   2.658   2.671   2.677   2.687   2.708   2.710   2.718
  2.724   2.725   2.732   2.756   2.776   2.794   2.801   2.819
  2.819   2.842   2.853   2.866   2.872   2.895   2.896   2.897
  2.899   2.932   2.942   2.961   2.963   2.981   2.985   2.988
  3.021   3.024   3.027   3.055   3.056   3.060   3.073   3.082
  3.109   3.142   3.144   3.147   3.150   3.155   3.158   3.177
  3.199   3.233   3.256   3.278   3.292   3.303   3.323   3.337
  3.345   3.349   3.368   3.399   3.530   3.571   3.603   3.658
  3.695   3.698   3.727   3.762   3.831   3.833   3.840   3.841
  3.843   3.844   3.859   3.869   3.968   3.975   4.005   4.009
  4.121   4.122   4.138   4.155   4.185   4.189   4.203   4.210
  4.289   4.308   4.312   4.334   4.442   4.472   4.474   4.496
  5.220   5.250   5.532   5.648   5.688   5.706  23.787  23.798
 23.850  23.873  23.941  23.953  23.956  23.976  23.988  23.989
 23.992  23.995  24.016  24.049  24.091  24.098  49.998  50.007
 --------------------------------------------------------------
 
          Ground-State Mulliken Net Atomic Charges

     Atom                 Charge (a.u.)
  ----------------------------------------
      1 C                    -0.091176
      2 C                    -0.094508
      3 C                    -0.631861
      4 C                    -0.094433
      5 C                    -0.091156
      6 C                    -0.630733
      7 O                     0.035011
      8 H                     0.197482
      9 H                     0.048433
     10 H                     0.197710
     11 H                     0.047541
     12 C                    -0.183941
     13 C                    -0.182327
     14 H                     0.145853
     15 H                     0.144825
     16 H                     0.145682
     17 H                     0.145947
     18 H                     0.144820
     19 H                     0.145636
     20 H                     0.048822
     21 H                     0.197511
     22 H                     0.197527
     23 H                     0.047368
     24 C                    -0.448712
     25 C                    -0.453469
     26 C                    -0.003069
     27 C                    -0.451476
     28 C                    -0.450690
     29 C                     0.000712
     30 O                     0.224376
     31 H                     0.158239
     32 H                     0.153175
     33 H                     0.158023
     34 H                     0.153269
     35 C                    -0.305036
     36 C                    -0.305315
     37 H                     0.178550
     38 H                     0.171749
     39 H                     0.178136
     40 H                     0.178363
     41 H                     0.171917
     42 H                     0.178705
     43 H                     0.153101
     44 H                     0.158266
     45 H                     0.157933
     46 H                     0.153218
  ----------------------------------------
  Sum of atomic charges =     0.000000

 -----------------------------------------------------------------
                    Cartesian Multipole Moments
 -----------------------------------------------------------------
    Charge (ESU x 10^10)
                 0.0000
    Dipole Moment (Debye)
         X      -4.1131      Y      -0.0019      Z      -0.0053
       Tot       4.1131
    Quadrupole Moments (Debye-Ang)
        XX    -120.2652     XY       0.0041     YY    -109.9674
        XZ      -0.0001     YZ       0.0023     ZZ    -114.3650
    Octopole Moments (Debye-Ang^2)
       XXX     -64.1418    XXY       0.0006    XYY      -0.4964
       YYY      -0.0201    XXZ      -0.0391    XYZ      -0.0159
       YYZ      -0.0084    XZZ       5.7534    YZZ       0.0052
       ZZZ      -0.0198
    Hexadecapole Moments (Debye-Ang^3)
      XXXX   -4245.3366   XXXY       0.1138   XXYY    -938.2673
      XYYY       0.1040   YYYY   -1709.8891   XXXZ      -0.0277
      XXYZ       0.0819   XYYZ       0.0689   YYYZ       0.0050
      XXZZ    -816.2775   XYZZ      -0.0008   YYZZ    -415.5511
      XZZZ       0.0419   YZZZ      -0.0136   ZZZZ    -778.2416
 -----------------------------------------------------------------
Archival summary:
1\1\vega02.cac.cornell.edu\SP\ProcedureUnspecified\BasisUnspecified\21628\jj585\TueApr1723:41:412018TueApr1723:41:412018\0\\#,ProcedureUnspecified,BasisUnspecified,\\0,1\O\C,1,1.44597\C,1,1.44634,2,98.1095\C,2,1.51136,1,110.77,3,-179.998,0\H,4,1.09262,2,110.608,1,60.2832,0\H,4,1.09263,2,110.575,1,-60.0402,0\H,4,1.09384,2,110.283,1,-179.869,0\C,3,1.51141,1,110.694,2,-179.879,0\H,8,1.09272,3,110.657,1,-60.1545,0\H,8,1.09283,3,110.62,1,60.1323,0\H,8,1.09375,3,110.244,1,179.953,0\C,2,1.55036,1,101.809,3,56.0867,0\H,12,1.09224,2,110.089,1,84.2905,0\H,12,1.09235,2,112.194,1,-155.556,0\C,3,1.55038,1,101.798,2,-56.0407,0\H,15,1.09194,3,109.973,1,-84.3583,0\H,15,1.09246,3,112.21,1,155.424,0\C,3,1.55064,1,101.747,2,56.1879,0\H,18,1.09234,3,109.998,1,84.2326,0\H,18,1.09239,3,112.234,1,-155.586,0\C,2,1.55099,1,101.795,3,-56.0607,0\H,21,1.0921,2,112.175,1,155.338,0\H,21,1.09219,2,109.978,1,-84.4337,0\H,6,1.8709,4,118.775,2,56.6586,0\C,24,1.09235,6,157.785,4,105.511,0\H,25,1.09224,24,107.882,6,76.76,0\C,25,1.55036,24,112.194,6,-44.668,0\O,27,1.44597,25,101.809,24,-155.556,0\C,28,1.44634,27,98.1095,25,56.0867,0\C,27,1.51136,25,115.982,24,84.118,0\H,30,1.09262,27,110.608,25,175.644,0\H,30,1.09263,27,110.575,25,55.3209,0\H,30,1.09384,27,110.283,25,-64.5081,0\C,29,1.51141,28,110.694,27,-179.879,0\H,34,1.09272,29,110.657,28,-60.1545,0\H,34,1.09283,29,110.62,28,60.1323,0\H,34,1.09375,29,110.244,28,179.953,0\C,29,1.55038,28,101.798,27,-56.0407,0\H,38,1.09194,29,109.973,28,-84.3583,0\H,38,1.09246,29,112.21,28,155.424,0\C,29,1.55064,28,101.747,27,56.1879,0\H,41,1.09234,29,109.998,28,84.2326,0\H,41,1.09239,29,112.234,28,-155.586,0\C,27,1.55099,25,108.626,24,-48.6474,0\H,44,1.0921,27,112.175,25,48.4198,0\H,44,1.09219,27,109.978,25,168.648,0\\\@

 Total job time:  401.30s(wall), 1582.68s(cpu) 
 Tue Apr 17 23:41:41 2018

        *************************************************************
        *                                                           *
        *  Thank you very much for using Q-Chem.  Have a nice day.  *
        *                                                           *
        *************************************************************


0 sent ACK to 0 
now end server 0 ... 
