mFile = /opt/software/qchem/qchem-5.0.1//bin/mpi/machines
Process 0 of 1 is on vega03.cac.cornell.edu - thread support 0
initial socket setup ...start
initial socket setup ...done 
now start server 0 ... 
vega03 10.84.3
Q-Chem Developer Version! Running on 10.84.3.*
                  Welcome to Q-Chem
     A Quantum Leap Into The Future Of Chemistry


 Q-Chem 5.0, Q-Chem, Inc., Pleasanton, CA (2017)

 Yihan Shao,  Zhengting Gan,  E. Epifanovsky,  A. T. B. Gilbert,  M. Wormit,  
 J. Kussmann,  A. W. Lange,  A. Behn,  Jia Deng,  Xintian Feng,  D. Ghosh,  
 M. Goldey,  P. R. Horn,  L. D. Jacobson,  I. Kaliman,  T. Kus,  A. Landau,  
 Jie Liu,  E. I. Proynov,  R. M. Richard,  R. P. Steele,  E. J. Sundstrom,  
 H. L. Woodcock III,  P. M. Zimmerman,  D. Zuev,  B. Albrecht,  E. Alguire,  
 S. A. Baeppler,  Z. Benda,  Y. A. Bernard,  E. J. Berquist,  K. B. Bravaya,  
 D. Casanova,  Chun-Min Chang,  Yunqing Chen,  A. Chien,  K. D. Closser,  
 M. P. Coons,  S. Dasgupta,  M. Diedenhofen,  Hainam Do,  R. G. Edgar,  
 Po-Tung Fang,  S. Fatehi,  Qingguo Feng,  Qinghui Ge,  A. Ghysels,  
 J. Gomes,  J. Gonthier,  A. Gunina,  M. W. D. Hanson-Heine,  
 P. H. P. Harbach,  A. W. Hauser,  J. E. Herr,  E. G. Hohenstein,  
 Z. C. Holden,  Kerwin Hui,  T.-C. Jagau,  Hyunjun Ji,  B. Kaduk,  
 K. Khistyaev,  Jaehoon Kim,  P. Klunzinger,  K. Koh,  D. Kosenkov,  
 T. Kowalczyk,  C. M. Krauter,  A. Kunitsa,  Ka Un Lao,  A. Laurent,  
 K. V. Lawler,  Joonho Lee,  D. Lefrancois,  S. Lehtola,  D. S. Levine,  
 Yi-Pei Li,  You-Sheng Lin,  Fenglai Liu,  E. Livshits,  A. Luenser,  
 P. Manohar,  E. Mansoor,  S. F. Manzer,  Shan-Ping Mao,  Yuezhi Mao,  
 N. Mardirossian,  A. V. Marenich,  L. A. Martinez-Martinez,  S. A. Maurer,  
 N. J. Mayhall,  S. C. McKenzie,  J.-M. Mewes,  A. F. Morrison,  K. Nanda,  
 T. S. Nguyen-Beck,  R. Olivares-Amaya,  J. A. Parkhill,  T. M. Perrine,  
 F. Plasser,  S. Prager,  A. Prociuk,  D. R. Rehn,  F. Rob,  M. Schneider,  
 N. Sergueev,  S. M. Sharada,  S. Sharma,  D. W. Small,  T. Stauch,  
 T. Stein,  Yu-Chuan Su,  A. J. W. Thom,  T. Tsuchimochi,  L. Vogt,  
 O. Vydrov,  M. A. Watson,  J. Wenzel,  M. de Wergifosse,  T. A. Wesolowski,  
 A. White,  J. Witte,  A. Yamada,  Jun Yang,  K. Yao,  S. Yeganeh,  
 S. R. Yost,  Zhi-Qiang You,  A. Zech,  Igor Ying Zhang,  Xing Zhang,  
 Yan Zhao,  Ying Zhu,  B. R. Brooks,  G. K. L. Chan,  C. J. Cramer,  
 M. S. Gordon,  W. J. Hehre,  A. Klamt,  M. W. Schmidt,  C. D. Sherrill,  
 D. G. Truhlar,  A. Aspuru-Guzik,  R. Baer,  A. T. Bell,  N. A. Besley,  
 Jeng-Da Chai,  A. Dreuw,  B. D. Dunietz,  T. R. Furlani,  Chao-Ping Hsu,  
 Yousung Jung,  Jing Kong,  D. S. Lambrecht,  WanZhen Liang,  C. Ochsenfeld,  
 V. A. Rassolov,  L. V. Slipchenko,  J. E. Subotnik,  T. Van Voorhis,  
 J. M. Herbert,  A. I. Krylov,  P. M. W. Gill,  M. Head-Gordon

 Contributors to earlier versions of Q-Chem not listed above: 
 R. D. Adamson,  B. Austin,  J. Baker,  G. J. O. Beran,  K. Brandhorst,  
 S. T. Brown,  E. F. C. Byrd,  A. K. Chakraborty,  C.-L. Cheng,  
 Siu Hung Chien,  D. M. Chipman,  D. L. Crittenden,  H. Dachsel,  
 R. A. DiStasio Jr.,  R. J. Doerksen,  A. D. Dutoi,  L. Fusti-Molnar,  
 W. A. Goddard III,  A. Golubeva-Zadorozhnaya,  S. R. Gwaltney,  G. Hawkins,  
 A. Heyden,  S. Hirata,  G. Kedziora,  F. J. Keil,  C. Kelley,  Jihan Kim,  
 R. A. King,  R. Z. Khaliullin,  P. P. Korambath,  W. Kurlancheek,  
 A. M. Lee,  M. S. Lee,  S. V. Levchenko,  Ching Yeh Lin,  D. Liotard,  
 R. C. Lochan,  I. Lotan,  P. E. Maslen,  N. Nair,  D. P. O'Neill,  
 D. Neuhauser,  E. Neuscamman,  C. M. Oana,  R. Olson,  B. Peters,  
 R. Peverati,  P. A. Pieniazek,  Y. M. Rhee,  J. Ritchie,  M. A. Rohrdanz,  
 E. Rosta,  N. J. Russ,  H. F. Schaefer III,  N. E. Schultz,  N. Shenvi,  
 A. C. Simmonett,  A. Sodt,  D. Stuck,  K. S. Thanthiriwatte,  V. Vanovschi,  
 Tao Wang,  A. Warshel,  C. F. Williams,  Q. Wu,  X. Xu,  W. Zhang

 Please cite Q-Chem as follows:
 Y. Shao et al., Mol. Phys. 113, 184-215 (2015)
 DOI: 10.1080/00268976.2014.952696

 Q-Chem 5.0.1 for Intel X86 EM64T Linux

 Parts of Q-Chem use Armadillo 5.200.1 (Boston Tea Smuggler).
 http://arma.sourceforge.net/

 Q-Chem begins on Tue Apr 17 00:24:38 2018  

Host: vega03.cac.cornell.edu
0

     Scratch files written to /scratch/jj585/vdw/0110_distance_5.800_11.save//
 Parallel job on  1  processors

Checking the input file for inconsistencies... 	...done.

--------------------------------------------------------------
User input:
--------------------------------------------------------------
$molecule
0  1
--
0  1
C        +0.22270000        +1.04488000        +0.58595000
C        +0.62626000        -0.41353000        +0.99871000
C        +1.33008000        +1.39974000        -0.43491000
C        +2.63070000        +1.71700000        +0.32855000
C        +3.04336000        +0.29351000        +0.80300000
C        +1.94423000        -0.59299000        +0.15262000
O        +1.62840000        +0.13663000        -1.04376000
H        +3.37234000        +2.13782000        -0.35195000
H        +2.48236000        +2.42488000        +1.14651000
H        +4.02182000        +0.00994000        +0.41161000
H        +3.07359000        +0.18738000        +1.88928000
C        +0.90028000        +2.39077000        -1.49430000
C        +2.35450000        -2.01267000        -0.16812000
H        +3.26311000        -2.00678000        -0.77366000
H        +2.54990000        -2.57059000        +0.75079000
H        +1.57335000        -2.52896000        -0.72872000
H        +1.71845000        +2.58186000        -2.15686000
H        +0.59919000        +3.30478000        -1.02650000
H        +0.07925000        +1.98653000        -2.04874000
H        +0.81693000        -0.48905000        +2.04887000
H        -0.12524000        -1.15356000        +0.81843000
H        -0.74673000        +1.06811000        +0.13365000
H        +0.15552000        +1.72617000        +1.40828000
--
0  1
C        +4.57602000        +3.37171000        +3.63135000
C        +4.97958000        +1.91330000        +4.04411000
C        +5.68340000        +3.72657000        +2.61049000
C        +6.98402000        +4.04383000        +3.37395000
C        +7.39668000        +2.62034000        +3.84840000
C        +6.29755000        +1.73384000        +3.19802000
O        +5.98172000        +2.46346000        +2.00164000
H        +7.72566000        +4.46465000        +2.69345000
H        +6.83568000        +4.75171000        +4.19191000
H        +8.37514000        +2.33677000        +3.45701000
H        +7.42691000        +2.51421000        +4.93468000
C        +5.25360000        +4.71760000        +1.55110000
C        +6.70782000        +0.31416000        +2.87728000
H        +7.61643000        +0.32005000        +2.27174000
H        +6.90322000        -0.24376000        +3.79619000
H        +5.92667000        -0.20213000        +2.31668000
H        +6.07177000        +4.90869000        +0.88854000
H        +4.95251000        +5.63161000        +2.01890000
H        +4.43257000        +4.31336000        +0.99666000
H        +5.17025000        +1.83778000        +5.09427000
H        +4.22808000        +1.17327000        +3.86383000
H        +3.60659000        +3.39494000        +3.17905000
H        +4.50884000        +4.05300000        +4.45368000
$end

$rem
JOBTYPE                   SP
METHOD                    B3LYP
DFT_D                     d3_op
BASIS                     6-311++G(d,p)
SYMMETRY                  False
THRESH                    12
SCF_CONVERGENCE           8
MAX_SUB_FILE_NUM          128
MEM_STATIC                400
MEM_TOTAL                 4000
$end
--------------------------------------------------------------
 Adding empirical dispersion correction 
 ----------------------------------------------------------------
 Doing -D3(op) with
 s6 =   1.00000
 s8 =   0.78311
 a1 =   0.30000
 a2 =   4.25000
 n  =  10.00000
 -D3 energy without 3body term =     -0.0486869815 hartrees
 ----------------------------------------------------------------
             Standard Nuclear Orientation (Angstroms)
    I     Atom           X                Y                Z
 ----------------------------------------------------------------
    1      C       3.4052388789    -0.8062221255     1.3180099532
    2      C       3.4709165981     0.7607096391     1.3425558609
    3      C       2.9510155723    -1.0784014301    -0.1359401276
    4      C       1.4451838841    -0.7726291704    -0.2547328690
    5      C       1.4581634477     0.7818731408    -0.1835362850
    6      C       2.9810997281     1.0877417791    -0.1197192548
    7      O       3.5450938611     0.0002740685    -0.8698816597
    8      H       1.0659625712    -1.1215952800    -1.2163010997
    9      H       0.8520760091    -1.2416994974     0.5328923519
   10      H       1.0326339475     1.2266569594    -1.0846877971
   11      H       0.9174937715     1.1837874574     0.6757208660
   12      C       3.4259497645    -2.4017030145    -0.6949446919
   13      C       3.4045113727     2.4215043283    -0.6928570782
   14      H       3.0263870236     2.5223395607    -1.7122391206
   15      H       3.0060572717     3.2404115550    -0.0891379731
   16      H       4.4920386095     2.5080455229    -0.7214608796
   17      H       3.0715410883    -2.5127973643    -1.6984165780
   18      H       3.0465589866    -3.2002679064    -0.0922316099
   19      H       4.4956174769    -2.4278844057    -0.6895158831
   20      H       2.8151138394     1.1726605018     2.0808739315
   21      H       4.4294487840     1.1643357072     1.5939511174
   22      H       4.3633775756    -1.2399081999     1.5149771452
   23      H       2.7590652772    -1.2255613031     2.0606472644
   24      C      -2.3943782239    -0.8064494037     1.3846090531
   25      C      -2.3287005048     0.7604823609     1.4091549608
   26      C      -2.8486015305    -1.0786287083    -0.0693410277
   27      C      -4.3544332188    -0.7728564486    -0.1881337691
   28      C      -4.3414536551     0.7816458626    -0.1169371851
   29      C      -2.8185173748     1.0875145010    -0.0531201548
   30      O      -2.2545232417     0.0000467903    -0.8032825598
   31      H      -4.7336545316    -1.1218225581    -1.1497019998
   32      H      -4.9475410937    -1.2419267756     0.5994914518
   33      H      -4.7669831553     1.2264296813    -1.0180886971
   34      H      -4.8821233313     1.1835601792     0.7423199659
   35      C      -2.3736673383    -2.4019302927    -0.6283455920
   36      C      -2.3951057301     2.4212770501    -0.6262579783
   37      H      -2.7732300792     2.5221122825    -1.6456400207
   38      H      -2.7935598312     3.2401842769    -0.0225388732
   39      H      -1.3075784933     2.5078182447    -0.6548617797
   40      H      -2.7280760146    -2.5130246424    -1.6318174781
   41      H      -2.7530581163    -3.2004951846    -0.0256325100
   42      H      -1.3039996259    -2.4281116838    -0.6229167832
   43      H      -2.9845032634     1.1724332236     2.1474730314
   44      H      -1.3701683188     1.1641084290     1.6605502173
   45      H      -1.4362395273    -1.2401354781     1.5815762451
   46      H      -3.0405518256    -1.2257885813     2.1272463643
 ----------------------------------------------------------------
 Molecular Point Group                 C1    NOp =  1
 Largest Abelian Subgroup              C1    NOp =  1
 Nuclear Repulsion Energy =  1443.9487257552 hartrees
 There are       70 alpha and       70 beta electrons
 Requested basis set is 6-311++G(d,p)
 There are 248 shells and 592 basis functions

 Total QAlloc Memory Limit   4000 MB
 Mega-Array Size       392 MB
 MEM_STATIC part       400 MB
 A cutoff of  1.0D-12 yielded  24306 shell pairs
 There are    136033 function pairs (    143641 Cartesian)
 
 -------------------------------------------------------
 OpenMP Integral Computing Module                       
 Release: version 1.0, May 2013, Q-Chem Inc. Pittsburgh 
 -------------------------------------------------------
 Integral Job Info:
 Integral job number is                      11
 Integral operator is                         1
 short-range coefficients                     0
 long-range coefficients              100000000
 Omega coefficients                           0
 if combine SR and LR in K                    0
 Integral screening is                        0
 Integral computing path is                   2
 max size of driver memory is            800000
 size of driver memory is                593474
 size of scratch memory is              2361544
 max col of scratch BK array               1296
 max len of scratch array in speh3          155
 max len of scratch index in speh4           18
 max int batch size is                      520
 min int batch size is                       52
 fixed nKL is                                52
 max L of basis functions is                  2
 order of int derivative is                   0
 number of shells is                        248
 number of basis is                         610
 number of cartesian basis is               610
 number of contracted shell pairs         24306
 number of primitive shell pairs          50325
 maxK2 (contraction) of shell pair           36
 max number of K2 of shell pair               1
 max number of CS2 of shell pair           4542
 max number of PS2 of shell pair           7548
 mem total for path MDJ                  184074
 -------------------------------------------------------
 Smallest overlap matrix eigenvalue = 4.64E-07
 Linear dependence detected in AO basis
 Number of orthogonalized atomic orbitals = 590
 Maximum deviation from orthogonality = 1.074E-10

 Scale SEOQF with 1.000000e-01/1.000000e-01/1.000000e-01

 Standard Electronic Orientation quadrupole field applied
 Nucleus-field energy     =     0.0000000562 hartrees
 Guess from superposition of atomic densities
 Warning:  Energy on first SCF cycle will be non-variational
 A restricted hybrid HF-DFT SCF calculation will be
 performed using Pulay DIIS extrapolation
 Exchange:     0.2000 Hartree-Fock + 0.0800 Slater + 0.7200 B88
 Correlation:  0.1900 VWN1RPA + 0.8100 LYP
 Using SG-1 standard quadrature grid
 Dispersion:   Grimme D3
 SCF converges when DIIS error is below 1.0E-08
 using 4 threads for integral computing
 -------------------------------------------------------
 OpenMP Integral computing Module                
 Release: version 1.0, May 2013, Q-Chem Inc. Pittsburgh 
 -------------------------------------------------------
 -------------------------------------------------------
 OpenMP BLAS3 based DFT computing Module                
 Release: version 1.0, May 2013, Q-Chem Inc. Pittsburgh 
 -------------------------------------------------------
 ---------------------------------------
  Cycle       Energy         DIIS Error
 ---------------------------------------
    1    -780.9693143257      2.53E-02
    2    -776.8261209412      3.17E-03
    3    -776.6729965578      3.71E-03
    4    -777.2586023646      5.71E-04
    5    -777.2683022234      2.07E-04
    6    -777.2696034455      5.54E-05
    7    -777.2696913910      2.04E-05
    8    -777.2697067903      1.89E-06
    9    -777.2697069267      7.56E-07
   10    -777.2697069485      2.15E-07
   11    -777.2697069505      3.19E-08
   12    -777.2697069505      1.91E-08
   13    -777.2697069506      4.39E-09 Convergence criterion met
 ---------------------------------------
 SCF time:  CPU 1202.63 s  wall 303.52 s
 SCF   energy in the final basis set = -777.26970695
 Total energy in the final basis set = -777.26970695
 
 --------------------------------------------------------------
 
                    Orbital Energies (a.u.)
 --------------------------------------------------------------
 
 Alpha MOs
 -- Occupied --
-19.117 -19.111 -10.227 -10.223 -10.220 -10.216 -10.168 -10.167
-10.165 -10.164 -10.162 -10.161 -10.160 -10.159 -10.158 -10.157
-10.153 -10.148  -1.051  -1.045  -0.802  -0.795  -0.791  -0.785
 -0.751  -0.744  -0.720  -0.714  -0.654  -0.649  -0.619  -0.612
 -0.565  -0.559  -0.558  -0.551  -0.489  -0.482  -0.476  -0.471
 -0.467  -0.460  -0.446  -0.440  -0.422  -0.416  -0.413  -0.409
 -0.406  -0.405  -0.403  -0.397  -0.386  -0.380  -0.362  -0.357
 -0.349  -0.346  -0.344  -0.342  -0.340  -0.336  -0.335  -0.329
 -0.318  -0.312  -0.302  -0.295  -0.264  -0.257
 -- Virtual --
 -0.014  -0.004  -0.003   0.007   0.010   0.014   0.016   0.026
  0.026   0.028   0.034   0.035   0.040   0.043   0.049   0.052
  0.054   0.055   0.060   0.061   0.066   0.069   0.071   0.075
  0.078   0.087   0.088   0.090   0.093   0.094   0.097   0.104
  0.107   0.109   0.110   0.114   0.116   0.121   0.122   0.123
  0.127   0.128   0.129   0.130   0.133   0.137   0.138   0.140
  0.141   0.146   0.149   0.149   0.153   0.154   0.157   0.158
  0.160   0.161   0.164   0.167   0.168   0.168   0.170   0.172
  0.175   0.177   0.178   0.179   0.182   0.185   0.187   0.189
  0.190   0.191   0.197   0.201   0.202   0.204   0.207   0.209
  0.212   0.213   0.216   0.219   0.223   0.224   0.228   0.230
  0.232   0.234   0.237   0.242   0.246   0.247   0.254   0.256
  0.259   0.262   0.266   0.269   0.270   0.274   0.279   0.281
  0.286   0.291   0.293   0.298   0.303   0.312   0.315   0.318
  0.320   0.325   0.328   0.330   0.334   0.339   0.340   0.346
  0.351   0.355   0.357   0.361   0.365   0.366   0.371   0.375
  0.378   0.381   0.386   0.388   0.393   0.396   0.398   0.409
  0.411   0.417   0.424   0.428   0.431   0.435   0.436   0.448
  0.469   0.474   0.480   0.485   0.504   0.505   0.510   0.533
  0.539   0.551   0.556   0.559   0.563   0.566   0.570   0.574
  0.579   0.582   0.585   0.591   0.599   0.602   0.618   0.621
  0.626   0.628   0.632   0.633   0.640   0.646   0.654   0.655
  0.662   0.668   0.671   0.671   0.674   0.679   0.686   0.694
  0.694   0.698   0.708   0.711   0.716   0.721   0.729   0.730
  0.736   0.743   0.744   0.748   0.755   0.764   0.766   0.772
  0.774   0.782   0.787   0.793   0.798   0.799   0.804   0.804
  0.817   0.819   0.823   0.829   0.833   0.835   0.842   0.854
  0.864   0.874   0.904   0.914   0.929   0.936   0.944   0.948
  0.960   0.968   0.981   0.987   0.992   1.019   1.042   1.067
  1.078   1.080   1.123   1.130   1.137   1.163   1.178   1.186
  1.195   1.202   1.205   1.218   1.240   1.245   1.249   1.255
  1.280   1.284   1.293   1.294   1.309   1.314   1.360   1.368
  1.428   1.443   1.454   1.455   1.460   1.461   1.466   1.470
  1.475   1.484   1.487   1.500   1.505   1.512   1.521   1.532
  1.535   1.541   1.549   1.556   1.560   1.570   1.586   1.590
  1.590   1.594   1.600   1.602   1.612   1.618   1.628   1.629
  1.632   1.635   1.648   1.653   1.667   1.672   1.687   1.693
  1.696   1.701   1.706   1.712   1.715   1.717   1.722   1.731
  1.735   1.738   1.742   1.744   1.759   1.761   1.763   1.775
  1.782   1.790   1.798   1.798   1.805   1.836   1.843   1.851
  1.863   1.865   1.868   1.871   1.883   1.884   1.899   1.902
  1.913   1.922   1.941   1.948   1.959   1.981   1.995   2.006
  2.014   2.018   2.025   2.028   2.034   2.034   2.049   2.059
  2.081   2.090   2.092   2.105   2.116   2.124   2.142   2.148
  2.178   2.187   2.195   2.203   2.212   2.218   2.223   2.234
  2.253   2.263   2.277   2.279   2.290   2.299   2.310   2.319
  2.377   2.386   2.410   2.414   2.428   2.448   2.465   2.470
  2.479   2.491   2.501   2.507   2.510   2.518   2.526   2.538
  2.540   2.550   2.554   2.560   2.564   2.568   2.573   2.581
  2.589   2.598   2.605   2.612   2.620   2.623   2.631   2.639
  2.645   2.652   2.653   2.658   2.669   2.674   2.685   2.698
  2.701   2.707   2.719   2.737   2.771   2.777   2.783   2.788
  2.801   2.804   2.824   2.842   2.855   2.865   2.870   2.878
  2.893   2.900   2.911   2.918   2.961   2.963   2.967   2.973
  2.981   2.982   2.996   3.001   3.018   3.026   3.028   3.034
  3.075   3.083   3.088   3.105   3.119   3.133   3.152   3.154
  3.155   3.185   3.246   3.256   3.258   3.265   3.307   3.310
  3.330   3.344   3.349   3.356   3.546   3.551   3.617   3.625
  3.693   3.693   3.700   3.703   3.826   3.830   3.832   3.835
  3.877   3.883   3.889   3.892   3.969   3.975   3.982   3.990
  4.100   4.107   4.142   4.151   4.181   4.192   4.199   4.204
  4.283   4.285   4.291   4.294   4.470   4.479   4.499   4.506
  5.227   5.245   5.523   5.542   5.689   5.696  23.767  23.777
 23.850  23.858  23.954  23.956  23.973  23.977  23.997  24.000
 24.011  24.019  24.024  24.032  24.057  24.068  49.985  49.992
 --------------------------------------------------------------
 
          Ground-State Mulliken Net Atomic Charges

     Atom                 Charge (a.u.)
  ----------------------------------------
      1 C                    -0.424280
      2 C                    -0.468830
      3 C                     0.016858
      4 C                    -0.289340
      5 C                    -0.236441
      6 C                     0.030757
      7 O                     0.028041
      8 H                     0.180796
      9 H                     0.029061
     10 H                     0.158816
     11 H                     0.037988
     12 C                    -0.316447
     13 C                    -0.327357
     14 H                     0.153981
     15 H                     0.148219
     16 H                     0.154060
     17 H                     0.143800
     18 H                     0.144843
     19 H                     0.152362
     20 H                     0.133979
     21 H                     0.173898
     22 H                     0.163045
     23 H                     0.143566
     24 C                    -0.292508
     25 C                    -0.340871
     26 C                     0.134163
     27 C                    -0.618126
     28 C                    -0.517868
     29 C                     0.129769
     30 O                     0.017691
     31 H                     0.156593
     32 H                     0.138541
     33 H                     0.159119
     34 H                     0.137904
     35 C                    -0.229512
     36 C                    -0.325832
     37 H                     0.156348
     38 H                     0.146634
     39 H                     0.154831
     40 H                     0.152201
     41 H                     0.143371
     42 H                     0.147990
     43 H                     0.156405
     44 H                     0.158242
     45 H                     0.130337
     46 H                     0.173201
  ----------------------------------------
  Sum of atomic charges =     0.000000

 -----------------------------------------------------------------
                    Cartesian Multipole Moments
 -----------------------------------------------------------------
    Charge (ESU x 10^10)
                 0.0000
    Dipole Moment (Debye)
         X      -2.0714      Y       0.0175      Z       2.3424
       Tot       3.1270
    Quadrupole Moments (Debye-Ang)
        XX    -115.9803     XY       0.2036     YY    -109.7038
        XZ       2.6286     YZ      -0.2226     ZZ    -116.2599
    Octopole Moments (Debye-Ang^2)
       XXX     -40.8395    XXY      -0.1697    XYY       2.1304
       YYY       0.3776    XXZ      23.0141    XYZ       0.2501
       YYZ      -2.2692    XZZ      -6.6610    YZZ      -0.3199
       ZZZ      -5.2966
    Hexadecapole Moments (Debye-Ang^3)
      XXXX   -6552.3782   XXXY       6.3695   XXYY   -1319.2641
      XYYY       1.2280   YYYY   -1692.9619   XXXZ      67.7355
      XXYZ      -2.2385   XYYZ      -4.9728   YYYZ      -1.2996
      XXZZ   -1208.8728   XYZZ       0.6375   YYZZ    -387.2376
      XZZZ      -0.0732   YZZZ       0.3898   ZZZZ    -689.6295
 -----------------------------------------------------------------
Archival summary:
1\1\vega03.cac.cornell.edu\SP\ProcedureUnspecified\BasisUnspecified\21628\jj585\TueApr1700:29:422018TueApr1700:29:422018\0\\#,ProcedureUnspecified,BasisUnspecified,\\0,1\O\C,1,1.43358\C,1,1.43646,2,98.0224\C,3,1.51218,1,111.091,2,-178.393,0\H,4,1.09134,3,111.033,1,-57.0184,0\H,4,1.09192,3,109.775,1,62.6469,0\H,4,1.09264,3,110.458,1,-177.522,0\C,2,1.513,1,109.807,3,-177.944,0\H,8,1.07,2,109.471,1,-64.7983,0\H,8,1.07,2,109.471,1,55.2018,0\H,8,1.07,2,109.471,1,175.202,0\C,2,1.54115,1,102.483,3,57.1986,0\H,12,1.09096,2,110.128,1,81.1589,0\H,12,1.09186,2,112.95,1,-157.962,0\C,2,1.54738,1,103.124,3,-55.9256,0\H,15,1.07,2,113.95,1,155.255,0\H,15,1.07,2,111.379,1,-86.5463,0\C,3,1.55466,1,102.371,2,-54.4128,0\H,18,1.09132,3,109.614,1,-87.4148,0\H,18,1.09187,3,112.355,1,152.676,0\C,15,1.5685,2,101.696,1,32.1918,0\H,21,1.07,15,111.7,2,120.458,0\H,21,1.07,15,114.71,2,-121.541,0\H,23,2.49072,21,137.128,15,64.488,0\C,24,1.09187,23,139.735,21,-2.28172,0\H,25,1.09132,24,107.862,23,64.7448,0\C,25,1.55466,24,112.355,23,-174.334,0\O,27,1.43646,25,102.371,24,152.676,0\C,28,1.43358,27,98.0224,25,-54.4128,0\C,27,1.51218,25,115.611,24,-86.4144,0\H,30,1.09134,27,111.033,25,-173.092,0\H,30,1.09192,27,109.775,25,-53.4265,0\H,30,1.09264,27,110.458,25,66.4047,0\C,29,1.513,28,109.807,27,-177.944,0\H,34,1.07,29,109.471,28,-64.7983,0\H,34,1.07,29,109.471,28,55.2018,0\H,34,1.07,29,109.471,28,175.202,0\C,29,1.54115,28,102.483,27,57.1986,0\H,38,1.09096,29,110.128,28,81.1589,0\H,38,1.09186,29,112.95,28,-157.962,0\C,29,1.54738,28,103.124,27,-55.9256,0\H,41,1.07,29,113.95,28,155.255,0\H,41,1.07,29,111.379,28,-86.5463,0\C,41,1.5685,29,101.696,28,32.1918,0\H,44,1.07,41,111.7,29,120.458,0\H,44,1.07,41,114.71,29,-121.541,0\\\@

 Total job time:  304.67s(wall), 1205.48s(cpu) 
 Tue Apr 17 00:29:42 2018

        *************************************************************
        *                                                           *
        *  Thank you very much for using Q-Chem.  Have a nice day.  *
        *                                                           *
        *************************************************************


0 sent ACK to 0 
now end server 0 ... 
