mFile = /opt/software/qchem/qchem-5.0.1//bin/mpi/machines
Process 0 of 1 is on vega02.cac.cornell.edu - thread support 0
initial socket setup ...start
initial socket setup ...done 
now start server 0 ... 
vega02.cac.cornell.edu 10.84.3
Q-Chem Developer Version! Running on 10.84.3.*
                  Welcome to Q-Chem
     A Quantum Leap Into The Future Of Chemistry


 Q-Chem 5.0, Q-Chem, Inc., Pleasanton, CA (2017)

 Yihan Shao,  Zhengting Gan,  E. Epifanovsky,  A. T. B. Gilbert,  M. Wormit,  
 J. Kussmann,  A. W. Lange,  A. Behn,  Jia Deng,  Xintian Feng,  D. Ghosh,  
 M. Goldey,  P. R. Horn,  L. D. Jacobson,  I. Kaliman,  T. Kus,  A. Landau,  
 Jie Liu,  E. I. Proynov,  R. M. Richard,  R. P. Steele,  E. J. Sundstrom,  
 H. L. Woodcock III,  P. M. Zimmerman,  D. Zuev,  B. Albrecht,  E. Alguire,  
 S. A. Baeppler,  Z. Benda,  Y. A. Bernard,  E. J. Berquist,  K. B. Bravaya,  
 D. Casanova,  Chun-Min Chang,  Yunqing Chen,  A. Chien,  K. D. Closser,  
 M. P. Coons,  S. Dasgupta,  M. Diedenhofen,  Hainam Do,  R. G. Edgar,  
 Po-Tung Fang,  S. Fatehi,  Qingguo Feng,  Qinghui Ge,  A. Ghysels,  
 J. Gomes,  J. Gonthier,  A. Gunina,  M. W. D. Hanson-Heine,  
 P. H. P. Harbach,  A. W. Hauser,  J. E. Herr,  E. G. Hohenstein,  
 Z. C. Holden,  Kerwin Hui,  T.-C. Jagau,  Hyunjun Ji,  B. Kaduk,  
 K. Khistyaev,  Jaehoon Kim,  P. Klunzinger,  K. Koh,  D. Kosenkov,  
 T. Kowalczyk,  C. M. Krauter,  A. Kunitsa,  Ka Un Lao,  A. Laurent,  
 K. V. Lawler,  Joonho Lee,  D. Lefrancois,  S. Lehtola,  D. S. Levine,  
 Yi-Pei Li,  You-Sheng Lin,  Fenglai Liu,  E. Livshits,  A. Luenser,  
 P. Manohar,  E. Mansoor,  S. F. Manzer,  Shan-Ping Mao,  Yuezhi Mao,  
 N. Mardirossian,  A. V. Marenich,  L. A. Martinez-Martinez,  S. A. Maurer,  
 N. J. Mayhall,  S. C. McKenzie,  J.-M. Mewes,  A. F. Morrison,  K. Nanda,  
 T. S. Nguyen-Beck,  R. Olivares-Amaya,  J. A. Parkhill,  T. M. Perrine,  
 F. Plasser,  S. Prager,  A. Prociuk,  D. R. Rehn,  F. Rob,  M. Schneider,  
 N. Sergueev,  S. M. Sharada,  S. Sharma,  D. W. Small,  T. Stauch,  
 T. Stein,  Yu-Chuan Su,  A. J. W. Thom,  T. Tsuchimochi,  L. Vogt,  
 O. Vydrov,  M. A. Watson,  J. Wenzel,  M. de Wergifosse,  T. A. Wesolowski,  
 A. White,  J. Witte,  A. Yamada,  Jun Yang,  K. Yao,  S. Yeganeh,  
 S. R. Yost,  Zhi-Qiang You,  A. Zech,  Igor Ying Zhang,  Xing Zhang,  
 Yan Zhao,  Ying Zhu,  B. R. Brooks,  G. K. L. Chan,  C. J. Cramer,  
 M. S. Gordon,  W. J. Hehre,  A. Klamt,  M. W. Schmidt,  C. D. Sherrill,  
 D. G. Truhlar,  A. Aspuru-Guzik,  R. Baer,  A. T. Bell,  N. A. Besley,  
 Jeng-Da Chai,  A. Dreuw,  B. D. Dunietz,  T. R. Furlani,  Chao-Ping Hsu,  
 Yousung Jung,  Jing Kong,  D. S. Lambrecht,  WanZhen Liang,  C. Ochsenfeld,  
 V. A. Rassolov,  L. V. Slipchenko,  J. E. Subotnik,  T. Van Voorhis,  
 J. M. Herbert,  A. I. Krylov,  P. M. W. Gill,  M. Head-Gordon

 Contributors to earlier versions of Q-Chem not listed above: 
 R. D. Adamson,  B. Austin,  J. Baker,  G. J. O. Beran,  K. Brandhorst,  
 S. T. Brown,  E. F. C. Byrd,  A. K. Chakraborty,  C.-L. Cheng,  
 Siu Hung Chien,  D. M. Chipman,  D. L. Crittenden,  H. Dachsel,  
 R. A. DiStasio Jr.,  R. J. Doerksen,  A. D. Dutoi,  L. Fusti-Molnar,  
 W. A. Goddard III,  A. Golubeva-Zadorozhnaya,  S. R. Gwaltney,  G. Hawkins,  
 A. Heyden,  S. Hirata,  G. Kedziora,  F. J. Keil,  C. Kelley,  Jihan Kim,  
 R. A. King,  R. Z. Khaliullin,  P. P. Korambath,  W. Kurlancheek,  
 A. M. Lee,  M. S. Lee,  S. V. Levchenko,  Ching Yeh Lin,  D. Liotard,  
 R. C. Lochan,  I. Lotan,  P. E. Maslen,  N. Nair,  D. P. O'Neill,  
 D. Neuhauser,  E. Neuscamman,  C. M. Oana,  R. Olson,  B. Peters,  
 R. Peverati,  P. A. Pieniazek,  Y. M. Rhee,  J. Ritchie,  M. A. Rohrdanz,  
 E. Rosta,  N. J. Russ,  H. F. Schaefer III,  N. E. Schultz,  N. Shenvi,  
 A. C. Simmonett,  A. Sodt,  D. Stuck,  K. S. Thanthiriwatte,  V. Vanovschi,  
 Tao Wang,  A. Warshel,  C. F. Williams,  Q. Wu,  X. Xu,  W. Zhang

 Please cite Q-Chem as follows:
 Y. Shao et al., Mol. Phys. 113, 184-215 (2015)
 DOI: 10.1080/00268976.2014.952696

 Q-Chem 5.0.1 for Intel X86 EM64T Linux

 Parts of Q-Chem use Armadillo 5.200.1 (Boston Tea Smuggler).
 http://arma.sourceforge.net/

 Q-Chem begins on Wed Apr 18 00:28:56 2018  

Host: vega02.cac.cornell.edu
0

     Scratch files written to /scratch/jj585/vdw/01n00_distance_4.500_11.save//
 Parallel job on  1  processors

Checking the input file for inconsistencies... 	...done.

--------------------------------------------------------------
User input:
--------------------------------------------------------------
$molecule
0  1
--
0  1
C        -0.55335000        -0.66344000        -0.04955000
C        -0.58369000        +0.72363000        +0.07143000
C        -1.74416000        -1.38805000        -0.12104000
C        -2.96100000        -0.71253000        -0.06974000
C        -2.98560000        +0.67733000        +0.05133000
C        -1.80096000        +1.41593000        +0.12202000
H        -3.93869000        +1.19496000        +0.09042000
H        -3.89285000        -1.26490000        -0.12448000
C        -1.82561000        +2.92062000        +0.24749000
H        -1.30124000        +3.39464000        -0.58804000
H        -1.33421000        +3.24931000        +1.16844000
H        -2.84892000        +3.30103000        +0.25949000
H        -1.72216000        -2.46788000        -0.21620000
H        +0.39889000        -1.18111000        -0.08841000
H        +0.34820000        +1.27792000        +0.12648000
--
0  1
C        -0.58314000        -1.05478000        +4.43330000
C        -0.61348000        +0.33229000        +4.55428000
C        -1.77395000        -1.77939000        +4.36181000
C        -2.99079000        -1.10387000        +4.41311000
C        -3.01539000        +0.28599000        +4.53418000
C        -1.83075000        +1.02459000        +4.60487000
H        -3.96848000        +0.80362000        +4.57327000
H        -3.92264000        -1.65624000        +4.35837000
C        -1.85540000        +2.52928000        +4.73034000
H        -1.33103000        +3.00330000        +3.89481000
H        -1.36400000        +2.85797000        +5.65129000
H        -2.87871000        +2.90969000        +4.74234000
H        -1.75195000        -2.85922000        +4.26665000
H        +0.36910000        -1.57245000        +4.39444000
H        +0.31841000        +0.88658000        +4.60933000
$end

$rem
JOBTYPE                   SP
METHOD                    B3LYP
DFT_D                     d3_op
BASIS                     6-311++G(d,p)
SYMMETRY                  False
THRESH                    12
SCF_CONVERGENCE           8
MAX_SUB_FILE_NUM          128
MEM_STATIC                400
MEM_TOTAL                 4000
$end
--------------------------------------------------------------
 Adding empirical dispersion correction 
 ----------------------------------------------------------------
 Doing -D3(op) with
 s6 =   1.00000
 s8 =   0.78311
 a1 =   0.30000
 a2 =   4.25000
 n  =  10.00000
 -D3 energy without 3body term =     -0.0266797747 hartrees
 ----------------------------------------------------------------
             Standard Nuclear Orientation (Angstroms)
    I     Atom           X                Y                Z
 ----------------------------------------------------------------
    1      C       2.2467325980    -1.1982990639     1.2062265600
    2      C       2.2484838586     0.1943539573     1.2003651092
    3      C       2.2461251065    -1.9053361895     0.0027744163
    4      C       2.2466473670    -1.2066294008    -1.2019940663
    5      C       2.2485931097     0.1887093154    -1.2020685473
    6      C       2.2511919043     0.9097177803    -0.0045548708
    7      H       2.2490759024     0.7244506562    -2.1459066562
    8      H       2.2462677660    -1.7452012941    -2.1434788929
    9      C       2.2588922488     2.4198103601    -0.0026988687
   10      H       3.1364446377     2.8090319608     0.5228271425
   11      H       1.3738138298     2.8197159550     0.5016538709
   12      H       2.2737817162     2.8177339713    -1.0192883766
   13      H       2.2457246656    -2.9895702394     0.0057102910
   14      H       2.2460115770    -1.7340450185     2.1492160076
   15      H       2.2487244456     0.7348647024     2.1419249614
   16      C      -2.2532610699    -1.1923367137     1.2061882903
   17      C      -2.2515098093     0.2003163074     1.2003268395
   18      C      -2.2538685614    -1.8993738394     0.0027361466
   19      C      -2.2533463009    -1.2006670507    -1.2020323360
   20      C      -2.2514005582     0.1946716655    -1.2021068170
   21      C      -2.2488017636     0.9156801304    -0.0045931405
   22      H      -2.2509177654     0.7304130063    -2.1459449259
   23      H      -2.2537259019    -1.7392389440    -2.1435171626
   24      C      -2.2411014191     2.4257727102    -0.0027371384
   25      H      -1.3635490302     2.8149943109     0.5227888728
   26      H      -3.1261798381     2.8256783051     0.5016156012
   27      H      -2.2262119517     2.8236963214    -1.0193266463
   28      H      -2.2542690023    -2.9836078892     0.0056720213
   29      H      -2.2539820909    -1.7280826684     2.1491777379
   30      H      -2.2512692223     0.7408270525     2.1418866917
 ----------------------------------------------------------------
 Molecular Point Group                 C1    NOp =  1
 Largest Abelian Subgroup              C1    NOp =  1
 Nuclear Repulsion Energy =   796.2336747605 hartrees
 There are       50 alpha and       50 beta electrons
 Requested basis set is 6-311++G(d,p)
 There are 164 shells and 420 basis functions

 Total QAlloc Memory Limit   4000 MB
 Mega-Array Size       392 MB
 MEM_STATIC part       400 MB
 A cutoff of  1.0D-12 yielded  11124 shell pairs
 There are     73511 function pairs (     78186 Cartesian)
 
 -------------------------------------------------------
 OpenMP Integral Computing Module                       
 Release: version 1.0, May 2013, Q-Chem Inc. Pittsburgh 
 -------------------------------------------------------
 Integral Job Info:
 Integral job number is                      11
 Integral operator is                         1
 short-range coefficients                     0
 long-range coefficients              100000000
 Omega coefficients                           0
 if combine SR and LR in K                    0
 Integral screening is                        0
 Integral computing path is                   2
 max size of driver memory is            800000
 size of driver memory is                593474
 size of scratch memory is              2361544
 max col of scratch BK array               1296
 max len of scratch array in speh3          155
 max len of scratch index in speh4           18
 max int batch size is                      520
 min int batch size is                       52
 fixed nKL is                                52
 max L of basis functions is                  2
 order of int derivative is                   0
 number of shells is                        164
 number of basis is                         434
 number of cartesian basis is               434
 number of contracted shell pairs         11124
 number of primitive shell pairs          24343
 maxK2 (contraction) of shell pair           36
 max number of K2 of shell pair               1
 max number of CS2 of shell pair           2087
 max number of PS2 of shell pair           3420
 mem total for path MDJ                  125208
 -------------------------------------------------------
 Smallest overlap matrix eigenvalue = 3.20E-07
 Linear dependence detected in AO basis
 Number of orthogonalized atomic orbitals = 418
 Maximum deviation from orthogonality = 4.197E-11

 Scale SEOQF with 1.000000e-01/1.000000e-01/1.000000e-01

 Standard Electronic Orientation quadrupole field applied
 Nucleus-field energy     =     0.0000000235 hartrees
 Guess from superposition of atomic densities
 Warning:  Energy on first SCF cycle will be non-variational
 A restricted hybrid HF-DFT SCF calculation will be
 performed using Pulay DIIS extrapolation
 Exchange:     0.2000 Hartree-Fock + 0.0800 Slater + 0.7200 B88
 Correlation:  0.1900 VWN1RPA + 0.8100 LYP
 Using SG-1 standard quadrature grid
 Dispersion:   Grimme D3
 SCF converges when DIIS error is below 1.0E-08
 using 4 threads for integral computing
 -------------------------------------------------------
 OpenMP Integral computing Module                
 Release: version 1.0, May 2013, Q-Chem Inc. Pittsburgh 
 -------------------------------------------------------
 -------------------------------------------------------
 OpenMP BLAS3 based DFT computing Module                
 Release: version 1.0, May 2013, Q-Chem Inc. Pittsburgh 
 -------------------------------------------------------
 ---------------------------------------
  Cycle       Energy         DIIS Error
 ---------------------------------------
    1    -546.2404614945      3.08E-02
    2    -543.0021896303      3.50E-03
    3    -542.9199940740      3.99E-03
    4    -543.3004729653      3.28E-04
    5    -543.3020803359      1.72E-04
    6    -543.3025979011      7.06E-05
    7    -543.3026964392      2.82E-05
    8    -543.3027158460      2.29E-06
    9    -543.3027159485      1.12E-06
   10    -543.3027159737      2.82E-07
   11    -543.3027159753      1.05E-07
   12    -543.3027159755      3.80E-08
   13    -543.3027159755      6.03E-09 Convergence criterion met
 ---------------------------------------
 SCF time:  CPU 384.26 s  wall 96.47 s
 SCF   energy in the final basis set = -543.30271598
 Total energy in the final basis set = -543.30271598
 
 --------------------------------------------------------------
 
                    Orbital Energies (a.u.)
 --------------------------------------------------------------
 
 Alpha MOs
 -- Occupied --
-10.182 -10.182 -10.172 -10.172 -10.171 -10.171 -10.169 -10.169
-10.169 -10.169 -10.169 -10.169 -10.168 -10.168  -0.856  -0.856
 -0.772  -0.771  -0.744  -0.744  -0.686  -0.686  -0.605  -0.604
 -0.584  -0.584  -0.512  -0.511  -0.461  -0.461  -0.454  -0.454
 -0.426  -0.420  -0.420  -0.419  -0.409  -0.409  -0.387  -0.386
 -0.359  -0.352  -0.343  -0.343  -0.340  -0.340  -0.256  -0.249
 -0.247  -0.240
 -- Virtual --
 -0.019  -0.014  -0.011  -0.008  -0.004  -0.001   0.004   0.008
  0.019   0.022   0.023   0.026   0.041   0.042   0.046   0.049
  0.056   0.061   0.064   0.069   0.074   0.080   0.086   0.093
  0.095   0.102   0.108   0.109   0.110   0.115   0.116   0.118
  0.120   0.123   0.124   0.127   0.131   0.133   0.135   0.136
  0.137   0.140   0.141   0.146   0.155   0.157   0.157   0.163
  0.168   0.169   0.172   0.174   0.178   0.179   0.180   0.181
  0.184   0.192   0.194   0.197   0.203   0.214   0.215   0.219
  0.224   0.236   0.242   0.243   0.247   0.248   0.259   0.261
  0.263   0.264   0.270   0.277   0.282   0.284   0.287   0.290
  0.292   0.296   0.299   0.302   0.310   0.311   0.314   0.318
  0.328   0.344   0.347   0.348   0.353   0.361   0.364   0.365
  0.374   0.377   0.379   0.385   0.393   0.400   0.463   0.478
  0.488   0.508   0.528   0.529   0.538   0.542   0.553   0.557
  0.560   0.565   0.567   0.577   0.578   0.584   0.595   0.601
  0.607   0.625   0.630   0.633   0.635   0.642   0.643   0.644
  0.648   0.653   0.664   0.666   0.669   0.675   0.682   0.692
  0.712   0.712   0.717   0.725   0.730   0.733   0.738   0.744
  0.747   0.768   0.773   0.778   0.784   0.791   0.804   0.823
  0.834   0.847   0.854   0.857   0.875   0.879   0.891   0.894
  0.900   0.907   0.915   0.916   0.926   0.929   0.942   0.943
  0.963   0.964   0.974   0.986   1.002   1.015   1.019   1.020
  1.035   1.039   1.061   1.066   1.084   1.086   1.100   1.129
  1.131   1.146   1.147   1.156   1.286   1.355   1.360   1.364
  1.389   1.393   1.405   1.437   1.458   1.475   1.486   1.496
  1.530   1.533   1.540   1.542   1.546   1.555   1.556   1.561
  1.573   1.577   1.606   1.607   1.608   1.621   1.621   1.627
  1.648   1.657   1.668   1.679   1.687   1.698   1.711   1.724
  1.746   1.755   1.759   1.778   1.782   1.799   1.811   1.837
  1.838   1.846   1.853   1.862   1.891   1.906   1.921   1.927
  1.933   1.941   1.943   1.948   1.955   1.960   1.970   1.980
  2.016   2.026   2.030   2.032   2.039   2.043   2.088   2.095
  2.109   2.133   2.185   2.204   2.229   2.232   2.247   2.251
  2.325   2.326   2.397   2.403   2.403   2.415   2.431   2.452
  2.455   2.459   2.487   2.495   2.498   2.504   2.543   2.545
  2.564   2.569   2.600   2.612   2.636   2.643   2.649   2.671
  2.676   2.686   2.692   2.705   2.715   2.737   2.741   2.755
  2.758   2.768   2.770   2.778   2.789   2.790   2.807   2.821
  2.841   2.854   2.861   2.863   2.881   2.888   2.915   2.929
  2.930   2.936   2.939   2.957   2.971   2.980   3.011   3.030
  3.085   3.119   3.162   3.177   3.218   3.238   3.349   3.381
  3.385   3.408   3.495   3.524   3.541   3.542   3.628   3.630
  3.712   3.727   3.795   3.805   3.836   3.849   4.007   4.007
  4.047   4.054   4.158   4.158   4.165   4.168   4.336   4.341
  4.849   4.852  23.611  23.654  23.935  23.940  23.982  23.985
 23.996  24.009  24.090  24.092  24.102  24.104  24.197  24.204
 --------------------------------------------------------------
 
          Ground-State Mulliken Net Atomic Charges

     Atom                 Charge (a.u.)
  ----------------------------------------
      1 C                    -0.222127
      2 C                    -0.207914
      3 C                    -0.252748
      4 C                    -0.270297
      5 C                    -0.273362
      6 C                     0.657781
      7 H                     0.153341
      8 H                     0.169799
      9 C                    -0.687832
     10 H                     0.151135
     11 H                     0.150515
     12 H                     0.140970
     13 H                     0.150903
     14 H                     0.165234
     15 H                     0.174505
     16 C                    -0.228362
     17 C                    -0.198434
     18 C                    -0.253410
     19 C                    -0.268743
     20 C                    -0.276115
     21 C                     0.661451
     22 H                     0.153219
     23 H                     0.169915
     24 C                    -0.691809
     25 H                     0.148720
     26 H                     0.151921
     27 H                     0.140620
     28 H                     0.150740
     29 H                     0.165239
     30 H                     0.175143
  ----------------------------------------
  Sum of atomic charges =    -0.000000

 -----------------------------------------------------------------
                    Cartesian Multipole Moments
 -----------------------------------------------------------------
    Charge (ESU x 10^10)
                -0.0000
    Dipole Moment (Debye)
         X       0.0077      Y       0.6451      Z       0.0591
       Tot       0.6479
    Quadrupole Moments (Debye-Ang)
        XX     -94.2569     XY       0.0253     YY     -78.0101
        XZ      -0.0022     YZ       0.0763     ZZ     -78.4720
    Octopole Moments (Debye-Ang^2)
       XXX       0.1869    XXY      12.3292    XYY      -0.0237
       YYY      -9.5948    XXZ       1.6371    XYZ      -0.0095
       YYZ       0.0682    XZZ       0.0233    YZZ      -2.0090
       ZZZ      -1.0099
    Hexadecapole Moments (Debye-Ang^3)
      XXXX   -2970.0618   XXXY       0.4298   XXYY    -642.2810
      XYYY      -0.1108   YYYY   -1247.7069   XXXZ       0.0154
      XXYZ       4.1312   XYYZ      -0.0622   YYYZ      -0.7390
      XXZZ    -539.6901   XYZZ       0.1445   YYZZ    -299.4570
      XZZZ      -0.0271   YZZZ      -3.1217   ZZZZ    -587.8304
 -----------------------------------------------------------------
Archival summary:
1\1\vega02.cac.cornell.edu\SP\ProcedureUnspecified\BasisUnspecified\1416\jj585\WedApr1800:30:342018WedApr1800:30:342018\0\\#,ProcedureUnspecified,BasisUnspecified,\\0,1\C\C,1,1.39782\H,2,1.08529,1,119.368\C,2,1.39534,1,121.049,3,179.94,0\H,4,1.08464,2,119.768,1,-179.901,0\C,4,1.39272,2,120.115,1,0.0547342,0\H,6,1.08424,4,120.267,2,-179.932,0\C,6,1.39578,4,119.454,2,0.0391297,0\H,8,1.08455,6,119.963,4,179.98,0\C,8,1.39267,6,120.193,4,-0.0300908,0\H,10,1.08567,8,119.617,6,179.987,0\C,1,1.51011,2,121.122,3,-0.187779,0\H,12,1.0918,1,111.308,2,-0.672818,0\H,12,1.09438,1,111.214,2,119.648,0\H,12,1.09443,1,111.119,2,-120.898,0\H,14,2.73745,12,144.258,1,-56.5055,0\C,16,1.09443,14,143.008,12,-2.83078,0\H,17,1.0918,16,107.852,14,-62.2917,0\H,17,1.09438,16,107.291,14,-178.269,0\C,17,1.51011,16,111.119,14,59.961,0\C,20,1.39782,17,121.122,16,-120.898,0\H,21,1.08529,20,119.368,17,-0.187779,0\C,21,1.39534,20,121.049,17,179.752,0\H,23,1.08464,21,119.768,20,-179.901,0\C,23,1.39272,21,120.115,20,0.0547342,0\H,25,1.08424,23,120.267,21,-179.932,0\C,25,1.39578,23,119.454,21,0.0391297,0\H,27,1.08455,25,119.963,23,179.98,0\C,27,1.39267,25,120.193,23,-0.0300908,0\H,29,1.08567,27,119.617,25,179.987,0\\\@

 Total job time:  97.22s(wall), 386.56s(cpu) 
 Wed Apr 18 00:30:34 2018

        *************************************************************
        *                                                           *
        *  Thank you very much for using Q-Chem.  Have a nice day.  *
        *                                                           *
        *************************************************************


0 sent ACK to 0 
now end server 0 ... 
