mFile = /opt/software/qchem/qchem-5.0.1//bin/mpi/machines
Process 0 of 1 is on vega03.cac.cornell.edu - thread support 0
initial socket setup ...start
initial socket setup ...done 
now start server 0 ... 
vega03 10.84.3
Q-Chem Developer Version! Running on 10.84.3.*
                  Welcome to Q-Chem
     A Quantum Leap Into The Future Of Chemistry


 Q-Chem 5.0, Q-Chem, Inc., Pleasanton, CA (2017)

 Yihan Shao,  Zhengting Gan,  E. Epifanovsky,  A. T. B. Gilbert,  M. Wormit,  
 J. Kussmann,  A. W. Lange,  A. Behn,  Jia Deng,  Xintian Feng,  D. Ghosh,  
 M. Goldey,  P. R. Horn,  L. D. Jacobson,  I. Kaliman,  T. Kus,  A. Landau,  
 Jie Liu,  E. I. Proynov,  R. M. Richard,  R. P. Steele,  E. J. Sundstrom,  
 H. L. Woodcock III,  P. M. Zimmerman,  D. Zuev,  B. Albrecht,  E. Alguire,  
 S. A. Baeppler,  Z. Benda,  Y. A. Bernard,  E. J. Berquist,  K. B. Bravaya,  
 D. Casanova,  Chun-Min Chang,  Yunqing Chen,  A. Chien,  K. D. Closser,  
 M. P. Coons,  S. Dasgupta,  M. Diedenhofen,  Hainam Do,  R. G. Edgar,  
 Po-Tung Fang,  S. Fatehi,  Qingguo Feng,  Qinghui Ge,  A. Ghysels,  
 J. Gomes,  J. Gonthier,  A. Gunina,  M. W. D. Hanson-Heine,  
 P. H. P. Harbach,  A. W. Hauser,  J. E. Herr,  E. G. Hohenstein,  
 Z. C. Holden,  Kerwin Hui,  T.-C. Jagau,  Hyunjun Ji,  B. Kaduk,  
 K. Khistyaev,  Jaehoon Kim,  P. Klunzinger,  K. Koh,  D. Kosenkov,  
 T. Kowalczyk,  C. M. Krauter,  A. Kunitsa,  Ka Un Lao,  A. Laurent,  
 K. V. Lawler,  Joonho Lee,  D. Lefrancois,  S. Lehtola,  D. S. Levine,  
 Yi-Pei Li,  You-Sheng Lin,  Fenglai Liu,  E. Livshits,  A. Luenser,  
 P. Manohar,  E. Mansoor,  S. F. Manzer,  Shan-Ping Mao,  Yuezhi Mao,  
 N. Mardirossian,  A. V. Marenich,  L. A. Martinez-Martinez,  S. A. Maurer,  
 N. J. Mayhall,  S. C. McKenzie,  J.-M. Mewes,  A. F. Morrison,  K. Nanda,  
 T. S. Nguyen-Beck,  R. Olivares-Amaya,  J. A. Parkhill,  T. M. Perrine,  
 F. Plasser,  S. Prager,  A. Prociuk,  D. R. Rehn,  F. Rob,  M. Schneider,  
 N. Sergueev,  S. M. Sharada,  S. Sharma,  D. W. Small,  T. Stauch,  
 T. Stein,  Yu-Chuan Su,  A. J. W. Thom,  T. Tsuchimochi,  L. Vogt,  
 O. Vydrov,  M. A. Watson,  J. Wenzel,  M. de Wergifosse,  T. A. Wesolowski,  
 A. White,  J. Witte,  A. Yamada,  Jun Yang,  K. Yao,  S. Yeganeh,  
 S. R. Yost,  Zhi-Qiang You,  A. Zech,  Igor Ying Zhang,  Xing Zhang,  
 Yan Zhao,  Ying Zhu,  B. R. Brooks,  G. K. L. Chan,  C. J. Cramer,  
 M. S. Gordon,  W. J. Hehre,  A. Klamt,  M. W. Schmidt,  C. D. Sherrill,  
 D. G. Truhlar,  A. Aspuru-Guzik,  R. Baer,  A. T. Bell,  N. A. Besley,  
 Jeng-Da Chai,  A. Dreuw,  B. D. Dunietz,  T. R. Furlani,  Chao-Ping Hsu,  
 Yousung Jung,  Jing Kong,  D. S. Lambrecht,  WanZhen Liang,  C. Ochsenfeld,  
 V. A. Rassolov,  L. V. Slipchenko,  J. E. Subotnik,  T. Van Voorhis,  
 J. M. Herbert,  A. I. Krylov,  P. M. W. Gill,  M. Head-Gordon

 Contributors to earlier versions of Q-Chem not listed above: 
 R. D. Adamson,  B. Austin,  J. Baker,  G. J. O. Beran,  K. Brandhorst,  
 S. T. Brown,  E. F. C. Byrd,  A. K. Chakraborty,  C.-L. Cheng,  
 Siu Hung Chien,  D. M. Chipman,  D. L. Crittenden,  H. Dachsel,  
 R. A. DiStasio Jr.,  R. J. Doerksen,  A. D. Dutoi,  L. Fusti-Molnar,  
 W. A. Goddard III,  A. Golubeva-Zadorozhnaya,  S. R. Gwaltney,  G. Hawkins,  
 A. Heyden,  S. Hirata,  G. Kedziora,  F. J. Keil,  C. Kelley,  Jihan Kim,  
 R. A. King,  R. Z. Khaliullin,  P. P. Korambath,  W. Kurlancheek,  
 A. M. Lee,  M. S. Lee,  S. V. Levchenko,  Ching Yeh Lin,  D. Liotard,  
 R. C. Lochan,  I. Lotan,  P. E. Maslen,  N. Nair,  D. P. O'Neill,  
 D. Neuhauser,  E. Neuscamman,  C. M. Oana,  R. Olson,  B. Peters,  
 R. Peverati,  P. A. Pieniazek,  Y. M. Rhee,  J. Ritchie,  M. A. Rohrdanz,  
 E. Rosta,  N. J. Russ,  H. F. Schaefer III,  N. E. Schultz,  N. Shenvi,  
 A. C. Simmonett,  A. Sodt,  D. Stuck,  K. S. Thanthiriwatte,  V. Vanovschi,  
 Tao Wang,  A. Warshel,  C. F. Williams,  Q. Wu,  X. Xu,  W. Zhang

 Please cite Q-Chem as follows:
 Y. Shao et al., Mol. Phys. 113, 184-215 (2015)
 DOI: 10.1080/00268976.2014.952696

 Q-Chem 5.0.1 for Intel X86 EM64T Linux

 Parts of Q-Chem use Armadillo 5.200.1 (Boston Tea Smuggler).
 http://arma.sourceforge.net/

 Q-Chem begins on Tue Apr 17 00:50:44 2018  

Host: vega03.cac.cornell.edu
0

     Scratch files written to /scratch/jj585/vdw/01n00_distance_4.500_11.save//
 Parallel job on  1  processors

Checking the input file for inconsistencies... 	...done.

--------------------------------------------------------------
User input:
--------------------------------------------------------------
$molecule
0  1
--
0  1
C        -0.54444000        -0.68370000        -0.06689000
C        -0.55709000        +0.71878000        +0.05493000
C        -1.74320000        -1.41616000        -0.12552000
C        -2.93952000        -0.70056000        -0.05285000
C        -2.95313000        +0.68255000        +0.06934000
C        -1.77161000        +1.42404000        +0.12810000
H        -3.90354000        +1.20325000        +0.11710000
H        -3.87892000        -1.24211000        -0.08988000
C        -1.83960000        +2.92746000        +0.24839000
H        -1.24214000        +3.42352000        -0.52065000
H        -1.45503000        +3.26427000        +1.21284000
H        -2.87211000        +3.26623000        +0.14638000
H        -1.73878000        -2.44393000        -0.21875000
H        +0.35825000        -1.18166000        -0.11386000
H        +0.33551000        +1.23549000        +0.09097000
--
0  1
C        -0.69824000        -1.00544000        +4.41896000
C        -0.71089000        +0.39704000        +4.54078000
C        -1.89700000        -1.73790000        +4.36033000
C        -3.09332000        -1.02230000        +4.43300000
C        -3.10693000        +0.36081000        +4.55519000
C        -1.92541000        +1.10230000        +4.61395000
H        -4.05734000        +0.88151000        +4.60295000
H        -4.03272000        -1.56385000        +4.39597000
C        -1.99340000        +2.60572000        +4.73424000
H        -1.39594000        +3.10178000        +3.96520000
H        -1.60883000        +2.94253000        +5.69869000
H        -3.02591000        +2.94449000        +4.63223000
H        -1.89258000        -2.76567000        +4.26710000
H        +0.20445000        -1.50340000        +4.37199000
H        +0.18171000        +0.91375000        +4.57682000
$end

$rem
JOBTYPE                   SP
METHOD                    B3LYP
DFT_D                     d3_op
BASIS                     6-311++G(d,p)
SYMMETRY                  False
THRESH                    12
SCF_CONVERGENCE           8
MAX_SUB_FILE_NUM          128
MEM_STATIC                400
MEM_TOTAL                 4000
$end
--------------------------------------------------------------
 Adding empirical dispersion correction 
 ----------------------------------------------------------------
 Doing -D3(op) with
 s6 =   1.00000
 s8 =   0.78311
 a1 =   0.30000
 a2 =   4.25000
 n  =  10.00000
 -D3 energy without 3body term =     -0.0267078032 hartrees
 ----------------------------------------------------------------
             Standard Nuclear Orientation (Angstroms)
    I     Atom           X                Y                Z
 ----------------------------------------------------------------
    1      C       2.3453043217    -1.1954937119     1.1655685371
    2      C       2.3050510208     0.2114786559     1.1931132906
    3      C       2.3070266024    -1.8971663451    -0.0522783326
    4      C       2.2223800724    -1.1462475819    -1.2259485619
    5      C       2.1805846790     0.2414409413    -1.1998217971
    6      C       2.2184825091     0.9526027102     0.0010372126
    7      H       2.1204944627     0.7897258186    -2.1338782916
    8      H       2.1853852933    -1.6632269395    -2.1790926820
    9      C       2.1831487794     2.4617333005    -0.0242691029
   10      H       3.0059571662     2.8965740066     0.5487548195
   11      H       1.2582996620     2.8424956197     0.4129642786
   12      H       2.2581093222     2.8221326920    -1.0517618030
   13      H       2.3402532758    -2.9283224074    -0.0774915367
   14      H       2.4037824948    -1.7197386082     2.0525675059
   15      H       2.3394750774     0.7048866504     2.0988651335
   16      C      -2.1540406648    -1.2560782977     1.2129551412
   17      C      -2.1942939657     0.1508940700     1.2404998946
   18      C      -2.1923183841    -1.9577509310    -0.0048917285
   19      C      -2.2769649141    -1.2068321678    -1.1785619579
   20      C      -2.3187603075     0.1808563555    -1.1524351930
   21      C      -2.2808624774     0.8920181244     0.0484238166
   22      H      -2.3788505238     0.7291412328    -2.0864916876
   23      H      -2.3139596933    -1.7238115253    -2.1317060779
   24      C      -2.3161962072     2.4011487147     0.0231175011
   25      H      -1.4933878204     2.8359894208     0.5961414235
   26      H      -3.2410453245     2.7819110339     0.4603508827
   27      H      -2.2412356643     2.7615481062    -1.0043751990
   28      H      -2.1590917107    -2.9889069932    -0.0301049326
   29      H      -2.0955624917    -1.7803231941     2.0999541099
   30      H      -2.1598699092     0.6443020646     2.1462517376
 ----------------------------------------------------------------
 Molecular Point Group                 C1    NOp =  1
 Largest Abelian Subgroup              C1    NOp =  1
 Nuclear Repulsion Energy =   796.6819412869 hartrees
 There are       50 alpha and       50 beta electrons
 Requested basis set is 6-311++G(d,p)
 There are 164 shells and 420 basis functions

 Total QAlloc Memory Limit   4000 MB
 Mega-Array Size       392 MB
 MEM_STATIC part       400 MB
 A cutoff of  1.0D-12 yielded  11113 shell pairs
 There are     73554 function pairs (     78243 Cartesian)
 
 -------------------------------------------------------
 OpenMP Integral Computing Module                       
 Release: version 1.0, May 2013, Q-Chem Inc. Pittsburgh 
 -------------------------------------------------------
 Integral Job Info:
 Integral job number is                      11
 Integral operator is                         1
 short-range coefficients                     0
 long-range coefficients              100000000
 Omega coefficients                           0
 if combine SR and LR in K                    0
 Integral screening is                        0
 Integral computing path is                   2
 max size of driver memory is            800000
 size of driver memory is                593474
 size of scratch memory is              2361544
 max col of scratch BK array               1296
 max len of scratch array in speh3          155
 max len of scratch index in speh4           18
 max int batch size is                      520
 min int batch size is                       52
 fixed nKL is                                52
 max L of basis functions is                  2
 order of int derivative is                   0
 number of shells is                        164
 number of basis is                         434
 number of cartesian basis is               434
 number of contracted shell pairs         11113
 number of primitive shell pairs          24343
 maxK2 (contraction) of shell pair           36
 max number of K2 of shell pair               1
 max number of CS2 of shell pair           2088
 max number of PS2 of shell pair           3426
 mem total for path MDJ                  125624
 -------------------------------------------------------
 Smallest overlap matrix eigenvalue = 3.53E-07
 Linear dependence detected in AO basis
 Number of orthogonalized atomic orbitals = 418
 Maximum deviation from orthogonality = 4.012E-11

 Scale SEOQF with 1.000000e-01/1.000000e-01/1.000000e-01

 Standard Electronic Orientation quadrupole field applied
 Nucleus-field energy     =     0.0000000238 hartrees
 Guess from superposition of atomic densities
 Warning:  Energy on first SCF cycle will be non-variational
 A restricted hybrid HF-DFT SCF calculation will be
 performed using Pulay DIIS extrapolation
 Exchange:     0.2000 Hartree-Fock + 0.0800 Slater + 0.7200 B88
 Correlation:  0.1900 VWN1RPA + 0.8100 LYP
 Using SG-1 standard quadrature grid
 Dispersion:   Grimme D3
 SCF converges when DIIS error is below 1.0E-08
 using 4 threads for integral computing
 -------------------------------------------------------
 OpenMP Integral computing Module                
 Release: version 1.0, May 2013, Q-Chem Inc. Pittsburgh 
 -------------------------------------------------------
 -------------------------------------------------------
 OpenMP BLAS3 based DFT computing Module                
 Release: version 1.0, May 2013, Q-Chem Inc. Pittsburgh 
 -------------------------------------------------------
 ---------------------------------------
  Cycle       Energy         DIIS Error
 ---------------------------------------
    1    -546.3050180141      3.10E-02
    2    -542.9919109321      3.49E-03
    3    -542.9358476826      3.85E-03
    4    -543.2871400020      3.11E-04
    5    -543.2886257702      1.54E-04
    6    -543.2890310007      6.77E-05
    7    -543.2891229640      2.64E-05
    8    -543.2891400027      2.33E-06
    9    -543.2891400967      1.37E-06
   10    -543.2891401373      4.04E-07
   11    -543.2891401409      1.22E-07
   12    -543.2891401412      3.46E-08
   13    -543.2891401412      8.20E-09 Convergence criterion met
 ---------------------------------------
 SCF time:  CPU 378.82 s  wall 95.01 s
 SCF   energy in the final basis set = -543.28914014
 Total energy in the final basis set = -543.28914014
 
 --------------------------------------------------------------
 
                    Orbital Energies (a.u.)
 --------------------------------------------------------------
 
 Alpha MOs
 -- Occupied --
-10.182 -10.181 -10.170 -10.170 -10.168 -10.168 -10.168 -10.168
-10.167 -10.167 -10.165 -10.165 -10.165 -10.165  -0.854  -0.854
 -0.773  -0.772  -0.744  -0.743  -0.689  -0.688  -0.607  -0.607
 -0.587  -0.587  -0.518  -0.517  -0.462  -0.461  -0.459  -0.459
 -0.426  -0.419  -0.419  -0.418  -0.415  -0.414  -0.388  -0.387
 -0.357  -0.350  -0.347  -0.347  -0.339  -0.338  -0.254  -0.247
 -0.246  -0.240
 -- Virtual --
 -0.019  -0.014  -0.010  -0.008  -0.005   0.000   0.005   0.009
  0.020   0.022   0.024   0.026   0.041   0.043   0.047   0.050
  0.057   0.063   0.065   0.070   0.074   0.079   0.087   0.094
  0.095   0.103   0.108   0.109   0.112   0.116   0.117   0.119
  0.121   0.124   0.126   0.129   0.132   0.133   0.134   0.137
  0.138   0.140   0.142   0.148   0.155   0.157   0.159   0.165
  0.169   0.170   0.174   0.175   0.180   0.180   0.181   0.182
  0.184   0.193   0.195   0.199   0.203   0.214   0.214   0.219
  0.225   0.237   0.242   0.244   0.249   0.250   0.262   0.263
  0.263   0.266   0.273   0.278   0.282   0.286   0.288   0.291
  0.293   0.297   0.303   0.304   0.312   0.313   0.316   0.320
  0.323   0.342   0.349   0.350   0.354   0.364   0.366   0.369
  0.375   0.377   0.379   0.382   0.394   0.397   0.472   0.477
  0.491   0.508   0.525   0.531   0.534   0.542   0.546   0.555
  0.556   0.565   0.568   0.571   0.578   0.590   0.598   0.603
  0.610   0.625   0.628   0.634   0.639   0.643   0.645   0.648
  0.654   0.658   0.667   0.669   0.671   0.677   0.685   0.691
  0.712   0.715   0.718   0.728   0.733   0.736   0.741   0.746
  0.748   0.769   0.780   0.782   0.789   0.794   0.807   0.821
  0.836   0.847   0.856   0.858   0.876   0.880   0.888   0.897
  0.901   0.910   0.915   0.921   0.927   0.930   0.940   0.954
  0.962   0.971   0.974   0.988   1.005   1.019   1.021   1.025
  1.030   1.042   1.067   1.074   1.089   1.091   1.106   1.128
  1.134   1.142   1.149   1.157   1.292   1.352   1.357   1.362
  1.392   1.396   1.418   1.442   1.465   1.475   1.483   1.489
  1.537   1.539   1.542   1.547   1.551   1.558   1.561   1.564
  1.578   1.583   1.604   1.612   1.615   1.623   1.626   1.630
  1.648   1.661   1.669   1.677   1.681   1.690   1.719   1.729
  1.759   1.766   1.775   1.782   1.803   1.817   1.820   1.837
  1.852   1.855   1.859   1.876   1.896   1.908   1.922   1.927
  1.937   1.944   1.945   1.950   1.957   1.959   1.972   1.977
  2.023   2.034   2.035   2.042   2.047   2.052   2.105   2.107
  2.113   2.129   2.193   2.211   2.243   2.244   2.254   2.258
  2.326   2.327   2.403   2.407   2.413   2.427   2.443   2.462
  2.470   2.492   2.497   2.503   2.513   2.550   2.556   2.558
  2.571   2.572   2.607   2.612   2.639   2.656   2.673   2.680
  2.683   2.697   2.703   2.708   2.715   2.740   2.743   2.753
  2.755   2.757   2.765   2.766   2.782   2.785   2.810   2.825
  2.843   2.855   2.870   2.877   2.900   2.913   2.917   2.931
  2.940   2.955   2.957   2.963   2.998   3.008   3.011   3.024
  3.084   3.117   3.155   3.167   3.218   3.235   3.345   3.382
  3.386   3.412   3.508   3.536   3.556   3.560   3.657   3.658
  3.718   3.733   3.791   3.799   3.858   3.871   4.038   4.039
  4.124   4.127   4.190   4.192   4.209   4.209   4.344   4.349
  4.841   4.844  23.655  23.695  23.942  23.947  24.006  24.008
 24.011  24.023  24.099  24.101  24.111  24.113  24.205  24.212
 --------------------------------------------------------------
 
          Ground-State Mulliken Net Atomic Charges

     Atom                 Charge (a.u.)
  ----------------------------------------
      1 C                    -0.216137
      2 C                    -0.263609
      3 C                    -0.224936
      4 C                    -0.269016
      5 C                    -0.293952
      6 C                     0.728299
      7 H                     0.149292
      8 H                     0.164529
      9 C                    -0.688068
     10 H                     0.146142
     11 H                     0.153936
     12 H                     0.142958
     13 H                     0.145861
     14 H                     0.156517
     15 H                     0.164873
     16 C                    -0.223791
     17 C                    -0.213026
     18 C                    -0.247228
     19 C                    -0.279253
     20 C                    -0.276833
     21 C                     0.676442
     22 H                     0.148857
     23 H                     0.169722
     24 C                    -0.664254
     25 H                     0.145830
     26 H                     0.156902
     27 H                     0.139842
     28 H                     0.143137
     29 H                     0.159319
     30 H                     0.167642
  ----------------------------------------
  Sum of atomic charges =    -0.000000

 -----------------------------------------------------------------
                    Cartesian Multipole Moments
 -----------------------------------------------------------------
    Charge (ESU x 10^10)
                -0.0000
    Dipole Moment (Debye)
         X      -0.0222      Y       0.6179      Z       0.1211
       Tot       0.6300
    Quadrupole Moments (Debye-Ang)
        XX     -94.0378     XY      -0.4494     YY     -77.3796
        XZ       0.6800     YZ       0.0539     ZZ     -78.5602
    Octopole Moments (Debye-Ang^2)
       XXX      -1.2820    XXY      11.8068    XYY       0.9899
       YYY     -11.2634    XXZ       2.1884    XYZ      -0.5523
       YYZ       0.5210    XZZ       0.2923    YZZ      -1.6250
       ZZZ       0.1596
    Hexadecapole Moments (Debye-Ang^3)
      XXXX   -2964.7132   XXXY      -9.1792   XXYY    -639.4368
      XYYY      -1.1278   YYYY   -1246.7610   XXXZ      10.4083
      XXYZ       3.8107   XYYZ       1.3243   YYYZ       0.2564
      XXZZ    -538.0363   XYZZ       0.2270   YYZZ    -299.1769
      XZZZ       4.0199   YZZZ      -3.5987   ZZZZ    -580.1645
 -----------------------------------------------------------------
Archival summary:
1\1\vega03.cac.cornell.edu\SP\ProcedureUnspecified\BasisUnspecified\1416\jj585\TueApr1700:52:202018TueApr1700:52:202018\0\\#,ProcedureUnspecified,BasisUnspecified,\\0,1\C\C,1,1.39616\H,2,1.08475,1,118.991\C,2,1.38856,1,121.629,3,179.783,0\H,4,1.08495,2,119.453,1,179.671,0\C,4,1.3959,2,121.575,1,-0.129654,0\H,6,1.032,4,121.26,2,-179.84,0\C,6,1.40604,4,117.481,2,0.160349,0\H,8,1.032,6,119.504,4,179.742,0\C,1,1.40634,2,117.536,3,-179.6,0\H,10,1.032,1,119.607,2,179.72,0\C,1,1.50976,2,119.611,3,-0.341033,0\H,12,1.09144,1,110.135,2,-7.24194,0\H,12,1.09156,1,111.21,2,113.289,0\H,12,1.09291,1,111.796,2,-127.427,0\H,14,2.75779,12,150.597,1,-49.8189,0\C,16,1.09291,14,135.833,12,-10.9643,0\H,17,1.09144,16,108.09,14,-57.6333,0\H,17,1.09156,16,106.802,14,-174.402,0\C,17,1.50976,16,111.796,14,63.7422,0\C,20,1.39616,17,119.611,16,-127.427,0\H,21,1.08475,20,118.991,17,-0.341033,0\C,21,1.38856,20,121.629,17,179.442,0\H,23,1.08495,21,119.453,20,179.671,0\C,23,1.3959,21,121.575,20,-0.129654,0\H,25,1.032,23,121.26,21,-179.84,0\C,25,1.40604,23,117.481,21,0.160349,0\H,27,1.032,25,119.504,23,179.742,0\C,20,1.40634,17,122.848,16,51.7903,0\H,29,1.032,20,119.607,17,0.487832,0\\\@

 Total job time:  95.75s(wall), 381.08s(cpu) 
 Tue Apr 17 00:52:20 2018

        *************************************************************
        *                                                           *
        *  Thank you very much for using Q-Chem.  Have a nice day.  *
        *                                                           *
        *************************************************************


0 sent ACK to 0 
now end server 0 ... 
