mFile = /opt/software/qchem/qchem-5.0.1//bin/mpi/machines
Process 0 of 1 is on vega03.cac.cornell.edu - thread support 0
initial socket setup ...start
initial socket setup ...done 
now start server 0 ... 
vega03 10.84.3
Q-Chem Developer Version! Running on 10.84.3.*
                  Welcome to Q-Chem
     A Quantum Leap Into The Future Of Chemistry


 Q-Chem 5.0, Q-Chem, Inc., Pleasanton, CA (2017)

 Yihan Shao,  Zhengting Gan,  E. Epifanovsky,  A. T. B. Gilbert,  M. Wormit,  
 J. Kussmann,  A. W. Lange,  A. Behn,  Jia Deng,  Xintian Feng,  D. Ghosh,  
 M. Goldey,  P. R. Horn,  L. D. Jacobson,  I. Kaliman,  T. Kus,  A. Landau,  
 Jie Liu,  E. I. Proynov,  R. M. Richard,  R. P. Steele,  E. J. Sundstrom,  
 H. L. Woodcock III,  P. M. Zimmerman,  D. Zuev,  B. Albrecht,  E. Alguire,  
 S. A. Baeppler,  Z. Benda,  Y. A. Bernard,  E. J. Berquist,  K. B. Bravaya,  
 D. Casanova,  Chun-Min Chang,  Yunqing Chen,  A. Chien,  K. D. Closser,  
 M. P. Coons,  S. Dasgupta,  M. Diedenhofen,  Hainam Do,  R. G. Edgar,  
 Po-Tung Fang,  S. Fatehi,  Qingguo Feng,  Qinghui Ge,  A. Ghysels,  
 J. Gomes,  J. Gonthier,  A. Gunina,  M. W. D. Hanson-Heine,  
 P. H. P. Harbach,  A. W. Hauser,  J. E. Herr,  E. G. Hohenstein,  
 Z. C. Holden,  Kerwin Hui,  T.-C. Jagau,  Hyunjun Ji,  B. Kaduk,  
 K. Khistyaev,  Jaehoon Kim,  P. Klunzinger,  K. Koh,  D. Kosenkov,  
 T. Kowalczyk,  C. M. Krauter,  A. Kunitsa,  Ka Un Lao,  A. Laurent,  
 K. V. Lawler,  Joonho Lee,  D. Lefrancois,  S. Lehtola,  D. S. Levine,  
 Yi-Pei Li,  You-Sheng Lin,  Fenglai Liu,  E. Livshits,  A. Luenser,  
 P. Manohar,  E. Mansoor,  S. F. Manzer,  Shan-Ping Mao,  Yuezhi Mao,  
 N. Mardirossian,  A. V. Marenich,  L. A. Martinez-Martinez,  S. A. Maurer,  
 N. J. Mayhall,  S. C. McKenzie,  J.-M. Mewes,  A. F. Morrison,  K. Nanda,  
 T. S. Nguyen-Beck,  R. Olivares-Amaya,  J. A. Parkhill,  T. M. Perrine,  
 F. Plasser,  S. Prager,  A. Prociuk,  D. R. Rehn,  F. Rob,  M. Schneider,  
 N. Sergueev,  S. M. Sharada,  S. Sharma,  D. W. Small,  T. Stauch,  
 T. Stein,  Yu-Chuan Su,  A. J. W. Thom,  T. Tsuchimochi,  L. Vogt,  
 O. Vydrov,  M. A. Watson,  J. Wenzel,  M. de Wergifosse,  T. A. Wesolowski,  
 A. White,  J. Witte,  A. Yamada,  Jun Yang,  K. Yao,  S. Yeganeh,  
 S. R. Yost,  Zhi-Qiang You,  A. Zech,  Igor Ying Zhang,  Xing Zhang,  
 Yan Zhao,  Ying Zhu,  B. R. Brooks,  G. K. L. Chan,  C. J. Cramer,  
 M. S. Gordon,  W. J. Hehre,  A. Klamt,  M. W. Schmidt,  C. D. Sherrill,  
 D. G. Truhlar,  A. Aspuru-Guzik,  R. Baer,  A. T. Bell,  N. A. Besley,  
 Jeng-Da Chai,  A. Dreuw,  B. D. Dunietz,  T. R. Furlani,  Chao-Ping Hsu,  
 Yousung Jung,  Jing Kong,  D. S. Lambrecht,  WanZhen Liang,  C. Ochsenfeld,  
 V. A. Rassolov,  L. V. Slipchenko,  J. E. Subotnik,  T. Van Voorhis,  
 J. M. Herbert,  A. I. Krylov,  P. M. W. Gill,  M. Head-Gordon

 Contributors to earlier versions of Q-Chem not listed above: 
 R. D. Adamson,  B. Austin,  J. Baker,  G. J. O. Beran,  K. Brandhorst,  
 S. T. Brown,  E. F. C. Byrd,  A. K. Chakraborty,  C.-L. Cheng,  
 Siu Hung Chien,  D. M. Chipman,  D. L. Crittenden,  H. Dachsel,  
 R. A. DiStasio Jr.,  R. J. Doerksen,  A. D. Dutoi,  L. Fusti-Molnar,  
 W. A. Goddard III,  A. Golubeva-Zadorozhnaya,  S. R. Gwaltney,  G. Hawkins,  
 A. Heyden,  S. Hirata,  G. Kedziora,  F. J. Keil,  C. Kelley,  Jihan Kim,  
 R. A. King,  R. Z. Khaliullin,  P. P. Korambath,  W. Kurlancheek,  
 A. M. Lee,  M. S. Lee,  S. V. Levchenko,  Ching Yeh Lin,  D. Liotard,  
 R. C. Lochan,  I. Lotan,  P. E. Maslen,  N. Nair,  D. P. O'Neill,  
 D. Neuhauser,  E. Neuscamman,  C. M. Oana,  R. Olson,  B. Peters,  
 R. Peverati,  P. A. Pieniazek,  Y. M. Rhee,  J. Ritchie,  M. A. Rohrdanz,  
 E. Rosta,  N. J. Russ,  H. F. Schaefer III,  N. E. Schultz,  N. Shenvi,  
 A. C. Simmonett,  A. Sodt,  D. Stuck,  K. S. Thanthiriwatte,  V. Vanovschi,  
 Tao Wang,  A. Warshel,  C. F. Williams,  Q. Wu,  X. Xu,  W. Zhang

 Please cite Q-Chem as follows:
 Y. Shao et al., Mol. Phys. 113, 184-215 (2015)
 DOI: 10.1080/00268976.2014.952696

 Q-Chem 5.0.1 for Intel X86 EM64T Linux

 Parts of Q-Chem use Armadillo 5.200.1 (Boston Tea Smuggler).
 http://arma.sourceforge.net/

 Q-Chem begins on Mon Apr  2 02:15:46 2018  

Host: vega03.cac.cornell.edu
0

     Scratch files written to /scratch/jj585/vdw/11n11_distance_4.900_11.save//
 Parallel job on  1  processors

Checking the input file for inconsistencies... 	...done.

--------------------------------------------------------------
User input:
--------------------------------------------------------------
$molecule
0  1
--
0  1
C        -0.54444000        -0.68370000        -0.06689000
C        -0.55709000        +0.71878000        +0.05493000
C        +0.74969000        -1.43776000        -0.09374000
C        +0.72843000        +1.48436000        +0.06598000
O        +1.53645000        -1.09176000        +0.94813000
O        +1.04702000        -2.28405000        -0.90088000
O        +1.53784000        +1.08301000        -0.93877000
O        +1.01035000        +2.37097000        +0.83478000
C        +2.83449000        +1.70121000        -0.99358000
C        +2.82316000        -1.73208000        +1.00475000
C        -1.74320000        -1.41616000        -0.12552000
C        -2.93952000        -0.70056000        -0.05285000
C        -2.95313000        +0.68255000        +0.06934000
C        -1.77161000        +1.42404000        +0.12810000
H        +2.73835000        +2.77989000        -1.12464000
H        +2.70778000        -2.81319000        +1.09555000
H        -3.90354000        +1.20325000        +0.11710000
H        +3.38998000        +1.50093000        -0.07544000
H        +3.33184000        +1.25269000        -1.85067000
H        +3.31095000        -1.32281000        +1.88650000
H        +3.39889000        -1.50934000        +0.10459000
H        -3.87892000        -1.24211000        -0.08988000
C        -1.83960000        +2.92746000        +0.24839000
C        -1.78103000        -2.92226000        -0.24590000
H        -1.39752000        -3.25223000        -1.21323000
H        -2.80572000        -3.28175000        -0.13627000
H        -1.16958000        -3.40777000        +0.51926000
H        -1.24214000        +3.42352000        -0.52065000
H        -1.45503000        +3.26427000        +1.21284000
H        -2.87211000        +3.26623000        +0.14638000
--
0  1
C        -0.51072000        -1.11094000        +4.81433000
C        -0.52337000        +0.29154000        +4.93615000
C        +0.78341000        -1.86500000        +4.78748000
C        +0.76215000        +1.05712000        +4.94720000
O        +1.57017000        -1.51900000        +5.82935000
O        +1.08074000        -2.71129000        +3.98034000
O        +1.57156000        +0.65577000        +3.94245000
O        +1.04407000        +1.94373000        +5.71600000
C        +2.86821000        +1.27397000        +3.88764000
C        +2.85688000        -2.15932000        +5.88597000
C        -1.70948000        -1.84340000        +4.75570000
C        -2.90580000        -1.12780000        +4.82837000
C        -2.91941000        +0.25531000        +4.95056000
C        -1.73789000        +0.99680000        +5.00932000
H        +2.77207000        +2.35265000        +3.75658000
H        +2.74150000        -3.24043000        +5.97677000
H        -3.86982000        +0.77601000        +4.99832000
H        +3.42370000        +1.07369000        +4.80578000
H        +3.36556000        +0.82545000        +3.03055000
H        +3.34467000        -1.75005000        +6.76772000
H        +3.43261000        -1.93658000        +4.98581000
H        -3.84520000        -1.66935000        +4.79134000
C        -1.80588000        +2.50022000        +5.12961000
C        -1.74731000        -3.34950000        +4.63532000
H        -1.36380000        -3.67947000        +3.66799000
H        -2.77200000        -3.70899000        +4.74495000
H        -1.13586000        -3.83501000        +5.40048000
H        -1.20842000        +2.99628000        +4.36057000
H        -1.42131000        +2.83703000        +6.09406000
H        -2.83839000        +2.83899000        +5.02760000
$end

$rem
JOBTYPE                   SP
METHOD                    B3LYP
DFT_D                     d3_op
BASIS                     6-311++G(d,p)
SYMMETRY                  False
THRESH                    12
SCF_CONVERGENCE           8
MAX_SUB_FILE_NUM          128
MEM_STATIC                400
MEM_TOTAL                 4000
$end
--------------------------------------------------------------
 Adding empirical dispersion correction 
 ----------------------------------------------------------------
 Doing -D3(op) with
 s6 =   1.00000
 s8 =   0.78311
 a1 =   0.30000
 a2 =   4.25000
 n  =  10.00000
 -D3 energy without 3body term =     -0.0764351052 hartrees
 ----------------------------------------------------------------
             Standard Nuclear Orientation (Angstroms)
    I     Atom           X                Y                Z
 ----------------------------------------------------------------
    1      C      -2.4021527234     0.4899884989     0.8911204887
    2      C      -2.5069015229     0.5548019378    -0.5112978485
    3      C      -2.2909049726    -0.8304087937     1.5898871097
    4      C      -2.6019582346    -0.7022454540    -1.3172709161
    5      O      -1.3078044419    -1.5844609418     1.0521891472
    6      O      -2.9480007585    -1.1728993086     2.5422590160
    7      O      -3.5187394004    -1.5443302778    -0.7917669896
    8      O      -1.9816147219    -0.9378283251    -2.3253801639
    9      C      -3.6550285851    -2.8189879965    -1.4422664567
   10      C      -1.1325025890    -2.8918167834     1.6257116966
   11      C      -2.3582346437     1.6606211496     1.6687136120
   12      C      -2.4168185279     2.8827898687     0.9968375952
   13      C      -2.5181096420     2.9478808854    -0.3864961209
   14      C      -2.5635716916     1.7947977406    -1.1723600603
   15      H      -3.9585486776    -2.6870623436    -2.4817092599
   16      H      -0.8710865472    -2.8132445064     2.6820469023
   17      H      -2.5668306772     3.9169374593    -0.8715160102
   18      H      -2.7094936477    -3.3637274537    -1.4125194547
   19      H      -4.4225790563    -3.3481417992    -0.8819156663
   20      H      -0.3214776501    -3.3479303081     1.0625748744
   21      H      -2.0491437263    -3.4762387506     1.5278027813
   22      H      -2.3788031855     3.8014704515     1.5727723170
   23      C      -2.6867327835     1.9184659203    -2.6719938648
   24      C      -2.2361123966     1.6425900199     3.1750405017
   25      H      -3.1329555721     1.2293069716     3.6403972364
   26      H      -2.0836424936     2.6557466850     3.5512158513
   27      H      -1.3951139472     1.0288927387     3.5084443759
   28      H      -3.5174908077     1.3245367003    -3.0612825542
   29      H      -1.7838147785     1.5644814408    -3.1729259241
   30      H      -2.8551810689     2.9602460524    -2.9505030827
   31      C       2.4844507731     0.5337175756     0.5317129483
   32      C       2.3797019736     0.5985310145    -0.8707053889
   33      C       2.5956985239    -0.7866797169     1.2304795693
   34      C       2.2846452619    -0.6585163773    -1.6766784565
   35      O       3.5787990546    -1.5407318651     0.6927816067
   36      O       1.9386027380    -1.1291702319     2.1828514756
   37      O       1.3678640962    -1.5006012010    -1.1511745300
   38      O       2.9049887746    -0.8940992484    -2.6847877043
   39      C       1.2315749115    -2.7752589198    -1.8016739971
   40      C       3.7541009075    -2.8480877067     1.2663041562
   41      C       2.5283688528     1.7043502264     1.3093060716
   42      C       2.4697849686     2.9265189454     0.6374300548
   43      C       2.3684938545     2.9916099621    -0.7459036613
   44      C       2.3230318049     1.8385268173    -1.5317676007
   45      H       0.9280548189    -2.6433332668    -2.8411168003
   46      H       4.0155169493    -2.7695154296     2.3226393619
   47      H       2.3197728193     3.9606665360    -1.2309235506
   48      H       2.1771098488    -3.3199983769    -1.7719269951
   49      H       0.4640244402    -3.3044127225    -1.2413232067
   50      H       4.5651258464    -3.3042012314     0.7031673340
   51      H       2.8374597702    -3.4325096739     1.1683952409
   52      H       2.5078003111     3.8451995283     1.2133647766
   53      C       2.1998707130     1.9621949970    -3.0314014052
   54      C       2.6504910999     1.6863190966     2.8156329612
   55      H       1.7536479244     1.2730360483     3.2809896959
   56      H       2.8029610029     2.6994757617     3.1918083109
   57      H       3.4914895493     1.0726218154     3.1490368355
   58      H       1.3691126888     1.3682657771    -3.4206900946
   59      H       3.1027887180     1.6082105175    -3.5323334646
   60      H       2.0314224276     3.0039751292    -3.3099106231
 ----------------------------------------------------------------
 Molecular Point Group                 C1    NOp =  1
 Largest Abelian Subgroup              C1    NOp =  1
 Nuclear Repulsion Energy =  3539.6376032096 hartrees
 There are      118 alpha and      118 beta electrons
 Requested basis set is 6-311++G(d,p)
 There are 332 shells and 900 basis functions

 Total QAlloc Memory Limit   4000 MB
 Mega-Array Size       392 MB
 MEM_STATIC part       400 MB
 A cutoff of  1.0D-12 yielded  38717 shell pairs
 There are    285423 function pairs (    302815 Cartesian)
 
 -------------------------------------------------------
 OpenMP Integral Computing Module                       
 Release: version 1.0, May 2013, Q-Chem Inc. Pittsburgh 
 -------------------------------------------------------
 Integral Job Info:
 Integral job number is                      11
 Integral operator is                         1
 short-range coefficients                     0
 long-range coefficients              100000000
 Omega coefficients                           0
 if combine SR and LR in K                    0
 Integral screening is                        0
 Integral computing path is                   2
 max size of driver memory is            800000
 size of driver memory is                593474
 size of scratch memory is              2361544
 max col of scratch BK array               1296
 max len of scratch array in speh3          155
 max len of scratch index in speh4           18
 max int batch size is                      520
 min int batch size is                       52
 fixed nKL is                                52
 max L of basis functions is                  2
 order of int derivative is                   0
 number of shells is                        332
 number of basis is                         932
 number of cartesian basis is               932
 number of contracted shell pairs         38717
 number of primitive shell pairs          82675
 maxK2 (contraction) of shell pair           36
 max number of K2 of shell pair               1
 max number of CS2 of shell pair           7854
 max number of PS2 of shell pair          13110
 mem total for path MDJ                  538296
 -------------------------------------------------------
 Smallest overlap matrix eigenvalue = 1.50E-08
 Linear dependence detected in AO basis
 Number of orthogonalized atomic orbitals = 889
 Maximum deviation from orthogonality = 9.944E-11

 Scale SEOQF with 1.000000e-01/1.000000e-01/1.000000e-01

 Standard Electronic Orientation quadrupole field applied
 Nucleus-field energy     =     0.0000000353 hartrees
 Guess from superposition of atomic densities
 Warning:  Energy on first SCF cycle will be non-variational
 A restricted hybrid HF-DFT SCF calculation will be
 performed using Pulay DIIS extrapolation
 Exchange:     0.2000 Hartree-Fock + 0.0800 Slater + 0.7200 B88
 Correlation:  0.1900 VWN1RPA + 0.8100 LYP
 Using SG-1 standard quadrature grid
 Dispersion:   Grimme D3
 SCF converges when DIIS error is below 1.0E-08
 using 2 threads for integral computing
 -------------------------------------------------------
 OpenMP Integral computing Module                
 Release: version 1.0, May 2013, Q-Chem Inc. Pittsburgh 
 -------------------------------------------------------
 -------------------------------------------------------
 OpenMP BLAS3 based DFT computing Module                
 Release: version 1.0, May 2013, Q-Chem Inc. Pittsburgh 
 -------------------------------------------------------
 ---------------------------------------
  Cycle       Energy         DIIS Error
 ---------------------------------------
    1   -1540.3963761441      2.16E-02
    2   -1533.1075921502      2.78E-03
    3   -1532.0930202998      4.69E-03
    4   -1533.6384143462      1.21E-03
    5   -1533.7551341319      2.74E-04
    6   -1533.7596699358      1.25E-04
    7   -1533.7608111261      2.84E-05
    8   -1533.7608529786      1.70E-05
    9   -1533.7608729604      3.24E-06
   10   -1533.7608737354      8.67E-07
   11   -1533.7608737960      3.02E-07
   12   -1533.7608738038      1.12E-07
   13   -1533.7608738046      4.21E-08
   14   -1533.7608738045      9.60E-09 Convergence criterion met
 ---------------------------------------
 SCF time:  CPU 4703.38 s  wall 2361.86 s
 SCF   energy in the final basis set = -1533.76087380
 Total energy in the final basis set = -1533.76087380
 
 --------------------------------------------------------------
 
                    Orbital Energies (a.u.)
 --------------------------------------------------------------
 
 Alpha MOs
 -- Occupied --
-19.176 -19.175 -19.169 -19.168 -19.119 -19.118 -19.113 -19.112
-10.310 -10.310 -10.305 -10.304 -10.233 -10.232 -10.226 -10.225
-10.202 -10.202 -10.201 -10.201 -10.198 -10.198 -10.198 -10.197
-10.184 -10.183 -10.183 -10.183 -10.170 -10.169 -10.166 -10.166
 -1.119  -1.118  -1.109  -1.108  -1.030  -1.030  -1.024  -1.023
 -0.882  -0.882  -0.804  -0.804  -0.792  -0.792  -0.744  -0.743
 -0.731  -0.731  -0.722  -0.721  -0.672  -0.672  -0.646  -0.646
 -0.617  -0.617  -0.574  -0.574  -0.562  -0.560  -0.534  -0.533
 -0.515  -0.514  -0.511  -0.511  -0.489  -0.489  -0.484  -0.483
 -0.479  -0.475  -0.474  -0.472  -0.467  -0.465  -0.442  -0.438
 -0.433  -0.430  -0.428  -0.425  -0.419  -0.416  -0.413  -0.413
 -0.409  -0.408  -0.403  -0.402  -0.393  -0.392  -0.385  -0.384
 -0.378  -0.377  -0.370  -0.368  -0.359  -0.358  -0.356  -0.355
 -0.354  -0.353  -0.319  -0.318  -0.308  -0.307  -0.292  -0.292
 -0.288  -0.286  -0.264  -0.261  -0.251  -0.248
 -- Virtual --
 -0.056  -0.053  -0.033  -0.029  -0.016  -0.010  -0.005   0.001
  0.006   0.008   0.013   0.014   0.015   0.018   0.020   0.022
  0.026   0.027   0.029   0.033   0.034   0.040   0.042   0.043
  0.046   0.048   0.049   0.052   0.053   0.057   0.062   0.062
  0.067   0.068   0.069   0.075   0.078   0.081   0.086   0.090
  0.091   0.094   0.095   0.096   0.102   0.104   0.105   0.107
  0.108   0.109   0.110   0.111   0.116   0.120   0.120   0.123
  0.123   0.126   0.127   0.131   0.132   0.133   0.134   0.139
  0.140   0.141   0.142   0.142   0.143   0.145   0.147   0.149
  0.149   0.151   0.151   0.154   0.156   0.157   0.160   0.162
  0.168   0.170   0.170   0.172   0.174   0.174   0.175   0.178
  0.181   0.183   0.187   0.188   0.189   0.194   0.194   0.197
  0.200   0.200   0.201   0.204   0.207   0.208   0.210   0.214
  0.215   0.219   0.221   0.222   0.223   0.226   0.228   0.229
  0.231   0.233   0.235   0.238   0.239   0.242   0.245   0.245
  0.250   0.251   0.254   0.255   0.257   0.261   0.262   0.266
  0.270   0.270   0.272   0.274   0.274   0.277   0.278   0.281
  0.283   0.285   0.286   0.287   0.290   0.293   0.300   0.305
  0.307   0.311   0.312   0.313   0.315   0.317   0.317   0.322
  0.327   0.329   0.332   0.333   0.335   0.337   0.340   0.341
  0.342   0.348   0.350   0.352   0.355   0.357   0.364   0.367
  0.368   0.370   0.377   0.377   0.379   0.380   0.384   0.387
  0.391   0.392   0.394   0.398   0.401   0.403   0.404   0.405
  0.411   0.418   0.419   0.419   0.426   0.427   0.428   0.429
  0.439   0.441   0.443   0.449   0.458   0.460   0.463   0.469
  0.478   0.479   0.479   0.488   0.502   0.504   0.506   0.510
  0.517   0.518   0.525   0.531   0.531   0.535   0.538   0.544
  0.549   0.551   0.556   0.565   0.568   0.572   0.575   0.577
  0.579   0.582   0.584   0.586   0.590   0.593   0.599   0.601
  0.605   0.610   0.614   0.616   0.617   0.621   0.625   0.628
  0.631   0.641   0.643   0.645   0.653   0.657   0.659   0.664
  0.666   0.674   0.674   0.678   0.678   0.680   0.682   0.686
  0.687   0.690   0.695   0.697   0.698   0.704   0.708   0.709
  0.712   0.716   0.720   0.726   0.730   0.733   0.733   0.740
  0.741   0.744   0.752   0.754   0.754   0.757   0.763   0.767
  0.770   0.775   0.778   0.784   0.791   0.793   0.794   0.802
  0.806   0.807   0.811   0.817   0.820   0.823   0.825   0.833
  0.836   0.839   0.840   0.851   0.864   0.865   0.870   0.876
  0.894   0.898   0.905   0.918   0.921   0.932   0.936   0.940
  0.945   0.948   0.963   0.968   0.981   0.987   0.994   0.997
  1.008   1.008   1.015   1.019   1.029   1.039   1.045   1.054
  1.057   1.064   1.065   1.074   1.082   1.086   1.091   1.097
  1.099   1.100   1.108   1.110   1.134   1.147   1.149   1.151
  1.159   1.178   1.180   1.186   1.195   1.206   1.209   1.211
  1.218   1.226   1.237   1.239   1.251   1.255   1.258   1.264
  1.268   1.277   1.282   1.290   1.296   1.301   1.312   1.315
  1.322   1.327   1.331   1.336   1.344   1.352   1.363   1.369
  1.371   1.384   1.385   1.389   1.397   1.398   1.411   1.414
  1.417   1.419   1.433   1.434   1.436   1.440   1.453   1.461
  1.466   1.472   1.479   1.482   1.482   1.485   1.488   1.494
  1.497   1.503   1.506   1.517   1.529   1.533   1.536   1.539
  1.550   1.557   1.559   1.563   1.565   1.574   1.576   1.580
  1.584   1.592   1.595   1.601   1.603   1.608   1.609   1.616
  1.618   1.622   1.630   1.630   1.640   1.641   1.646   1.648
  1.653   1.656   1.667   1.669   1.671   1.684   1.688   1.699
  1.707   1.708   1.720   1.723   1.727   1.728   1.733   1.738
  1.739   1.744   1.749   1.750   1.763   1.777   1.782   1.786
  1.786   1.789   1.800   1.803   1.808   1.809   1.819   1.821
  1.822   1.838   1.842   1.844   1.845   1.852   1.857   1.873
  1.877   1.890   1.892   1.894   1.903   1.905   1.911   1.921
  1.926   1.931   1.940   1.958   1.961   1.971   1.975   1.993
  1.995   2.014   2.016   2.023   2.030   2.043   2.044   2.057
  2.065   2.072   2.081   2.090   2.095   2.102   2.106   2.114
  2.119   2.129   2.133   2.135   2.141   2.145   2.146   2.166
  2.167   2.180   2.181   2.187   2.189   2.202   2.213   2.221
  2.228   2.251   2.256   2.284   2.305   2.308   2.316   2.329
  2.334   2.336   2.337   2.345   2.345   2.413   2.422   2.425
  2.435   2.458   2.459   2.488   2.489   2.493   2.494   2.502
  2.512   2.514   2.517   2.525   2.527   2.529   2.533   2.538
  2.557   2.560   2.566   2.569   2.573   2.585   2.587   2.594
  2.596   2.598   2.599   2.604   2.616   2.617   2.627   2.629
  2.632   2.637   2.657   2.661   2.662   2.666   2.672   2.683
  2.686   2.698   2.710   2.711   2.713   2.730   2.733   2.736
  2.753   2.767   2.774   2.776   2.779   2.803   2.806   2.811
  2.814   2.815   2.820   2.835   2.851   2.857   2.861   2.864
  2.883   2.887   2.892   2.894   2.907   2.910   2.915   2.917
  2.925   2.927   2.931   2.933   2.944   2.946   2.958   2.967
  2.969   2.989   2.993   3.020   3.027   3.044   3.047   3.054
  3.063   3.069   3.074   3.081   3.088   3.102   3.105   3.116
  3.117   3.141   3.144   3.156   3.157   3.194   3.203   3.218
  3.225   3.232   3.236   3.244   3.247   3.248   3.255   3.268
  3.273   3.276   3.289   3.299   3.303   3.329   3.341   3.392
  3.393   3.400   3.402   3.462   3.467   3.478   3.481   3.528
  3.538   3.592   3.597   3.616   3.619   3.630   3.631   3.699
  3.703   3.731   3.743   3.779   3.782   3.784   3.799   3.799
  3.800   3.801   3.804   3.804   3.815   3.833   3.838   3.860
  3.861   3.886   3.888   3.905   3.913   3.964   3.981   4.057
  4.059   4.078   4.081   4.089   4.094   4.140   4.149   4.165
  4.188   4.240   4.245   4.330   4.336   4.358   4.372   4.393
  4.396   4.867   4.872   5.074   5.085   5.122   5.171   5.189
  5.199   5.216   5.262   5.269   5.277   5.297   5.302   5.412
  5.418   5.448   5.474   5.627   5.631   5.640   5.645   5.897
  5.897   5.916   5.930  23.555  23.635  23.860  23.865  23.874
 23.888  23.920  23.935  23.938  23.943  23.946  23.954  23.955
 23.958  23.970  23.996  24.003  24.049  24.069  24.071  24.080
 24.082  24.170  24.175  49.898  49.907  49.941  49.946  50.021
 50.033  50.042  50.045
 --------------------------------------------------------------
 
          Ground-State Mulliken Net Atomic Charges

     Atom                 Charge (a.u.)
  ----------------------------------------
      1 C                     0.270082
      2 C                     0.367235
      3 C                    -0.544071
      4 C                    -0.835260
      5 O                     0.139208
      6 O                    -0.145395
      7 O                     0.097567
      8 O                    -0.096554
      9 C                    -0.159431
     10 C                    -0.317741
     11 C                     0.476923
     12 C                    -0.356552
     13 C                    -0.340164
     14 C                     0.345785
     15 H                     0.165475
     16 H                     0.200135
     17 H                     0.162525
     18 H                     0.177651
     19 H                     0.171953
     20 H                     0.090632
     21 H                     0.191126
     22 H                     0.159558
     23 C                    -0.632375
     24 C                    -0.634643
     25 H                     0.214277
     26 H                     0.128591
     27 H                     0.203356
     28 H                     0.174140
     29 H                     0.189522
     30 H                     0.138958
     31 C                     0.340484
     32 C                     0.293029
     33 C                    -0.870856
     34 C                    -0.533438
     35 O                     0.112699
     36 O                    -0.085133
     37 O                     0.111076
     38 O                    -0.145329
     39 C                    -0.321159
     40 C                    -0.150802
     41 C                     0.347571
     42 C                    -0.333442
     43 C                    -0.350151
     44 C                     0.482187
     45 H                     0.203065
     46 H                     0.164342
     47 H                     0.159501
     48 H                     0.195135
     49 H                     0.089285
     50 H                     0.171353
     51 H                     0.176753
     52 H                     0.163246
     53 C                    -0.630011
     54 C                    -0.639954
     55 H                     0.190279
     56 H                     0.139807
     57 H                     0.174342
     58 H                     0.202924
     59 H                     0.213338
     60 H                     0.127348
  ----------------------------------------
  Sum of atomic charges =     0.000000

 -----------------------------------------------------------------
                    Cartesian Multipole Moments
 -----------------------------------------------------------------
    Charge (ESU x 10^10)
                 0.0000
    Dipole Moment (Debye)
         X       0.1967      Y      -0.0687      Z       0.1798
       Tot       0.2752
    Quadrupole Moments (Debye-Ang)
        XX    -194.7440     XY      -1.4554     YY    -154.8916
        XZ      17.7863     YZ       1.7456     ZZ    -196.9683
    Octopole Moments (Debye-Ang^2)
       XXX       5.0932    XXY     -46.7277    XYY       3.1760
       YYY     -85.5188    XXZ      -1.1171    XYZ     -28.7698
       YYZ      -5.6719    XZZ      -1.4240    YZZ      19.0748
       ZZZ       6.9911
    Hexadecapole Moments (Debye-Ang^3)
      XXXX   -7673.8002   XXXY     -30.0181   XXYY   -1786.3355
      XYYY      -6.4463   YYYY   -4120.0705   XXXZ     341.7271
      XXYZ      12.3874   XYYZ      59.9845   YYYZ       9.6384
      XXZZ   -1979.0010   XYZZ      -3.2701   YYZZ   -1332.6997
      XZZZ     116.7796   YZZZ      10.3717   ZZZZ   -4046.2848
 -----------------------------------------------------------------
Archival summary:
1\1\vega03.cac.cornell.edu\SP\ProcedureUnspecified\BasisUnspecified\82428\jj585\MonApr202:55:112018MonApr202:55:112018\0\\#,ProcedureUnspecified,BasisUnspecified,\\0,1\O\C,1,1.35063\O,2,1.20668,1,123.512\C,1,1.43835,2,115.94,3,4.13325,0\H,4,1.08762,1,105.403,2,179.104,0\H,4,1.09103,1,110.475,2,-61.3232,0\H,4,1.0915,1,110.399,2,59.3962,0\C,2,1.49803,1,111.128,3,177.348,0\C,8,1.40604,2,118.266,1,-126.75,0\C,9,1.3959,8,117.481,2,177.84,0\H,10,1.08495,9,118.972,8,-179.641,0\C,10,1.38856,9,121.575,8,0.160349,0\H,12,1.08475,10,119.38,9,179.653,0\C,12,1.39616,10,121.629,9,-0.129654,0\C,14,1.40634,12,117.536,10,0.183585,0\C,15,1.49626,14,119.012,12,177.857,0\O,16,1.2069,15,125.54,14,47.3939,0\O,16,1.3512,15,110.928,14,-130.615,0\C,18,1.43752,16,116.164,15,-177.05,0\H,19,1.08772,18,105.376,16,179.706,0\H,19,1.09086,18,110.507,16,-60.681,0\H,19,1.09163,18,110.367,16,60.0909,0\C,14,1.50976,12,119.611,10,179.442,0\H,23,1.09144,14,110.135,12,-7.24194,0\H,23,1.09156,14,111.21,12,113.289,0\H,23,1.09291,14,111.796,12,-127.427,0\C,9,1.51138,8,122.941,2,-1.44272,0\H,27,1.09144,9,110.104,8,172.262,0\H,27,1.09164,9,111.284,8,-67.2422,0\H,27,1.09319,9,111.89,8,52.1865,0\H,5,2.43451,4,136.31,1,-34.8775,0\C,31,1.08772,5,136.377,4,97.8964,0\H,32,1.09086,31,110.694,5,-149.893,0\H,32,1.09163,31,110.757,5,88.9522,0\O,32,1.43752,31,105.376,5,-30.4032,0\C,35,1.3512,32,116.164,31,179.706,0\O,36,1.2069,35,123.501,32,4.8931,0\C,36,1.49626,35,110.928,32,-177.05,0\C,38,1.40634,36,119.012,35,-130.615,0\C,39,1.39616,38,117.536,36,177.857,0\H,40,1.08475,39,118.991,38,-179.6,0\C,40,1.38856,39,121.629,38,0.183585,0\H,42,1.08495,40,119.453,39,179.671,0\C,42,1.3959,40,121.575,39,-0.129654,0\C,44,1.40604,42,117.481,40,0.160349,0\C,45,1.49803,44,118.266,42,177.84,0\O,46,1.20668,45,125.302,44,50.5403,0\O,46,1.35063,45,111.128,44,-126.75,0\C,48,1.43835,46,115.94,45,-178.519,0\H,49,1.08762,48,105.403,46,179.104,0\H,49,1.09103,48,110.475,46,-61.3232,0\H,49,1.0915,48,110.399,46,59.3962,0\C,39,1.50976,38,122.848,36,-1.37569,0\H,53,1.09144,39,110.135,38,171.975,0\H,53,1.09156,39,111.21,38,-67.4939,0\H,53,1.09291,39,111.796,38,51.7903,0\C,44,1.51138,42,119.574,40,179.468,0\H,57,1.09144,44,110.104,42,-7.00566,0\H,57,1.09164,44,111.284,42,113.49,0\H,57,1.09319,44,111.89,42,-127.081,0\\\@

 Total job time:  2364.39s(wall), 4706.52s(cpu) 
 Mon Apr  2 02:55:11 2018

        *************************************************************
        *                                                           *
        *  Thank you very much for using Q-Chem.  Have a nice day.  *
        *                                                           *
        *************************************************************


0 sent ACK to 0 
now end server 0 ... 
