mFile = /opt/software/qchem/qchem-5.0.1//bin/mpi/machines
Process 0 of 1 is on vega03.cac.cornell.edu - thread support 0
initial socket setup ...start
initial socket setup ...done 
now start server 0 ... 
vega03 10.84.3
Q-Chem Developer Version! Running on 10.84.3.*
                  Welcome to Q-Chem
     A Quantum Leap Into The Future Of Chemistry


 Q-Chem 5.0, Q-Chem, Inc., Pleasanton, CA (2017)

 Yihan Shao,  Zhengting Gan,  E. Epifanovsky,  A. T. B. Gilbert,  M. Wormit,  
 J. Kussmann,  A. W. Lange,  A. Behn,  Jia Deng,  Xintian Feng,  D. Ghosh,  
 M. Goldey,  P. R. Horn,  L. D. Jacobson,  I. Kaliman,  T. Kus,  A. Landau,  
 Jie Liu,  E. I. Proynov,  R. M. Richard,  R. P. Steele,  E. J. Sundstrom,  
 H. L. Woodcock III,  P. M. Zimmerman,  D. Zuev,  B. Albrecht,  E. Alguire,  
 S. A. Baeppler,  Z. Benda,  Y. A. Bernard,  E. J. Berquist,  K. B. Bravaya,  
 D. Casanova,  Chun-Min Chang,  Yunqing Chen,  A. Chien,  K. D. Closser,  
 M. P. Coons,  S. Dasgupta,  M. Diedenhofen,  Hainam Do,  R. G. Edgar,  
 Po-Tung Fang,  S. Fatehi,  Qingguo Feng,  Qinghui Ge,  A. Ghysels,  
 J. Gomes,  J. Gonthier,  A. Gunina,  M. W. D. Hanson-Heine,  
 P. H. P. Harbach,  A. W. Hauser,  J. E. Herr,  E. G. Hohenstein,  
 Z. C. Holden,  Kerwin Hui,  T.-C. Jagau,  Hyunjun Ji,  B. Kaduk,  
 K. Khistyaev,  Jaehoon Kim,  P. Klunzinger,  K. Koh,  D. Kosenkov,  
 T. Kowalczyk,  C. M. Krauter,  A. Kunitsa,  Ka Un Lao,  A. Laurent,  
 K. V. Lawler,  Joonho Lee,  D. Lefrancois,  S. Lehtola,  D. S. Levine,  
 Yi-Pei Li,  You-Sheng Lin,  Fenglai Liu,  E. Livshits,  A. Luenser,  
 P. Manohar,  E. Mansoor,  S. F. Manzer,  Shan-Ping Mao,  Yuezhi Mao,  
 N. Mardirossian,  A. V. Marenich,  L. A. Martinez-Martinez,  S. A. Maurer,  
 N. J. Mayhall,  S. C. McKenzie,  J.-M. Mewes,  A. F. Morrison,  K. Nanda,  
 T. S. Nguyen-Beck,  R. Olivares-Amaya,  J. A. Parkhill,  T. M. Perrine,  
 F. Plasser,  S. Prager,  A. Prociuk,  D. R. Rehn,  F. Rob,  M. Schneider,  
 N. Sergueev,  S. M. Sharada,  S. Sharma,  D. W. Small,  T. Stauch,  
 T. Stein,  Yu-Chuan Su,  A. J. W. Thom,  T. Tsuchimochi,  L. Vogt,  
 O. Vydrov,  M. A. Watson,  J. Wenzel,  M. de Wergifosse,  T. A. Wesolowski,  
 A. White,  J. Witte,  A. Yamada,  Jun Yang,  K. Yao,  S. Yeganeh,  
 S. R. Yost,  Zhi-Qiang You,  A. Zech,  Igor Ying Zhang,  Xing Zhang,  
 Yan Zhao,  Ying Zhu,  B. R. Brooks,  G. K. L. Chan,  C. J. Cramer,  
 M. S. Gordon,  W. J. Hehre,  A. Klamt,  M. W. Schmidt,  C. D. Sherrill,  
 D. G. Truhlar,  A. Aspuru-Guzik,  R. Baer,  A. T. Bell,  N. A. Besley,  
 Jeng-Da Chai,  A. Dreuw,  B. D. Dunietz,  T. R. Furlani,  Chao-Ping Hsu,  
 Yousung Jung,  Jing Kong,  D. S. Lambrecht,  WanZhen Liang,  C. Ochsenfeld,  
 V. A. Rassolov,  L. V. Slipchenko,  J. E. Subotnik,  T. Van Voorhis,  
 J. M. Herbert,  A. I. Krylov,  P. M. W. Gill,  M. Head-Gordon

 Contributors to earlier versions of Q-Chem not listed above: 
 R. D. Adamson,  B. Austin,  J. Baker,  G. J. O. Beran,  K. Brandhorst,  
 S. T. Brown,  E. F. C. Byrd,  A. K. Chakraborty,  C.-L. Cheng,  
 Siu Hung Chien,  D. M. Chipman,  D. L. Crittenden,  H. Dachsel,  
 R. A. DiStasio Jr.,  R. J. Doerksen,  A. D. Dutoi,  L. Fusti-Molnar,  
 W. A. Goddard III,  A. Golubeva-Zadorozhnaya,  S. R. Gwaltney,  G. Hawkins,  
 A. Heyden,  S. Hirata,  G. Kedziora,  F. J. Keil,  C. Kelley,  Jihan Kim,  
 R. A. King,  R. Z. Khaliullin,  P. P. Korambath,  W. Kurlancheek,  
 A. M. Lee,  M. S. Lee,  S. V. Levchenko,  Ching Yeh Lin,  D. Liotard,  
 R. C. Lochan,  I. Lotan,  P. E. Maslen,  N. Nair,  D. P. O'Neill,  
 D. Neuhauser,  E. Neuscamman,  C. M. Oana,  R. Olson,  B. Peters,  
 R. Peverati,  P. A. Pieniazek,  Y. M. Rhee,  J. Ritchie,  M. A. Rohrdanz,  
 E. Rosta,  N. J. Russ,  H. F. Schaefer III,  N. E. Schultz,  N. Shenvi,  
 A. C. Simmonett,  A. Sodt,  D. Stuck,  K. S. Thanthiriwatte,  V. Vanovschi,  
 Tao Wang,  A. Warshel,  C. F. Williams,  Q. Wu,  X. Xu,  W. Zhang

 Please cite Q-Chem as follows:
 Y. Shao et al., Mol. Phys. 113, 184-215 (2015)
 DOI: 10.1080/00268976.2014.952696

 Q-Chem 5.0.1 for Intel X86 EM64T Linux

 Parts of Q-Chem use Armadillo 5.200.1 (Boston Tea Smuggler).
 http://arma.sourceforge.net/

 Q-Chem begins on Tue Apr 17 00:54:14 2018  

Host: vega03.cac.cornell.edu
0

     Scratch files written to /scratch/jj585/vdw/01n00_distance_5.200_01.save//
 Parallel job on  1  processors

Checking the input file for inconsistencies... 	...done.

--------------------------------------------------------------
User input:
--------------------------------------------------------------
$molecule
0  1
C        -0.72216000        -1.05549000        +5.11676000
C        -0.73481000        +0.34699000        +5.23858000
C        -1.92092000        -1.78795000        +5.05813000
C        -3.11724000        -1.07235000        +5.13080000
C        -3.13085000        +0.31076000        +5.25299000
C        -1.94933000        +1.05225000        +5.31175000
H        -4.08126000        +0.83146000        +5.30075000
H        -4.05664000        -1.61390000        +5.09377000
C        -2.01732000        +2.55567000        +5.43204000
H        -1.41986000        +3.05173000        +4.66300000
H        -1.63275000        +2.89248000        +6.39649000
H        -3.04983000        +2.89444000        +5.33003000
H        -1.91650000        -2.81572000        +4.96490000
H        +0.18053000        -1.55345000        +5.06979000
H        +0.15779000        +0.86370000        +5.27462000
@C        -0.54444000        -0.68370000        -0.06689000
@C        -0.55709000        +0.71878000        +0.05493000
@C        -1.74320000        -1.41616000        -0.12552000
@C        -2.93952000        -0.70056000        -0.05285000
@C        -2.95313000        +0.68255000        +0.06934000
@C        -1.77161000        +1.42404000        +0.12810000
@H        -3.90354000        +1.20325000        +0.11710000
@H        -3.87892000        -1.24211000        -0.08988000
@C        -1.83960000        +2.92746000        +0.24839000
@H        -1.24214000        +3.42352000        -0.52065000
@H        -1.45503000        +3.26427000        +1.21284000
@H        -2.87211000        +3.26623000        +0.14638000
@H        -1.73878000        -2.44393000        -0.21875000
@H        +0.35825000        -1.18166000        -0.11386000
@H        +0.33551000        +1.23549000        +0.09097000
$end

$rem
JOBTYPE                   SP
METHOD                    B3LYP
DFT_D                     d3_op
BASIS                     6-311++G(d,p)
SYMMETRY                  False
THRESH                    12
SCF_CONVERGENCE           8
MAX_SUB_FILE_NUM          128
MEM_STATIC                400
MEM_TOTAL                 4000
$end
--------------------------------------------------------------
 Adding empirical dispersion correction 
 ----------------------------------------------------------------
 Doing -D3(op) with
 s6 =   1.00000
 s8 =   0.78311
 a1 =   0.30000
 a2 =   4.25000
 n  =  10.00000
 -D3 energy without 3body term =     -0.0113800034 hartrees
 ----------------------------------------------------------------
             Standard Nuclear Orientation (Angstroms)
    I     Atom           X                Y                Z
 ----------------------------------------------------------------
    1      C      -0.7221600000    -1.0554900000     5.1167600000
    2      C      -0.7348100000     0.3469900000     5.2385800000
    3      C      -1.9209200000    -1.7879500000     5.0581300000
    4      C      -3.1172400000    -1.0723500000     5.1308000000
    5      C      -3.1308500000     0.3107600000     5.2529900000
    6      C      -1.9493300000     1.0522500000     5.3117500000
    7      H      -4.0812600000     0.8314600000     5.3007500000
    8      H      -4.0566400000    -1.6139000000     5.0937700000
    9      C      -2.0173200000     2.5556700000     5.4320400000
   10      H      -1.4198600000     3.0517300000     4.6630000000
   11      H      -1.6327500000     2.8924800000     6.3964900000
   12      H      -3.0498300000     2.8944400000     5.3300300000
   13      H      -1.9165000000    -2.8157200000     4.9649000000
   14      H       0.1805300000    -1.5534500000     5.0697900000
   15      H       0.1577900000     0.8637000000     5.2746200000
   16      GH     -0.5444400000    -0.6837000000    -0.0668900000
   17      GH     -0.5570900000     0.7187800000     0.0549300000
   18      GH     -1.7432000000    -1.4161600000    -0.1255200000
   19      GH     -2.9395200000    -0.7005600000    -0.0528500000
   20      GH     -2.9531300000     0.6825500000     0.0693400000
   21      GH     -1.7716100000     1.4240400000     0.1281000000
   22      GH     -3.9035400000     1.2032500000     0.1171000000
   23      GH     -3.8789200000    -1.2421100000    -0.0898800000
   24      GH     -1.8396000000     2.9274600000     0.2483900000
   25      GH     -1.2421400000     3.4235200000    -0.5206500000
   26      GH     -1.4550300000     3.2642700000     1.2128400000
   27      GH     -2.8721100000     3.2662300000     0.1463800000
   28      GH     -1.7387800000    -2.4439300000    -0.2187500000
   29      GH      0.3582500000    -1.1816600000    -0.1138600000
   30      GH      0.3355100000     1.2354900000     0.0909700000
 ----------------------------------------------------------------
 Nuclear Repulsion Energy =   269.2168625664 hartrees
 There are       25 alpha and       25 beta electrons
 Requested basis set is 6-311++G(d,p)
 There are 164 shells and 420 basis functions

 Total QAlloc Memory Limit   4000 MB
 Mega-Array Size       392 MB
 MEM_STATIC part       400 MB
 A cutoff of  1.0D-12 yielded  10708 shell pairs
 There are     69707 function pairs (     73829 Cartesian)
 
 -------------------------------------------------------
 OpenMP Integral Computing Module                       
 Release: version 1.0, May 2013, Q-Chem Inc. Pittsburgh 
 -------------------------------------------------------
 Integral Job Info:
 Integral job number is                      11
 Integral operator is                         1
 short-range coefficients                     0
 long-range coefficients              100000000
 Omega coefficients                           0
 if combine SR and LR in K                    0
 Integral screening is                        0
 Integral computing path is                   2
 max size of driver memory is            800000
 size of driver memory is                593474
 size of scratch memory is              2361544
 max col of scratch BK array               1296
 max len of scratch array in speh3          155
 max len of scratch index in speh4           18
 max int batch size is                      520
 min int batch size is                       52
 fixed nKL is                                52
 max L of basis functions is                  2
 order of int derivative is                   0
 number of shells is                        164
 number of basis is                         434
 number of cartesian basis is               434
 number of contracted shell pairs         10708
 number of primitive shell pairs          23723
 maxK2 (contraction) of shell pair           36
 max number of K2 of shell pair               1
 max number of CS2 of shell pair           2040
 max number of PS2 of shell pair           3330
 mem total for path MDJ                  117498
 -------------------------------------------------------
 Smallest overlap matrix eigenvalue = 5.22E-07
 Linear dependence detected in AO basis
 Number of orthogonalized atomic orbitals = 419
 Maximum deviation from orthogonality = 1.642E-10

 Scale SEOQF with 1.000000e-01/1.000000e-01/1.000000e-02

 Standard Electronic Orientation quadrupole field applied
 Nucleus-field energy     =     0.0000000026 hartrees
 Guess from superposition of atomic densities
 Warning:  Energy on first SCF cycle will be non-variational

 Q-Chem warning in module /opt/software/qchem/qchem-5.0.1/libgen/Atomic_PolEc.C, line 58:

 No atomic polarizability available.


 Q-Chem warning in module /opt/software/qchem/qchem-5.0.1/libgen/Atomic_PolEc.C, line 73:

 No atomic polarizability available.


 Q-Chem warning in module /opt/software/qchem/qchem-5.0.1/libgen/Atomic_PolEc.C, line 58:

 No atomic polarizability available.


 Q-Chem warning in module /opt/software/qchem/qchem-5.0.1/libgen/Atomic_PolEc.C, line 73:

 No atomic polarizability available.


 Q-Chem warning in module /opt/software/qchem/qchem-5.0.1/libgen/Atomic_PolEc.C, line 58:

 No atomic polarizability available.


 Q-Chem warning in module /opt/software/qchem/qchem-5.0.1/libgen/Atomic_PolEc.C, line 73:

 No atomic polarizability available.


 Q-Chem warning in module /opt/software/qchem/qchem-5.0.1/libgen/Atomic_PolEc.C, line 58:

 No atomic polarizability available.


 Q-Chem warning in module /opt/software/qchem/qchem-5.0.1/libgen/Atomic_PolEc.C, line 73:

 No atomic polarizability available.


 Q-Chem warning in module /opt/software/qchem/qchem-5.0.1/libgen/Atomic_PolEc.C, line 58:

 No atomic polarizability available.


 Q-Chem warning in module /opt/software/qchem/qchem-5.0.1/libgen/Atomic_PolEc.C, line 73:

 No atomic polarizability available.


 Q-Chem warning in module /opt/software/qchem/qchem-5.0.1/libgen/Atomic_PolEc.C, line 58:

 No atomic polarizability available.


 Q-Chem warning in module /opt/software/qchem/qchem-5.0.1/libgen/Atomic_PolEc.C, line 73:

 No atomic polarizability available.


 Q-Chem warning in module /opt/software/qchem/qchem-5.0.1/libgen/Atomic_PolEc.C, line 58:

 No atomic polarizability available.


 Q-Chem warning in module /opt/software/qchem/qchem-5.0.1/libgen/Atomic_PolEc.C, line 73:

 No atomic polarizability available.


 Q-Chem warning in module /opt/software/qchem/qchem-5.0.1/libgen/Atomic_PolEc.C, line 58:

 No atomic polarizability available.


 Q-Chem warning in module /opt/software/qchem/qchem-5.0.1/libgen/Atomic_PolEc.C, line 73:

 No atomic polarizability available.


 Q-Chem warning in module /opt/software/qchem/qchem-5.0.1/libgen/Atomic_PolEc.C, line 58:

 No atomic polarizability available.


 Q-Chem warning in module /opt/software/qchem/qchem-5.0.1/libgen/Atomic_PolEc.C, line 73:

 No atomic polarizability available.


 Q-Chem warning in module /opt/software/qchem/qchem-5.0.1/libgen/Atomic_PolEc.C, line 58:

 No atomic polarizability available.


 Q-Chem warning in module /opt/software/qchem/qchem-5.0.1/libgen/Atomic_PolEc.C, line 73:

 No atomic polarizability available.


 Q-Chem warning in module /opt/software/qchem/qchem-5.0.1/libgen/Atomic_PolEc.C, line 58:

 No atomic polarizability available.


 Q-Chem warning in module /opt/software/qchem/qchem-5.0.1/libgen/Atomic_PolEc.C, line 73:

 No atomic polarizability available.


 Q-Chem warning in module /opt/software/qchem/qchem-5.0.1/libgen/Atomic_PolEc.C, line 58:

 No atomic polarizability available.


 Q-Chem warning in module /opt/software/qchem/qchem-5.0.1/libgen/Atomic_PolEc.C, line 73:

 No atomic polarizability available.


 Q-Chem warning in module /opt/software/qchem/qchem-5.0.1/libgen/Atomic_PolEc.C, line 58:

 No atomic polarizability available.


 Q-Chem warning in module /opt/software/qchem/qchem-5.0.1/libgen/Atomic_PolEc.C, line 73:

 No atomic polarizability available.


 Q-Chem warning in module /opt/software/qchem/qchem-5.0.1/libgen/Atomic_PolEc.C, line 58:

 No atomic polarizability available.


 Q-Chem warning in module /opt/software/qchem/qchem-5.0.1/libgen/Atomic_PolEc.C, line 73:

 No atomic polarizability available.


 Q-Chem warning in module /opt/software/qchem/qchem-5.0.1/libgen/Atomic_PolEc.C, line 58:

 No atomic polarizability available.


 Q-Chem warning in module /opt/software/qchem/qchem-5.0.1/libgen/Atomic_PolEc.C, line 73:

 No atomic polarizability available.

 A restricted hybrid HF-DFT SCF calculation will be
 performed using Pulay DIIS extrapolation
 Exchange:     0.2000 Hartree-Fock + 0.0800 Slater + 0.7200 B88
 Correlation:  0.1900 VWN1RPA + 0.8100 LYP
 Using SG-1 standard quadrature grid
 Dispersion:   Grimme D3
 SCF converges when DIIS error is below 1.0E-08
 using 4 threads for integral computing
 -------------------------------------------------------
 OpenMP Integral computing Module                
 Release: version 1.0, May 2013, Q-Chem Inc. Pittsburgh 
 -------------------------------------------------------
 -------------------------------------------------------
 OpenMP BLAS3 based DFT computing Module                
 Release: version 1.0, May 2013, Q-Chem Inc. Pittsburgh 
 -------------------------------------------------------
 ---------------------------------------
  Cycle       Energy         DIIS Error
 ---------------------------------------
    1    -273.1501454465      2.19E-02
    2    -271.4966447306      2.44E-03
    3    -271.4748504127      2.65E-03
    4    -271.6429300794      1.98E-04
    5    -271.6435189443      1.01E-04
    6    -271.6436939776      4.34E-05
    7    -271.6437322615      1.58E-05
    8    -271.6437383338      1.31E-06
    9    -271.6437383631      7.99E-07
   10    -271.6437383771      1.84E-07
   11    -271.6437383778      8.04E-08
   12    -271.6437383779      9.67E-09 Convergence criterion met
 ---------------------------------------
 SCF time:  CPU 303.28 s  wall 76.09 s
 SCF   energy in the final basis set = -271.64373838
 Total energy in the final basis set = -271.64373838
 
 --------------------------------------------------------------
 
                    Orbital Energies (a.u.)
 --------------------------------------------------------------
 
 Alpha MOs
 -- Occupied --
-10.185 -10.174 -10.172 -10.171 -10.170 -10.169 -10.169  -0.858
 -0.776  -0.747  -0.691  -0.611  -0.591  -0.521  -0.465  -0.462
 -0.424  -0.423  -0.418  -0.390  -0.358  -0.350  -0.342  -0.255
 -0.247
 -- Virtual --
 -0.017  -0.013  -0.008   0.005   0.009   0.018   0.028   0.031
  0.035   0.040   0.046   0.049   0.055   0.061   0.064   0.068
  0.074   0.082   0.086   0.088   0.090   0.101   0.104   0.108
  0.109   0.113   0.119   0.121   0.124   0.126   0.128   0.129
  0.133   0.134   0.139   0.141   0.149   0.154   0.157   0.161
  0.163   0.168   0.169   0.174   0.177   0.180   0.184   0.186
  0.186   0.190   0.191   0.191   0.203   0.210   0.214   0.217
  0.222   0.224   0.233   0.235   0.238   0.242   0.248   0.250
  0.254   0.258   0.259   0.264   0.269   0.275   0.279   0.287
  0.291   0.294   0.300   0.305   0.308   0.311   0.314   0.319
  0.329   0.330   0.340   0.347   0.352   0.357   0.369   0.372
  0.375   0.381   0.392   0.405   0.418   0.423   0.425   0.436
  0.449   0.477   0.485   0.487   0.503   0.515   0.520   0.521
  0.538   0.544   0.556   0.558   0.570   0.579   0.580   0.584
  0.589   0.598   0.603   0.609   0.615   0.622   0.625   0.636
  0.641   0.650   0.653   0.658   0.664   0.665   0.675   0.686
  0.699   0.707   0.715   0.729   0.735   0.738   0.746   0.751
  0.771   0.778   0.787   0.806   0.811   0.824   0.841   0.853
  0.859   0.879   0.887   0.895   0.901   0.912   0.920   0.934
  0.936   0.949   0.953   0.978   1.001   1.013   1.018   1.023
  1.037   1.041   1.079   1.085   1.089   1.124   1.127   1.145
  1.153   1.179   1.200   1.205   1.227   1.290   1.326   1.355
  1.368   1.398   1.417   1.421   1.436   1.452   1.466   1.478
  1.500   1.526   1.528   1.533   1.535   1.545   1.554   1.561
  1.563   1.576   1.590   1.601   1.613   1.619   1.648   1.662
  1.675   1.684   1.698   1.715   1.715   1.721   1.740   1.745
  1.756   1.760   1.767   1.781   1.790   1.802   1.810   1.824
  1.845   1.852   1.861   1.867   1.886   1.893   1.897   1.903
  1.917   1.937   1.939   1.954   1.960   1.963   1.969   1.979
  2.015   2.026   2.035   2.037   2.042   2.053   2.065   2.095
  2.103   2.114   2.146   2.163   2.196   2.239   2.250   2.261
  2.308   2.311   2.320   2.322   2.334   2.395   2.400   2.412
  2.415   2.416   2.428   2.446   2.447   2.478   2.482   2.493
  2.500   2.509   2.537   2.555   2.556   2.561   2.573   2.588
  2.599   2.602   2.635   2.641   2.674   2.679   2.703   2.733
  2.735   2.745   2.753   2.759   2.760   2.774   2.798   2.836
  2.837   2.862   2.900   2.905   2.916   2.925   2.931   2.940
  2.953   2.990   2.996   3.000   3.006   3.009   3.048   3.092
  3.117   3.155   3.174   3.210   3.223   3.249   3.284   3.347
  3.354   3.359   3.387   3.394   3.401   3.449   3.479   3.503
  3.504   3.515   3.547   3.550   3.565   3.590   3.624   3.653
  3.667   3.716   3.720   3.791   3.798   3.860   4.019   4.034
  4.039   4.121   4.180   4.186   4.203   4.343   4.633   4.736
  4.838   4.848   4.862   4.918   4.978   5.117   5.226   5.669
  7.073   7.125   7.154   7.221   7.235   7.369   7.617   7.716
  7.721   7.745   7.771   7.779   7.822   7.838   7.864   7.984
  8.026   8.051   8.174   8.482   8.916   9.729  10.032  10.215
 10.235  10.269  10.288  10.351  23.658  23.940  24.001  24.010
 24.095  24.108  24.206  69.735  69.882  69.975  70.014  70.030
 70.058  70.083
 --------------------------------------------------------------
 
          Ground-State Mulliken Net Atomic Charges

     Atom                 Charge (a.u.)
  ----------------------------------------
      1 C                    -0.115973
      2 C                    -0.375776
      3 C                    -0.315136
      4 C                    -0.160457
      5 C                    -0.509634
      6 C                     0.879104
      7 H                     0.146814
      8 H                     0.171854
      9 C                    -0.644473
     10 H                     0.152641
     11 H                     0.158667
     12 H                     0.145764
     13 H                     0.150106
     14 H                     0.161022
     15 H                     0.165755
     16 GH                   -0.014312
     17 GH                    0.010762
     18 GH                    0.014828
     19 GH                   -0.012347
     20 GH                   -0.004815
     21 GH                   -0.007924
     22 GH                   -0.000763
     23 GH                   -0.000384
     24 GH                    0.006253
     25 GH                   -0.000271
     26 GH                   -0.002079
     27 GH                    0.000763
     28 GH                    0.001359
     29 GH                   -0.000990
     30 GH                   -0.000357
  ----------------------------------------
  Sum of atomic charges =     0.000000

 -----------------------------------------------------------------
                    Cartesian Multipole Moments
 -----------------------------------------------------------------
    Charge (ESU x 10^10)
                 0.0000
    Dipole Moment (Debye)
         X       0.0623      Y       0.3870      Z       0.0343
       Tot       0.3935
    Quadrupole Moments (Debye-Ang)
        XX     -39.3801     XY      -0.7214     YY     -38.3618
        XZ       0.2290     YZ       2.7207     ZZ     -46.0609
    Octopole Moments (Debye-Ang^2)
       XXX     229.5605    XXY      -4.6565    XYY      75.1564
       YYY     -20.1438    XXZ    -205.8761    XYZ      -5.0746
       YYZ    -201.4828    XZZ      91.7030    YZZ      15.4591
       ZZZ    -723.8120
    Hexadecapole Moments (Debye-Ang^3)
      XXXX   -1183.1861   XXXY      35.3892   XXYY    -296.6668
      XYYY      44.6743   YYYY    -622.3882   XXXZ    1201.8543
      XXYZ     -29.4904   XYYZ     394.8921   YYYZ    -127.2080
      XXZZ   -1324.5897   XYZZ     -25.4670   YYZZ   -1180.3530
      XZZZ    1427.3933   YZZZ      49.5202   ZZZZ   -7630.8979
 -----------------------------------------------------------------
Archival summary:
1\1\vega03.cac.cornell.edu\SP\ProcedureUnspecified\BasisUnspecified\78h15\jj585\TueApr1700:55:312018TueApr1700:55:312018\0\\#,ProcedureUnspecified,BasisUnspecified,\\0,1\C\C,1,1.39616\H,2,1.08475,1,118.991\C,2,1.38856,1,121.629,3,179.783,0\H,4,1.08495,2,119.453,1,179.671,0\C,4,1.3959,2,121.575,1,-0.129654,0\H,6,1.032,4,121.26,2,-179.84,0\C,6,1.40604,4,117.481,2,0.160349,0\H,8,1.032,6,119.504,4,179.742,0\C,1,1.40634,2,117.536,3,-179.6,0\H,10,1.032,1,119.607,2,179.72,0\C,1,1.50976,2,119.611,3,-0.341033,0\H,12,1.09144,1,110.135,2,-7.24194,0\H,12,1.09156,1,111.21,2,113.289,0\H,12,1.09291,1,111.796,2,-127.427,0\Gh,15,3.45688,12,136.439,1,63.3609,0\Gh,16,1.09156,15,150.049,12,-10.0397,0\Gh,17,1.09144,16,108.669,15,70.825,0\Gh,17,1.09291,16,106.802,15,-172.791,0\Gh,17,1.50976,16,111.21,15,-50.5667,0\Gh,20,1.39616,17,119.611,16,113.289,0\Gh,21,1.08475,20,118.991,17,-0.341033,0\Gh,21,1.38856,20,121.629,17,179.442,0\Gh,23,1.08495,21,119.453,20,179.671,0\Gh,23,1.3959,21,121.575,20,-0.129654,0\Gh,25,1.032,23,121.26,21,-179.84,0\Gh,25,1.40604,23,117.481,21,0.160349,0\Gh,27,1.032,25,119.504,23,179.742,0\Gh,20,1.40634,17,122.848,16,-67.4939,0\Gh,29,1.032,20,119.607,17,0.487832,0\\\@

 Total job time:  76.93s(wall), 305.85s(cpu) 
 Tue Apr 17 00:55:31 2018

        *************************************************************
        *                                                           *
        *  Thank you very much for using Q-Chem.  Have a nice day.  *
        *                                                           *
        *************************************************************


0 sent ACK to 0 
now end server 0 ... 
