mFile = /opt/software/qchem/qchem-5.0.1//bin/mpi/machines
Process 0 of 1 is on vega02.cac.cornell.edu - thread support 0
initial socket setup ...start
initial socket setup ...done 
now start server 0 ... 
vega02.cac.cornell.edu 10.84.3
Q-Chem Developer Version! Running on 10.84.3.*
                  Welcome to Q-Chem
     A Quantum Leap Into The Future Of Chemistry


 Q-Chem 5.0, Q-Chem, Inc., Pleasanton, CA (2017)

 Yihan Shao,  Zhengting Gan,  E. Epifanovsky,  A. T. B. Gilbert,  M. Wormit,  
 J. Kussmann,  A. W. Lange,  A. Behn,  Jia Deng,  Xintian Feng,  D. Ghosh,  
 M. Goldey,  P. R. Horn,  L. D. Jacobson,  I. Kaliman,  T. Kus,  A. Landau,  
 Jie Liu,  E. I. Proynov,  R. M. Richard,  R. P. Steele,  E. J. Sundstrom,  
 H. L. Woodcock III,  P. M. Zimmerman,  D. Zuev,  B. Albrecht,  E. Alguire,  
 S. A. Baeppler,  Z. Benda,  Y. A. Bernard,  E. J. Berquist,  K. B. Bravaya,  
 D. Casanova,  Chun-Min Chang,  Yunqing Chen,  A. Chien,  K. D. Closser,  
 M. P. Coons,  S. Dasgupta,  M. Diedenhofen,  Hainam Do,  R. G. Edgar,  
 Po-Tung Fang,  S. Fatehi,  Qingguo Feng,  Qinghui Ge,  A. Ghysels,  
 J. Gomes,  J. Gonthier,  A. Gunina,  M. W. D. Hanson-Heine,  
 P. H. P. Harbach,  A. W. Hauser,  J. E. Herr,  E. G. Hohenstein,  
 Z. C. Holden,  Kerwin Hui,  T.-C. Jagau,  Hyunjun Ji,  B. Kaduk,  
 K. Khistyaev,  Jaehoon Kim,  P. Klunzinger,  K. Koh,  D. Kosenkov,  
 T. Kowalczyk,  C. M. Krauter,  A. Kunitsa,  Ka Un Lao,  A. Laurent,  
 K. V. Lawler,  Joonho Lee,  D. Lefrancois,  S. Lehtola,  D. S. Levine,  
 Yi-Pei Li,  You-Sheng Lin,  Fenglai Liu,  E. Livshits,  A. Luenser,  
 P. Manohar,  E. Mansoor,  S. F. Manzer,  Shan-Ping Mao,  Yuezhi Mao,  
 N. Mardirossian,  A. V. Marenich,  L. A. Martinez-Martinez,  S. A. Maurer,  
 N. J. Mayhall,  S. C. McKenzie,  J.-M. Mewes,  A. F. Morrison,  K. Nanda,  
 T. S. Nguyen-Beck,  R. Olivares-Amaya,  J. A. Parkhill,  T. M. Perrine,  
 F. Plasser,  S. Prager,  A. Prociuk,  D. R. Rehn,  F. Rob,  M. Schneider,  
 N. Sergueev,  S. M. Sharada,  S. Sharma,  D. W. Small,  T. Stauch,  
 T. Stein,  Yu-Chuan Su,  A. J. W. Thom,  T. Tsuchimochi,  L. Vogt,  
 O. Vydrov,  M. A. Watson,  J. Wenzel,  M. de Wergifosse,  T. A. Wesolowski,  
 A. White,  J. Witte,  A. Yamada,  Jun Yang,  K. Yao,  S. Yeganeh,  
 S. R. Yost,  Zhi-Qiang You,  A. Zech,  Igor Ying Zhang,  Xing Zhang,  
 Yan Zhao,  Ying Zhu,  B. R. Brooks,  G. K. L. Chan,  C. J. Cramer,  
 M. S. Gordon,  W. J. Hehre,  A. Klamt,  M. W. Schmidt,  C. D. Sherrill,  
 D. G. Truhlar,  A. Aspuru-Guzik,  R. Baer,  A. T. Bell,  N. A. Besley,  
 Jeng-Da Chai,  A. Dreuw,  B. D. Dunietz,  T. R. Furlani,  Chao-Ping Hsu,  
 Yousung Jung,  Jing Kong,  D. S. Lambrecht,  WanZhen Liang,  C. Ochsenfeld,  
 V. A. Rassolov,  L. V. Slipchenko,  J. E. Subotnik,  T. Van Voorhis,  
 J. M. Herbert,  A. I. Krylov,  P. M. W. Gill,  M. Head-Gordon

 Contributors to earlier versions of Q-Chem not listed above: 
 R. D. Adamson,  B. Austin,  J. Baker,  G. J. O. Beran,  K. Brandhorst,  
 S. T. Brown,  E. F. C. Byrd,  A. K. Chakraborty,  C.-L. Cheng,  
 Siu Hung Chien,  D. M. Chipman,  D. L. Crittenden,  H. Dachsel,  
 R. A. DiStasio Jr.,  R. J. Doerksen,  A. D. Dutoi,  L. Fusti-Molnar,  
 W. A. Goddard III,  A. Golubeva-Zadorozhnaya,  S. R. Gwaltney,  G. Hawkins,  
 A. Heyden,  S. Hirata,  G. Kedziora,  F. J. Keil,  C. Kelley,  Jihan Kim,  
 R. A. King,  R. Z. Khaliullin,  P. P. Korambath,  W. Kurlancheek,  
 A. M. Lee,  M. S. Lee,  S. V. Levchenko,  Ching Yeh Lin,  D. Liotard,  
 R. C. Lochan,  I. Lotan,  P. E. Maslen,  N. Nair,  D. P. O'Neill,  
 D. Neuhauser,  E. Neuscamman,  C. M. Oana,  R. Olson,  B. Peters,  
 R. Peverati,  P. A. Pieniazek,  Y. M. Rhee,  J. Ritchie,  M. A. Rohrdanz,  
 E. Rosta,  N. J. Russ,  H. F. Schaefer III,  N. E. Schultz,  N. Shenvi,  
 A. C. Simmonett,  A. Sodt,  D. Stuck,  K. S. Thanthiriwatte,  V. Vanovschi,  
 Tao Wang,  A. Warshel,  C. F. Williams,  Q. Wu,  X. Xu,  W. Zhang

 Please cite Q-Chem as follows:
 Y. Shao et al., Mol. Phys. 113, 184-215 (2015)
 DOI: 10.1080/00268976.2014.952696

 Q-Chem 5.0.1 for Intel X86 EM64T Linux

 Parts of Q-Chem use Armadillo 5.200.1 (Boston Tea Smuggler).
 http://arma.sourceforge.net/

 Q-Chem begins on Wed Apr 18 00:29:09 2018  

Host: vega02.cac.cornell.edu
0

     Scratch files written to /scratch/jj585/vdw/01n00_distance_4.000_11.save//
 Parallel job on  1  processors

Checking the input file for inconsistencies... 	...done.

--------------------------------------------------------------
User input:
--------------------------------------------------------------
$molecule
0  1
--
0  1
C        -0.55335000        -0.66344000        -0.04955000
C        -0.58369000        +0.72363000        +0.07143000
C        -1.74416000        -1.38805000        -0.12104000
C        -2.96100000        -0.71253000        -0.06974000
C        -2.98560000        +0.67733000        +0.05133000
C        -1.80096000        +1.41593000        +0.12202000
H        -3.93869000        +1.19496000        +0.09042000
H        -3.89285000        -1.26490000        -0.12448000
C        -1.82561000        +2.92062000        +0.24749000
H        -1.30124000        +3.39464000        -0.58804000
H        -1.33421000        +3.24931000        +1.16844000
H        -2.84892000        +3.30103000        +0.25949000
H        -1.72216000        -2.46788000        -0.21620000
H        +0.39889000        -1.18111000        -0.08841000
H        +0.34820000        +1.27792000        +0.12648000
--
0  1
C        -0.57983000        -1.01129000        +3.93521000
C        -0.61017000        +0.37578000        +4.05619000
C        -1.77064000        -1.73590000        +3.86372000
C        -2.98748000        -1.06038000        +3.91502000
C        -3.01208000        +0.32948000        +4.03609000
C        -1.82744000        +1.06808000        +4.10678000
H        -3.96517000        +0.84711000        +4.07518000
H        -3.91933000        -1.61275000        +3.86028000
C        -1.85209000        +2.57277000        +4.23225000
H        -1.32772000        +3.04679000        +3.39672000
H        -1.36069000        +2.90146000        +5.15320000
H        -2.87540000        +2.95318000        +4.24425000
H        -1.74864000        -2.81573000        +3.76856000
H        +0.37241000        -1.52896000        +3.89635000
H        +0.32172000        +0.93007000        +4.11124000
$end

$rem
JOBTYPE                   SP
METHOD                    B3LYP
DFT_D                     d3_op
BASIS                     6-311++G(d,p)
SYMMETRY                  False
THRESH                    12
SCF_CONVERGENCE           8
MAX_SUB_FILE_NUM          128
MEM_STATIC                400
MEM_TOTAL                 4000
$end
--------------------------------------------------------------
 Adding empirical dispersion correction 
 ----------------------------------------------------------------
 Doing -D3(op) with
 s6 =   1.00000
 s8 =   0.78311
 a1 =   0.30000
 a2 =   4.25000
 n  =  10.00000
 -D3 energy without 3body term =     -0.0299123369 hartrees
 ----------------------------------------------------------------
             Standard Nuclear Orientation (Angstroms)
    I     Atom           X                Y                Z
 ----------------------------------------------------------------
    1      C       1.9957085086    -1.1996745443     1.2062306216
    2      C       1.9986476451     0.1929764764     1.2003691585
    3      C       1.9945017234    -1.9067109132     0.0027784850
    4      C       1.9956237178    -1.2080048427    -1.2019900049
    5      C       1.9987596090     0.1873317064    -1.2020644976
    6      C       2.0019696320     0.9083377108    -0.0045508221
    7      H       1.9997023174     0.7230724259    -2.1459026118
    8      H       1.9947876940    -1.7465762308    -2.1434748258
    9      C       2.0109579956     2.4184231733    -0.0026948151
   10      H       2.8888404038     2.8068961356     0.5228339407
   11      H       1.1262194163     2.8190835549     0.5016551462
   12      H       2.0261900503     2.8163339242    -1.0192842814
   13      H       1.9931764801    -2.9909442270     0.0057143722
   14      H       1.9945275707    -1.7354196746     2.1492200737
   15      H       1.9993463085     0.7334868342     2.1419290046
   16      C      -2.0042836206    -1.1909547580     1.2061842387
   17      C      -2.0013444841     0.2016962627     1.2003227757
   18      C      -2.0054904058    -1.8979911269     0.0027321021
   19      C      -2.0043684114    -1.1992850564    -1.2020363877
   20      C      -2.0012325202     0.1960514927    -1.2021108804
   21      C      -1.9980224972     0.9170574971    -0.0045972049
   22      H      -2.0002898118     0.7317922122    -2.1459489947
   23      H      -2.0052044352    -1.7378564445    -2.1435212086
   24      C      -1.9890341336     2.4271429596    -0.0027411979
   25      H      -1.1111517254     2.8156159218     0.5227875579
   26      H      -2.8737727129     2.8278033412     0.5016087634
   27      H      -1.9738020789     2.8250537105    -1.0193306642
   28      H      -2.0068156491    -2.9822244407     0.0056679894
   29      H      -2.0054645585    -1.7266998883     2.1491736909
   30      H      -2.0006458207     0.7422066205     2.1418826218
 ----------------------------------------------------------------
 Molecular Point Group                 C1    NOp =  1
 Largest Abelian Subgroup              C1    NOp =  1
 Nuclear Repulsion Energy =   821.0130193648 hartrees
 There are       50 alpha and       50 beta electrons
 Requested basis set is 6-311++G(d,p)
 There are 164 shells and 420 basis functions

 Total QAlloc Memory Limit   4000 MB
 Mega-Array Size       392 MB
 MEM_STATIC part       400 MB
 A cutoff of  1.0D-12 yielded  11418 shell pairs
 There are     76237 function pairs (     81362 Cartesian)
 
 -------------------------------------------------------
 OpenMP Integral Computing Module                       
 Release: version 1.0, May 2013, Q-Chem Inc. Pittsburgh 
 -------------------------------------------------------
 Integral Job Info:
 Integral job number is                      11
 Integral operator is                         1
 short-range coefficients                     0
 long-range coefficients              100000000
 Omega coefficients                           0
 if combine SR and LR in K                    0
 Integral screening is                        0
 Integral computing path is                   2
 max size of driver memory is            800000
 size of driver memory is                593474
 size of scratch memory is              2361544
 max col of scratch BK array               1296
 max len of scratch array in speh3          155
 max len of scratch index in speh4           18
 max int batch size is                      520
 min int batch size is                       52
 fixed nKL is                                52
 max L of basis functions is                  2
 order of int derivative is                   0
 number of shells is                        164
 number of basis is                         434
 number of cartesian basis is               434
 number of contracted shell pairs         11418
 number of primitive shell pairs          24939
 maxK2 (contraction) of shell pair           36
 max number of K2 of shell pair               1
 max number of CS2 of shell pair           2158
 max number of PS2 of shell pair           3564
 mem total for path MDJ                  130616
 -------------------------------------------------------
 Smallest overlap matrix eigenvalue = 2.05E-07
 Linear dependence detected in AO basis
 Number of orthogonalized atomic orbitals = 418
 Maximum deviation from orthogonality = 7.791E-11

 Scale SEOQF with 1.000000e-01/1.000000e-01/1.000000e-01

 Standard Electronic Orientation quadrupole field applied
 Nucleus-field energy     =     0.0000000197 hartrees
 Guess from superposition of atomic densities
 Warning:  Energy on first SCF cycle will be non-variational
 A restricted hybrid HF-DFT SCF calculation will be
 performed using Pulay DIIS extrapolation
 Exchange:     0.2000 Hartree-Fock + 0.0800 Slater + 0.7200 B88
 Correlation:  0.1900 VWN1RPA + 0.8100 LYP
 Using SG-1 standard quadrature grid
 Dispersion:   Grimme D3
 SCF converges when DIIS error is below 1.0E-08
 using 4 threads for integral computing
 -------------------------------------------------------
 OpenMP Integral computing Module                
 Release: version 1.0, May 2013, Q-Chem Inc. Pittsburgh 
 -------------------------------------------------------
 -------------------------------------------------------
 OpenMP BLAS3 based DFT computing Module                
 Release: version 1.0, May 2013, Q-Chem Inc. Pittsburgh 
 -------------------------------------------------------
 ---------------------------------------
  Cycle       Energy         DIIS Error
 ---------------------------------------
    1    -546.2499499880      3.08E-02
    2    -543.0023029629      3.51E-03
    3    -542.9126518542      4.04E-03
    4    -543.3008011733      3.56E-04
    5    -543.3027600051      1.79E-04
    6    -543.3033096407      7.65E-05
    7    -543.3034273837      2.99E-05
    8    -543.3034492761      2.65E-06
    9    -543.3034494177      1.15E-06
   10    -543.3034494438      3.44E-07
   11    -543.3034494462      1.22E-07
   12    -543.3034494465      4.58E-08
   13    -543.3034494466      6.18E-09 Convergence criterion met
 ---------------------------------------
 SCF time:  CPU 413.76 s  wall 103.81 s
 SCF   energy in the final basis set = -543.30344945
 Total energy in the final basis set = -543.30344945
 
 --------------------------------------------------------------
 
                    Orbital Energies (a.u.)
 --------------------------------------------------------------
 
 Alpha MOs
 -- Occupied --
-10.181 -10.181 -10.171 -10.171 -10.170 -10.170 -10.168 -10.168
-10.168 -10.168 -10.168 -10.168 -10.168 -10.168  -0.856  -0.855
 -0.772  -0.770  -0.743  -0.742  -0.687  -0.684  -0.604  -0.603
 -0.584  -0.582  -0.511  -0.510  -0.461  -0.460  -0.454  -0.453
 -0.431  -0.419  -0.418  -0.414  -0.409  -0.407  -0.388  -0.385
 -0.362  -0.347  -0.343  -0.342  -0.340  -0.339  -0.258  -0.249
 -0.245  -0.236
 -- Virtual --
 -0.022  -0.016  -0.011  -0.004  -0.000  -0.000   0.004   0.011
  0.021   0.022   0.025   0.025   0.042   0.045   0.048   0.049
  0.058   0.064   0.068   0.072   0.078   0.082   0.087   0.096
  0.099   0.104   0.109   0.110   0.113   0.115   0.119   0.119
  0.123   0.123   0.125   0.128   0.132   0.133   0.137   0.139
  0.139   0.146   0.147   0.149   0.158   0.160   0.161   0.167
  0.169   0.172   0.172   0.176   0.178   0.178   0.185   0.187
  0.190   0.195   0.200   0.201   0.206   0.216   0.217   0.223
  0.227   0.238   0.245   0.247   0.253   0.258   0.264   0.266
  0.267   0.268   0.273   0.280   0.281   0.287   0.291   0.294
  0.297   0.301   0.307   0.311   0.312   0.315   0.317   0.326
  0.341   0.342   0.347   0.352   0.361   0.366   0.369   0.371
  0.376   0.381   0.386   0.389   0.401   0.410   0.467   0.472
  0.494   0.515   0.523   0.529   0.542   0.544   0.553   0.559
  0.561   0.564   0.575   0.579   0.585   0.600   0.602   0.614
  0.616   0.617   0.630   0.638   0.639   0.644   0.646   0.649
  0.651   0.651   0.658   0.674   0.678   0.680   0.698   0.712
  0.715   0.724   0.726   0.731   0.732   0.744   0.748   0.749
  0.753   0.770   0.781   0.781   0.800   0.806   0.813   0.825
  0.826   0.843   0.862   0.876   0.880   0.884   0.892   0.899
  0.901   0.911   0.914   0.931   0.942   0.949   0.959   0.962
  0.965   0.973   0.974   0.991   0.999   1.004   1.022   1.022
  1.047   1.051   1.072   1.087   1.089   1.098   1.124   1.130
  1.149   1.149   1.157   1.161   1.271   1.355   1.356   1.385
  1.399   1.402   1.416   1.453   1.459   1.483   1.502   1.511
  1.522   1.531   1.539   1.540   1.543   1.548   1.557   1.563
  1.565   1.600   1.604   1.612   1.633   1.646   1.646   1.654
  1.655   1.658   1.682   1.683   1.696   1.707   1.709   1.740
  1.743   1.752   1.778   1.781   1.802   1.808   1.811   1.830
  1.841   1.854   1.866   1.878   1.886   1.913   1.918   1.919
  1.935   1.940   1.941   1.951   1.951   1.972   2.000   2.008
  2.013   2.019   2.029   2.052   2.057   2.058   2.091   2.096
  2.106   2.143   2.182   2.219   2.232   2.234   2.240   2.265
  2.325   2.329   2.392   2.402   2.407   2.427   2.429   2.461
  2.467   2.468   2.490   2.496   2.502   2.507   2.540   2.548
  2.565   2.590   2.591   2.630   2.631   2.640   2.652   2.669
  2.681   2.689   2.694   2.715   2.725   2.752   2.754   2.763
  2.768   2.770   2.780   2.793   2.800   2.816   2.817   2.820
  2.829   2.853   2.875   2.877   2.892   2.908   2.908   2.922
  2.937   2.941   2.950   2.969   2.983   2.994   3.005   3.059
  3.084   3.152   3.159   3.187   3.210   3.262   3.335   3.369
  3.421   3.441   3.484   3.539   3.553   3.556   3.626   3.637
  3.719   3.734   3.794   3.812   3.842   3.850   4.008   4.010
  4.047   4.061   4.161   4.161   4.165   4.171   4.338   4.342
  4.849   4.854  23.636  23.656  23.939  23.941  23.987  23.988
 24.003  24.011  24.092  24.092  24.102  24.107  24.195  24.211
 --------------------------------------------------------------
 
          Ground-State Mulliken Net Atomic Charges

     Atom                 Charge (a.u.)
  ----------------------------------------
      1 C                    -0.209321
      2 C                    -0.204766
      3 C                    -0.304580
      4 C                    -0.275745
      5 C                    -0.212740
      6 C                     0.624512
      7 H                     0.160244
      8 H                     0.170789
      9 C                    -0.687112
     10 H                     0.153985
     11 H                     0.147659
     12 H                     0.139670
     13 H                     0.152219
     14 H                     0.167651
     15 H                     0.177050
     16 C                    -0.224683
     17 C                    -0.169959
     18 C                    -0.302337
     19 C                    -0.264682
     20 C                    -0.236872
     21 C                     0.625133
     22 H                     0.159786
     23 H                     0.171094
     24 C                    -0.691679
     25 H                     0.142507
     26 H                     0.154696
     27 H                     0.139253
     28 H                     0.152124
     29 H                     0.167248
     30 H                     0.178856
  ----------------------------------------
  Sum of atomic charges =     0.000000

 -----------------------------------------------------------------
                    Cartesian Multipole Moments
 -----------------------------------------------------------------
    Charge (ESU x 10^10)
                -0.0000
    Dipole Moment (Debye)
         X       0.0076      Y       0.6062      Z       0.0496
       Tot       0.6083
    Quadrupole Moments (Debye-Ang)
        XX     -94.4719     XY       0.0376     YY     -78.2426
        XZ      -0.0024     YZ       0.0515     ZZ     -78.6105
    Octopole Moments (Debye-Ang^2)
       XXX       0.1895    XXY      11.6703    XYY      -0.0563
       YYY      -9.7352    XXZ       1.5352    XYZ      -0.0108
       YYZ       0.0025    XZZ       0.0209    YZZ      -1.9577
       ZZZ      -1.0116
    Hexadecapole Moments (Debye-Ang^3)
      XXXX   -2375.8673   XXXY       0.5323   XXYY    -560.8864
      XYYY      -0.0803   YYYY   -1250.5071   XXXZ       0.0296
      XXYZ       3.9693   XYYZ      -0.0708   YYYZ      -0.9135
      XXZZ    -457.4454   XYZZ       0.1671   YYZZ    -300.0345
      XZZZ      -0.0304   YZZZ      -3.1152   ZZZZ    -589.2357
 -----------------------------------------------------------------
Archival summary:
1\1\vega02.cac.cornell.edu\SP\ProcedureUnspecified\BasisUnspecified\1416\jj585\WedApr1800:30:532018WedApr1800:30:532018\0\\#,ProcedureUnspecified,BasisUnspecified,\\0,1\C\C,1,1.39782\H,2,1.08529,1,119.368\C,2,1.39534,1,121.049,3,179.94,0\H,4,1.08464,2,119.768,1,-179.901,0\C,4,1.39272,2,120.115,1,0.0547342,0\H,6,1.08424,4,120.267,2,-179.932,0\C,6,1.39578,4,119.454,2,0.0391297,0\H,8,1.08455,6,119.963,4,179.98,0\C,8,1.39267,6,120.193,4,-0.0300908,0\H,10,1.08567,8,119.617,6,179.987,0\C,1,1.51011,2,121.122,3,-0.187779,0\H,12,1.0918,1,111.308,2,-0.672818,0\H,12,1.09438,1,111.214,2,119.648,0\H,12,1.09443,1,111.119,2,-120.898,0\H,14,2.23747,12,144.31,1,-56.3471,0\C,16,1.09443,14,142.951,12,-3.07816,0\H,17,1.0918,16,107.852,14,-62.1429,0\H,17,1.09438,16,107.291,14,-178.12,0\C,17,1.51011,16,111.119,14,60.1098,0\C,20,1.39782,17,121.122,16,-120.898,0\H,21,1.08529,20,119.368,17,-0.187779,0\C,21,1.39534,20,121.049,17,179.752,0\H,23,1.08464,21,119.768,20,-179.901,0\C,23,1.39272,21,120.115,20,0.0547342,0\H,25,1.08424,23,120.267,21,-179.932,0\C,25,1.39578,23,119.454,21,0.0391297,0\H,27,1.08455,25,119.963,23,179.98,0\C,27,1.39267,25,120.193,23,-0.0300908,0\H,29,1.08567,27,119.617,25,179.987,0\\\@

 Total job time:  104.68s(wall), 416.28s(cpu) 
 Wed Apr 18 00:30:53 2018

        *************************************************************
        *                                                           *
        *  Thank you very much for using Q-Chem.  Have a nice day.  *
        *                                                           *
        *************************************************************


0 sent ACK to 0 
now end server 0 ... 
