mFile = /opt/software/qchem/qchem-5.0.1//bin/mpi/machines
Process 0 of 1 is on vega02.cac.cornell.edu - thread support 0
initial socket setup ...start
initial socket setup ...done 
now start server 0 ... 
vega02.cac.cornell.edu 10.84.3
Q-Chem Developer Version! Running on 10.84.3.*
                  Welcome to Q-Chem
     A Quantum Leap Into The Future Of Chemistry


 Q-Chem 5.0, Q-Chem, Inc., Pleasanton, CA (2017)

 Yihan Shao,  Zhengting Gan,  E. Epifanovsky,  A. T. B. Gilbert,  M. Wormit,  
 J. Kussmann,  A. W. Lange,  A. Behn,  Jia Deng,  Xintian Feng,  D. Ghosh,  
 M. Goldey,  P. R. Horn,  L. D. Jacobson,  I. Kaliman,  T. Kus,  A. Landau,  
 Jie Liu,  E. I. Proynov,  R. M. Richard,  R. P. Steele,  E. J. Sundstrom,  
 H. L. Woodcock III,  P. M. Zimmerman,  D. Zuev,  B. Albrecht,  E. Alguire,  
 S. A. Baeppler,  Z. Benda,  Y. A. Bernard,  E. J. Berquist,  K. B. Bravaya,  
 D. Casanova,  Chun-Min Chang,  Yunqing Chen,  A. Chien,  K. D. Closser,  
 M. P. Coons,  S. Dasgupta,  M. Diedenhofen,  Hainam Do,  R. G. Edgar,  
 Po-Tung Fang,  S. Fatehi,  Qingguo Feng,  Qinghui Ge,  A. Ghysels,  
 J. Gomes,  J. Gonthier,  A. Gunina,  M. W. D. Hanson-Heine,  
 P. H. P. Harbach,  A. W. Hauser,  J. E. Herr,  E. G. Hohenstein,  
 Z. C. Holden,  Kerwin Hui,  T.-C. Jagau,  Hyunjun Ji,  B. Kaduk,  
 K. Khistyaev,  Jaehoon Kim,  P. Klunzinger,  K. Koh,  D. Kosenkov,  
 T. Kowalczyk,  C. M. Krauter,  A. Kunitsa,  Ka Un Lao,  A. Laurent,  
 K. V. Lawler,  Joonho Lee,  D. Lefrancois,  S. Lehtola,  D. S. Levine,  
 Yi-Pei Li,  You-Sheng Lin,  Fenglai Liu,  E. Livshits,  A. Luenser,  
 P. Manohar,  E. Mansoor,  S. F. Manzer,  Shan-Ping Mao,  Yuezhi Mao,  
 N. Mardirossian,  A. V. Marenich,  L. A. Martinez-Martinez,  S. A. Maurer,  
 N. J. Mayhall,  S. C. McKenzie,  J.-M. Mewes,  A. F. Morrison,  K. Nanda,  
 T. S. Nguyen-Beck,  R. Olivares-Amaya,  J. A. Parkhill,  T. M. Perrine,  
 F. Plasser,  S. Prager,  A. Prociuk,  D. R. Rehn,  F. Rob,  M. Schneider,  
 N. Sergueev,  S. M. Sharada,  S. Sharma,  D. W. Small,  T. Stauch,  
 T. Stein,  Yu-Chuan Su,  A. J. W. Thom,  T. Tsuchimochi,  L. Vogt,  
 O. Vydrov,  M. A. Watson,  J. Wenzel,  M. de Wergifosse,  T. A. Wesolowski,  
 A. White,  J. Witte,  A. Yamada,  Jun Yang,  K. Yao,  S. Yeganeh,  
 S. R. Yost,  Zhi-Qiang You,  A. Zech,  Igor Ying Zhang,  Xing Zhang,  
 Yan Zhao,  Ying Zhu,  B. R. Brooks,  G. K. L. Chan,  C. J. Cramer,  
 M. S. Gordon,  W. J. Hehre,  A. Klamt,  M. W. Schmidt,  C. D. Sherrill,  
 D. G. Truhlar,  A. Aspuru-Guzik,  R. Baer,  A. T. Bell,  N. A. Besley,  
 Jeng-Da Chai,  A. Dreuw,  B. D. Dunietz,  T. R. Furlani,  Chao-Ping Hsu,  
 Yousung Jung,  Jing Kong,  D. S. Lambrecht,  WanZhen Liang,  C. Ochsenfeld,  
 V. A. Rassolov,  L. V. Slipchenko,  J. E. Subotnik,  T. Van Voorhis,  
 J. M. Herbert,  A. I. Krylov,  P. M. W. Gill,  M. Head-Gordon

 Contributors to earlier versions of Q-Chem not listed above: 
 R. D. Adamson,  B. Austin,  J. Baker,  G. J. O. Beran,  K. Brandhorst,  
 S. T. Brown,  E. F. C. Byrd,  A. K. Chakraborty,  C.-L. Cheng,  
 Siu Hung Chien,  D. M. Chipman,  D. L. Crittenden,  H. Dachsel,  
 R. A. DiStasio Jr.,  R. J. Doerksen,  A. D. Dutoi,  L. Fusti-Molnar,  
 W. A. Goddard III,  A. Golubeva-Zadorozhnaya,  S. R. Gwaltney,  G. Hawkins,  
 A. Heyden,  S. Hirata,  G. Kedziora,  F. J. Keil,  C. Kelley,  Jihan Kim,  
 R. A. King,  R. Z. Khaliullin,  P. P. Korambath,  W. Kurlancheek,  
 A. M. Lee,  M. S. Lee,  S. V. Levchenko,  Ching Yeh Lin,  D. Liotard,  
 R. C. Lochan,  I. Lotan,  P. E. Maslen,  N. Nair,  D. P. O'Neill,  
 D. Neuhauser,  E. Neuscamman,  C. M. Oana,  R. Olson,  B. Peters,  
 R. Peverati,  P. A. Pieniazek,  Y. M. Rhee,  J. Ritchie,  M. A. Rohrdanz,  
 E. Rosta,  N. J. Russ,  H. F. Schaefer III,  N. E. Schultz,  N. Shenvi,  
 A. C. Simmonett,  A. Sodt,  D. Stuck,  K. S. Thanthiriwatte,  V. Vanovschi,  
 Tao Wang,  A. Warshel,  C. F. Williams,  Q. Wu,  X. Xu,  W. Zhang

 Please cite Q-Chem as follows:
 Y. Shao et al., Mol. Phys. 113, 184-215 (2015)
 DOI: 10.1080/00268976.2014.952696

 Q-Chem 5.0.1 for Intel X86 EM64T Linux

 Parts of Q-Chem use Armadillo 5.200.1 (Boston Tea Smuggler).
 http://arma.sourceforge.net/

 Q-Chem begins on Wed Apr 18 00:43:39 2018  

Host: vega02.cac.cornell.edu
0

     Scratch files written to /scratch/jj585/vdw/01n10_distance_4.000_01.save//
 Parallel job on  1  processors

Checking the input file for inconsistencies... 	...done.

--------------------------------------------------------------
User input:
--------------------------------------------------------------
$molecule
0  1
C        -0.54836000        -1.05824000        +3.90605000
C        -0.56233000        +0.32652000        +4.03957000
C        -1.74015000        -1.79258000        +3.84897000
C        -2.94210000        -1.08656000        +3.92538000
C        -2.95626000        +0.30209000        +4.05868000
C        -1.76895000        +1.03419000        +4.11601000
H        -3.90760000        +0.82173000        +4.11743000
H        -3.88246000        -1.62742000        +3.88127000
C        -1.77928000        +2.53942000        +4.23098000
C        -1.72114000        -3.29857000        +3.73509000
H        -0.99542000        -3.63453000        +2.98914000
H        -2.70094000        -3.68868000        +3.45044000
H        -1.44595000        -3.76208000        +4.68874000
H        -1.50388000        +3.00796000        +3.28002000
H        -1.06601000        +2.88723000        +4.98357000
H        -2.76847000        +2.91077000        +4.50761000
H        +0.40219000        -1.57976000        +3.84634000
H        +0.37794000        +0.86767000        +4.08381000
@C        -0.58454000        -0.67556000        -0.07544000
@C        -0.59851000        +0.70920000        +0.05808000
@C        -1.77633000        -1.40990000        -0.13252000
@C        -2.97828000        -0.70388000        -0.05611000
@C        -2.99244000        +0.68477000        +0.07719000
@C        -1.80513000        +1.41687000        +0.13452000
@H        -3.94378000        +1.20441000        +0.13594000
@H        -3.91864000        -1.24474000        -0.10022000
@C        -1.81546000        +2.92210000        +0.24949000
@C        -1.75732000        -2.91589000        -0.24640000
@H        -1.03160000        -3.25185000        -0.99235000
@H        -2.73712000        -3.30600000        -0.53105000
@H        -1.48213000        -3.37940000        +0.70725000
@H        -1.54006000        +3.39064000        -0.70147000
@H        -1.10219000        +3.26991000        +1.00208000
@H        -2.80465000        +3.29345000        +0.52612000
@H        +0.36601000        -1.19708000        -0.13515000
@H        +0.34176000        +1.25035000        +0.10232000
$end

$rem
JOBTYPE                   SP
METHOD                    B3LYP
DFT_D                     d3_op
BASIS                     6-311++G(d,p)
SYMMETRY                  False
THRESH                    12
SCF_CONVERGENCE           8
MAX_SUB_FILE_NUM          128
MEM_STATIC                400
MEM_TOTAL                 4000
$end
--------------------------------------------------------------
 Adding empirical dispersion correction 
 ----------------------------------------------------------------
 Doing -D3(op) with
 s6 =   1.00000
 s8 =   0.78311
 a1 =   0.30000
 a2 =   4.25000
 n  =  10.00000
 -D3 energy without 3body term =     -0.0145405323 hartrees
 ----------------------------------------------------------------
             Standard Nuclear Orientation (Angstroms)
    I     Atom           X                Y                Z
 ----------------------------------------------------------------
    1      C      -0.5483600000    -1.0582400000     3.9060500000
    2      C      -0.5623300000     0.3265200000     4.0395700000
    3      C      -1.7401500000    -1.7925800000     3.8489700000
    4      C      -2.9421000000    -1.0865600000     3.9253800000
    5      C      -2.9562600000     0.3020900000     4.0586800000
    6      C      -1.7689500000     1.0341900000     4.1160100000
    7      H      -3.9076000000     0.8217300000     4.1174300000
    8      H      -3.8824600000    -1.6274200000     3.8812700000
    9      C      -1.7792800000     2.5394200000     4.2309800000
   10      C      -1.7211400000    -3.2985700000     3.7350900000
   11      H      -0.9954200000    -3.6345300000     2.9891400000
   12      H      -2.7009400000    -3.6886800000     3.4504400000
   13      H      -1.4459500000    -3.7620800000     4.6887400000
   14      H      -1.5038800000     3.0079600000     3.2800200000
   15      H      -1.0660100000     2.8872300000     4.9835700000
   16      H      -2.7684700000     2.9107700000     4.5076100000
   17      H       0.4021900000    -1.5797600000     3.8463400000
   18      H       0.3779400000     0.8676700000     4.0838100000
   19      GH     -0.5845400000    -0.6755600000    -0.0754400000
   20      GH     -0.5985100000     0.7092000000     0.0580800000
   21      GH     -1.7763300000    -1.4099000000    -0.1325200000
   22      GH     -2.9782800000    -0.7038800000    -0.0561100000
   23      GH     -2.9924400000     0.6847700000     0.0771900000
   24      GH     -1.8051300000     1.4168700000     0.1345200000
   25      GH     -3.9437800000     1.2044100000     0.1359400000
   26      GH     -3.9186400000    -1.2447400000    -0.1002200000
   27      GH     -1.8154600000     2.9221000000     0.2494900000
   28      GH     -1.7573200000    -2.9158900000    -0.2464000000
   29      GH     -1.0316000000    -3.2518500000    -0.9923500000
   30      GH     -2.7371200000    -3.3060000000    -0.5310500000
   31      GH     -1.4821300000    -3.3794000000     0.7072500000
   32      GH     -1.5400600000     3.3906400000    -0.7014700000
   33      GH     -1.1021900000     3.2699100000     1.0020800000
   34      GH     -2.8046500000     3.2934500000     0.5261200000
   35      GH      0.3660100000    -1.1970800000    -0.1351500000
   36      GH      0.3417600000     1.2503500000     0.1023200000
 ----------------------------------------------------------------
 Nuclear Repulsion Energy =   339.7884744113 hartrees
 There are       29 alpha and       29 beta electrons
 Requested basis set is 6-311++G(d,p)
 There are 196 shells and 492 basis functions

 Total QAlloc Memory Limit   4000 MB
 Mega-Array Size       392 MB
 MEM_STATIC part       400 MB
 A cutoff of  1.0D-12 yielded  15814 shell pairs
 There are    101086 function pairs (    107594 Cartesian)
 
 -------------------------------------------------------
 OpenMP Integral Computing Module                       
 Release: version 1.0, May 2013, Q-Chem Inc. Pittsburgh 
 -------------------------------------------------------
 Integral Job Info:
 Integral job number is                      11
 Integral operator is                         1
 short-range coefficients                     0
 long-range coefficients              100000000
 Omega coefficients                           0
 if combine SR and LR in K                    0
 Integral screening is                        0
 Integral computing path is                   2
 max size of driver memory is            800000
 size of driver memory is                593474
 size of scratch memory is              2361544
 max col of scratch BK array               1296
 max len of scratch array in speh3          155
 max len of scratch index in speh4           18
 max int batch size is                      520
 min int batch size is                       52
 fixed nKL is                                52
 max L of basis functions is                  2
 order of int derivative is                   0
 number of shells is                        196
 number of basis is                         508
 number of cartesian basis is               508
 number of contracted shell pairs         15814
 number of primitive shell pairs          33726
 maxK2 (contraction) of shell pair           36
 max number of K2 of shell pair               1
 max number of CS2 of shell pair           3020
 max number of PS2 of shell pair           4956
 mem total for path MDJ                  165976
 -------------------------------------------------------
 Smallest overlap matrix eigenvalue = 1.66E-07
 Linear dependence detected in AO basis
 Number of orthogonalized atomic orbitals = 489
 Maximum deviation from orthogonality = 1.032E-10

 Scale SEOQF with 1.000000e-01/1.000000e-01/1.000000e-01

 Standard Electronic Orientation quadrupole field applied
 Nucleus-field energy     =    -0.0000000751 hartrees
 Guess from superposition of atomic densities
 Warning:  Energy on first SCF cycle will be non-variational

 Q-Chem warning in module /opt/software/qchem/qchem-5.0.1/libgen/Atomic_PolEc.C, line 58:

 No atomic polarizability available.


 Q-Chem warning in module /opt/software/qchem/qchem-5.0.1/libgen/Atomic_PolEc.C, line 73:

 No atomic polarizability available.


 Q-Chem warning in module /opt/software/qchem/qchem-5.0.1/libgen/Atomic_PolEc.C, line 58:

 No atomic polarizability available.


 Q-Chem warning in module /opt/software/qchem/qchem-5.0.1/libgen/Atomic_PolEc.C, line 73:

 No atomic polarizability available.


 Q-Chem warning in module /opt/software/qchem/qchem-5.0.1/libgen/Atomic_PolEc.C, line 58:

 No atomic polarizability available.


 Q-Chem warning in module /opt/software/qchem/qchem-5.0.1/libgen/Atomic_PolEc.C, line 73:

 No atomic polarizability available.


 Q-Chem warning in module /opt/software/qchem/qchem-5.0.1/libgen/Atomic_PolEc.C, line 58:

 No atomic polarizability available.


 Q-Chem warning in module /opt/software/qchem/qchem-5.0.1/libgen/Atomic_PolEc.C, line 73:

 No atomic polarizability available.


 Q-Chem warning in module /opt/software/qchem/qchem-5.0.1/libgen/Atomic_PolEc.C, line 58:

 No atomic polarizability available.


 Q-Chem warning in module /opt/software/qchem/qchem-5.0.1/libgen/Atomic_PolEc.C, line 73:

 No atomic polarizability available.


 Q-Chem warning in module /opt/software/qchem/qchem-5.0.1/libgen/Atomic_PolEc.C, line 58:

 No atomic polarizability available.


 Q-Chem warning in module /opt/software/qchem/qchem-5.0.1/libgen/Atomic_PolEc.C, line 73:

 No atomic polarizability available.


 Q-Chem warning in module /opt/software/qchem/qchem-5.0.1/libgen/Atomic_PolEc.C, line 58:

 No atomic polarizability available.


 Q-Chem warning in module /opt/software/qchem/qchem-5.0.1/libgen/Atomic_PolEc.C, line 73:

 No atomic polarizability available.


 Q-Chem warning in module /opt/software/qchem/qchem-5.0.1/libgen/Atomic_PolEc.C, line 58:

 No atomic polarizability available.


 Q-Chem warning in module /opt/software/qchem/qchem-5.0.1/libgen/Atomic_PolEc.C, line 73:

 No atomic polarizability available.


 Q-Chem warning in module /opt/software/qchem/qchem-5.0.1/libgen/Atomic_PolEc.C, line 58:

 No atomic polarizability available.


 Q-Chem warning in module /opt/software/qchem/qchem-5.0.1/libgen/Atomic_PolEc.C, line 73:

 No atomic polarizability available.


 Q-Chem warning in module /opt/software/qchem/qchem-5.0.1/libgen/Atomic_PolEc.C, line 58:

 No atomic polarizability available.


 Q-Chem warning in module /opt/software/qchem/qchem-5.0.1/libgen/Atomic_PolEc.C, line 73:

 No atomic polarizability available.


 Q-Chem warning in module /opt/software/qchem/qchem-5.0.1/libgen/Atomic_PolEc.C, line 58:

 No atomic polarizability available.


 Q-Chem warning in module /opt/software/qchem/qchem-5.0.1/libgen/Atomic_PolEc.C, line 73:

 No atomic polarizability available.


 Q-Chem warning in module /opt/software/qchem/qchem-5.0.1/libgen/Atomic_PolEc.C, line 58:

 No atomic polarizability available.


 Q-Chem warning in module /opt/software/qchem/qchem-5.0.1/libgen/Atomic_PolEc.C, line 73:

 No atomic polarizability available.


 Q-Chem warning in module /opt/software/qchem/qchem-5.0.1/libgen/Atomic_PolEc.C, line 58:

 No atomic polarizability available.


 Q-Chem warning in module /opt/software/qchem/qchem-5.0.1/libgen/Atomic_PolEc.C, line 73:

 No atomic polarizability available.


 Q-Chem warning in module /opt/software/qchem/qchem-5.0.1/libgen/Atomic_PolEc.C, line 58:

 No atomic polarizability available.


 Q-Chem warning in module /opt/software/qchem/qchem-5.0.1/libgen/Atomic_PolEc.C, line 73:

 No atomic polarizability available.


 Q-Chem warning in module /opt/software/qchem/qchem-5.0.1/libgen/Atomic_PolEc.C, line 58:

 No atomic polarizability available.


 Q-Chem warning in module /opt/software/qchem/qchem-5.0.1/libgen/Atomic_PolEc.C, line 73:

 No atomic polarizability available.


 Q-Chem warning in module /opt/software/qchem/qchem-5.0.1/libgen/Atomic_PolEc.C, line 58:

 No atomic polarizability available.


 Q-Chem warning in module /opt/software/qchem/qchem-5.0.1/libgen/Atomic_PolEc.C, line 73:

 No atomic polarizability available.


 Q-Chem warning in module /opt/software/qchem/qchem-5.0.1/libgen/Atomic_PolEc.C, line 58:

 No atomic polarizability available.


 Q-Chem warning in module /opt/software/qchem/qchem-5.0.1/libgen/Atomic_PolEc.C, line 73:

 No atomic polarizability available.


 Q-Chem warning in module /opt/software/qchem/qchem-5.0.1/libgen/Atomic_PolEc.C, line 58:

 No atomic polarizability available.


 Q-Chem warning in module /opt/software/qchem/qchem-5.0.1/libgen/Atomic_PolEc.C, line 73:

 No atomic polarizability available.

 A restricted hybrid HF-DFT SCF calculation will be
 performed using Pulay DIIS extrapolation
 Exchange:     0.2000 Hartree-Fock + 0.0800 Slater + 0.7200 B88
 Correlation:  0.1900 VWN1RPA + 0.8100 LYP
 Using SG-1 standard quadrature grid
 Dispersion:   Grimme D3
 SCF converges when DIIS error is below 1.0E-08
 using 4 threads for integral computing
 -------------------------------------------------------
 OpenMP Integral computing Module                
 Release: version 1.0, May 2013, Q-Chem Inc. Pittsburgh 
 -------------------------------------------------------
 -------------------------------------------------------
 OpenMP BLAS3 based DFT computing Module                
 Release: version 1.0, May 2013, Q-Chem Inc. Pittsburgh 
 -------------------------------------------------------
 ---------------------------------------
  Cycle       Energy         DIIS Error
 ---------------------------------------
    1    -312.6312184079      2.00E-02
    2    -310.8026066754      2.31E-03
    3    -310.7708560524      2.51E-03
    4    -310.9799597674      1.91E-04
    5    -310.9806984073      1.12E-04
    6    -310.9810358597      1.80E-05
    7    -310.9810429390      6.94E-06
    8    -310.9810443010      1.00E-06
    9    -310.9810443255      4.99E-07
   10    -310.9810443331      1.62E-07
   11    -310.9810443340      1.35E-08
   12    -310.9810443339      1.28E-08
   13    -310.9810443339      9.78E-10 Convergence criterion met
 ---------------------------------------
 SCF time:  CPU 677.72 s  wall 170.26 s
 SCF   energy in the final basis set = -310.98104433
 Total energy in the final basis set = -310.98104433
 
 --------------------------------------------------------------
 
                    Orbital Energies (a.u.)
 --------------------------------------------------------------
 
 Alpha MOs
 -- Occupied --
-10.180 -10.180 -10.171 -10.170 -10.170 -10.170 -10.167 -10.167
 -0.860  -0.787  -0.744  -0.721  -0.657  -0.608  -0.575  -0.494
 -0.473  -0.452  -0.425  -0.418  -0.417  -0.402  -0.398  -0.375
 -0.346  -0.342  -0.337  -0.254  -0.237
 -- Virtual --
 -0.015  -0.011  -0.008   0.001   0.008   0.020   0.021   0.029
  0.030   0.039   0.043   0.051   0.054   0.056   0.057   0.059
  0.065   0.073   0.079   0.082   0.086   0.089   0.092   0.095
  0.100   0.104   0.107   0.111   0.116   0.117   0.121   0.123
  0.127   0.128   0.130   0.134   0.144   0.146   0.147   0.148
  0.149   0.153   0.157   0.158   0.161   0.163   0.166   0.170
  0.177   0.179   0.182   0.184   0.187   0.192   0.196   0.197
  0.204   0.205   0.209   0.210   0.214   0.217   0.219   0.224
  0.228   0.233   0.235   0.237   0.242   0.252   0.253   0.259
  0.260   0.262   0.268   0.269   0.272   0.274   0.280   0.283
  0.288   0.289   0.297   0.299   0.301   0.308   0.315   0.319
  0.325   0.328   0.330   0.332   0.340   0.346   0.352   0.357
  0.372   0.375   0.381   0.384   0.391   0.402   0.412   0.423
  0.424   0.431   0.436   0.441   0.449   0.452   0.461   0.465
  0.475   0.480   0.497   0.499   0.511   0.518   0.524   0.532
  0.536   0.550   0.558   0.563   0.566   0.574   0.582   0.585
  0.588   0.598   0.602   0.613   0.616   0.620   0.621   0.629
  0.637   0.640   0.646   0.650   0.654   0.665   0.667   0.672
  0.682   0.688   0.697   0.706   0.708   0.713   0.720   0.730
  0.732   0.746   0.757   0.768   0.771   0.779   0.784   0.791
  0.802   0.804   0.815   0.819   0.839   0.849   0.870   0.881
  0.898   0.911   0.921   0.927   0.934   0.941   0.945   0.957
  0.963   0.975   0.984   1.008   1.018   1.021   1.027   1.038
  1.044   1.054   1.060   1.077   1.104   1.112   1.118   1.130
  1.139   1.153   1.158   1.186   1.210   1.215   1.226   1.235
  1.314   1.333   1.355   1.378   1.392   1.425   1.432   1.434
  1.453   1.468   1.480   1.487   1.497   1.502   1.515   1.523
  1.532   1.546   1.551   1.556   1.558   1.565   1.572   1.589
  1.592   1.613   1.622   1.623   1.631   1.635   1.644   1.672
  1.681   1.688   1.703   1.707   1.720   1.727   1.732   1.744
  1.748   1.749   1.763   1.766   1.785   1.787   1.795   1.806
  1.823   1.828   1.831   1.841   1.848   1.851   1.862   1.884
  1.893   1.896   1.908   1.919   1.927   1.938   1.943   1.951
  1.964   1.965   1.979   1.995   1.999   2.000   2.027   2.044
  2.052   2.053   2.065   2.086   2.092   2.108   2.112   2.122
  2.124   2.147   2.160   2.164   2.197   2.212   2.225   2.230
  2.267   2.297   2.302   2.304   2.317   2.321   2.335   2.342
  2.390   2.402   2.407   2.409   2.416   2.420   2.431   2.437
  2.456   2.469   2.482   2.486   2.500   2.504   2.521   2.536
  2.553   2.563   2.568   2.572   2.584   2.589   2.605   2.609
  2.629   2.634   2.654   2.665   2.678   2.685   2.691   2.743
  2.751   2.768   2.778   2.781   2.794   2.800   2.812   2.838
  2.845   2.848   2.862   2.873   2.914   2.919   2.931   2.935
  2.945   2.956   2.972   2.975   2.992   2.998   3.010   3.029
  3.060   3.066   3.091   3.120   3.135   3.182   3.191   3.204
  3.238   3.248   3.281   3.292   3.347   3.361   3.366   3.404
  3.420   3.455   3.463   3.475   3.485   3.521   3.524   3.566
  3.574   3.578   3.591   3.599   3.618   3.652   3.684   3.688
  3.707   3.766   3.782   3.809   3.813   3.830   3.849   3.999
  4.009   4.056   4.084   4.164   4.174   4.286   4.292   4.383
  4.629   4.676   4.808   4.831   4.852   4.854   4.860   4.873
  4.898   4.934   5.091   5.407   7.100   7.118   7.200   7.217
  7.243   7.384   7.604   7.657   7.727   7.767   7.774   7.791
  7.796   7.798   7.857   7.857   7.874   7.920   7.976   8.032
  8.136   8.386   8.530   8.932   9.680   9.985   9.997  10.173
 10.217  10.246  10.250  10.310  23.648  23.942  23.952  23.982
 24.028  24.086  24.109  24.195  69.925  69.966  69.980  70.157
 70.164  70.178  70.206  70.240
 --------------------------------------------------------------
 
          Ground-State Mulliken Net Atomic Charges

     Atom                 Charge (a.u.)
  ----------------------------------------
      1 C                    -0.316261
      2 C                    -0.381403
      3 C                     0.625850
      4 C                    -0.356346
      5 C                    -0.440679
      6 C                     0.557950
      7 H                     0.169555
      8 H                     0.161258
      9 C                    -0.700060
     10 C                    -0.587743
     11 H                     0.139793
     12 H                     0.136396
     13 H                     0.163783
     14 H                     0.183193
     15 H                     0.143615
     16 H                     0.137666
     17 H                     0.176020
     18 H                     0.177673
     19 GH                   -0.012306
     20 GH                    0.011252
     21 GH                   -0.077871
     22 GH                    0.024741
     23 GH                    0.004244
     24 GH                   -0.018131
     25 GH                    0.003532
     26 GH                    0.006736
     27 GH                    0.034702
     28 GH                    0.011657
     29 GH                   -0.000352
     30 GH                   -0.001052
     31 GH                    0.017322
     32 GH                   -0.000604
     33 GH                   -0.003289
     34 GH                    0.000681
     35 GH                    0.003512
     36 GH                    0.004964
  ----------------------------------------
  Sum of atomic charges =     0.000000

 -----------------------------------------------------------------
                    Cartesian Multipole Moments
 -----------------------------------------------------------------
    Charge (ESU x 10^10)
                 0.0000
    Dipole Moment (Debye)
         X       0.0595      Y       0.0013      Z      -0.0140
       Tot       0.0611
    Quadrupole Moments (Debye-Ang)
        XX     -46.3235     XY      -0.0294     YY     -44.8492
        XZ       0.2057     YZ       0.6232     ZZ     -52.8262
    Octopole Moments (Debye-Ang^2)
       XXX     242.2005    XXY      17.5926    XYY      78.7542
       YYY      50.9737    XXZ    -184.4031    XYZ      -1.2150
       YYZ    -179.0841    XZZ      93.9461    YZZ      24.9425
       ZZZ    -630.4275
    Hexadecapole Moments (Debye-Ang^3)
      XXXX   -1154.7942   XXXY     -88.2925   XXYY    -372.9163
      XYYY     -85.5225   YYYY   -1136.9309   XXXZ     965.5007
      XXYZ      61.6888   XYYZ     315.0121   YYYZ     159.1067
      XXZZ    -974.4172   XYZZ     -43.4262   YYZZ    -918.3877
      XZZZ    1117.9827   YZZZ     221.5249   ZZZZ   -5104.7667
 -----------------------------------------------------------------
Archival summary:
1\1\vega02.cac.cornell.edu\SP\ProcedureUnspecified\BasisUnspecified\810h18\jj585\WedApr1800:46:302018WedApr1800:46:302018\0\\#,ProcedureUnspecified,BasisUnspecified,\\0,1\C\C,1,1.39605\H,2,1.0856,1,119.476\C,2,1.39511,1,121.149,3,179.917,0\H,4,1.0857,2,119.403,1,-179.853,0\C,4,1.39606,2,121.155,1,0.205671,0\C,1,1.40092,2,117.735,3,179.877,0\H,7,1.08578,1,119.465,2,-179.854,0\C,7,1.39125,1,121.109,2,0.234778,0\H,9,1.08586,7,119.479,1,179.822,0\C,1,1.50965,2,121.344,3,-1.22008,0\H,11,1.09221,1,111.376,2,14.1543,0\H,11,1.09367,1,111.41,2,134.753,0\H,11,1.09531,1,111.019,2,-105.715,0\C,6,1.51041,4,121.279,2,178.643,0\H,15,1.09235,6,111.373,4,15.5869,0\H,15,1.09361,6,111.474,4,136.192,0\H,15,1.09545,6,111.064,4,-104.227,0\Gh,14,2.32787,11,160.239,1,17.4567,0\Gh,19,1.09367,14,121.671,11,46.8728,0\Gh,20,1.09221,19,107.954,14,49.3231,0\Gh,20,1.09531,19,107.303,14,165.022,0\Gh,20,1.50965,19,111.41,14,-73.2649,0\Gh,23,1.39605,20,121.344,19,134.753,0\Gh,24,1.0856,23,119.476,20,-1.22008,0\Gh,24,1.39511,23,121.149,20,178.696,0\Gh,26,1.0857,24,119.403,23,-179.853,0\Gh,26,1.39606,24,121.155,23,0.205671,0\Gh,23,1.40092,20,120.912,19,-46.3784,0\Gh,29,1.08578,23,119.465,20,1.23831,0\Gh,29,1.39125,23,121.109,20,-178.673,0\Gh,31,1.08586,29,119.479,23,179.822,0\Gh,28,1.51041,26,121.279,24,178.643,0\Gh,33,1.09235,28,111.373,26,15.5869,0\Gh,33,1.09361,28,111.474,26,136.192,0\Gh,33,1.09545,28,111.064,26,-104.227,0\\\@

 Total job time:  171.12s(wall), 680.25s(cpu) 
 Wed Apr 18 00:46:30 2018

        *************************************************************
        *                                                           *
        *  Thank you very much for using Q-Chem.  Have a nice day.  *
        *                                                           *
        *************************************************************


0 sent ACK to 0 
now end server 0 ... 
