mFile = /opt/software/qchem/qchem-5.0.1//bin/mpi/machines
Process 0 of 1 is on vega03.cac.cornell.edu - thread support 0
initial socket setup ...start
initial socket setup ...done 
now start server 0 ... 
vega03 10.84.3
Q-Chem Developer Version! Running on 10.84.3.*
                  Welcome to Q-Chem
     A Quantum Leap Into The Future Of Chemistry


 Q-Chem 5.0, Q-Chem, Inc., Pleasanton, CA (2017)

 Yihan Shao,  Zhengting Gan,  E. Epifanovsky,  A. T. B. Gilbert,  M. Wormit,  
 J. Kussmann,  A. W. Lange,  A. Behn,  Jia Deng,  Xintian Feng,  D. Ghosh,  
 M. Goldey,  P. R. Horn,  L. D. Jacobson,  I. Kaliman,  T. Kus,  A. Landau,  
 Jie Liu,  E. I. Proynov,  R. M. Richard,  R. P. Steele,  E. J. Sundstrom,  
 H. L. Woodcock III,  P. M. Zimmerman,  D. Zuev,  B. Albrecht,  E. Alguire,  
 S. A. Baeppler,  Z. Benda,  Y. A. Bernard,  E. J. Berquist,  K. B. Bravaya,  
 D. Casanova,  Chun-Min Chang,  Yunqing Chen,  A. Chien,  K. D. Closser,  
 M. P. Coons,  S. Dasgupta,  M. Diedenhofen,  Hainam Do,  R. G. Edgar,  
 Po-Tung Fang,  S. Fatehi,  Qingguo Feng,  Qinghui Ge,  A. Ghysels,  
 J. Gomes,  J. Gonthier,  A. Gunina,  M. W. D. Hanson-Heine,  
 P. H. P. Harbach,  A. W. Hauser,  J. E. Herr,  E. G. Hohenstein,  
 Z. C. Holden,  Kerwin Hui,  T.-C. Jagau,  Hyunjun Ji,  B. Kaduk,  
 K. Khistyaev,  Jaehoon Kim,  P. Klunzinger,  K. Koh,  D. Kosenkov,  
 T. Kowalczyk,  C. M. Krauter,  A. Kunitsa,  Ka Un Lao,  A. Laurent,  
 K. V. Lawler,  Joonho Lee,  D. Lefrancois,  S. Lehtola,  D. S. Levine,  
 Yi-Pei Li,  You-Sheng Lin,  Fenglai Liu,  E. Livshits,  A. Luenser,  
 P. Manohar,  E. Mansoor,  S. F. Manzer,  Shan-Ping Mao,  Yuezhi Mao,  
 N. Mardirossian,  A. V. Marenich,  L. A. Martinez-Martinez,  S. A. Maurer,  
 N. J. Mayhall,  S. C. McKenzie,  J.-M. Mewes,  A. F. Morrison,  K. Nanda,  
 T. S. Nguyen-Beck,  R. Olivares-Amaya,  J. A. Parkhill,  T. M. Perrine,  
 F. Plasser,  S. Prager,  A. Prociuk,  D. R. Rehn,  F. Rob,  M. Schneider,  
 N. Sergueev,  S. M. Sharada,  S. Sharma,  D. W. Small,  T. Stauch,  
 T. Stein,  Yu-Chuan Su,  A. J. W. Thom,  T. Tsuchimochi,  L. Vogt,  
 O. Vydrov,  M. A. Watson,  J. Wenzel,  M. de Wergifosse,  T. A. Wesolowski,  
 A. White,  J. Witte,  A. Yamada,  Jun Yang,  K. Yao,  S. Yeganeh,  
 S. R. Yost,  Zhi-Qiang You,  A. Zech,  Igor Ying Zhang,  Xing Zhang,  
 Yan Zhao,  Ying Zhu,  B. R. Brooks,  G. K. L. Chan,  C. J. Cramer,  
 M. S. Gordon,  W. J. Hehre,  A. Klamt,  M. W. Schmidt,  C. D. Sherrill,  
 D. G. Truhlar,  A. Aspuru-Guzik,  R. Baer,  A. T. Bell,  N. A. Besley,  
 Jeng-Da Chai,  A. Dreuw,  B. D. Dunietz,  T. R. Furlani,  Chao-Ping Hsu,  
 Yousung Jung,  Jing Kong,  D. S. Lambrecht,  WanZhen Liang,  C. Ochsenfeld,  
 V. A. Rassolov,  L. V. Slipchenko,  J. E. Subotnik,  T. Van Voorhis,  
 J. M. Herbert,  A. I. Krylov,  P. M. W. Gill,  M. Head-Gordon

 Contributors to earlier versions of Q-Chem not listed above: 
 R. D. Adamson,  B. Austin,  J. Baker,  G. J. O. Beran,  K. Brandhorst,  
 S. T. Brown,  E. F. C. Byrd,  A. K. Chakraborty,  C.-L. Cheng,  
 Siu Hung Chien,  D. M. Chipman,  D. L. Crittenden,  H. Dachsel,  
 R. A. DiStasio Jr.,  R. J. Doerksen,  A. D. Dutoi,  L. Fusti-Molnar,  
 W. A. Goddard III,  A. Golubeva-Zadorozhnaya,  S. R. Gwaltney,  G. Hawkins,  
 A. Heyden,  S. Hirata,  G. Kedziora,  F. J. Keil,  C. Kelley,  Jihan Kim,  
 R. A. King,  R. Z. Khaliullin,  P. P. Korambath,  W. Kurlancheek,  
 A. M. Lee,  M. S. Lee,  S. V. Levchenko,  Ching Yeh Lin,  D. Liotard,  
 R. C. Lochan,  I. Lotan,  P. E. Maslen,  N. Nair,  D. P. O'Neill,  
 D. Neuhauser,  E. Neuscamman,  C. M. Oana,  R. Olson,  B. Peters,  
 R. Peverati,  P. A. Pieniazek,  Y. M. Rhee,  J. Ritchie,  M. A. Rohrdanz,  
 E. Rosta,  N. J. Russ,  H. F. Schaefer III,  N. E. Schultz,  N. Shenvi,  
 A. C. Simmonett,  A. Sodt,  D. Stuck,  K. S. Thanthiriwatte,  V. Vanovschi,  
 Tao Wang,  A. Warshel,  C. F. Williams,  Q. Wu,  X. Xu,  W. Zhang

 Please cite Q-Chem as follows:
 Y. Shao et al., Mol. Phys. 113, 184-215 (2015)
 DOI: 10.1080/00268976.2014.952696

 Q-Chem 5.0.1 for Intel X86 EM64T Linux

 Parts of Q-Chem use Armadillo 5.200.1 (Boston Tea Smuggler).
 http://arma.sourceforge.net/

 Q-Chem begins on Tue Apr 17 01:09:44 2018  

Host: vega03.cac.cornell.edu
0

     Scratch files written to /scratch/jj585/vdw/01n10_distance_5.200_10.save//
 Parallel job on  1  processors

Checking the input file for inconsistencies... 	...done.

--------------------------------------------------------------
User input:
--------------------------------------------------------------
$molecule
0  1
C        -0.54444000        -0.68370000        -0.06689000
C        -0.55709000        +0.71878000        +0.05493000
C        -1.74320000        -1.41616000        -0.12552000
C        -2.93952000        -0.70056000        -0.05285000
C        -2.95313000        +0.68255000        +0.06934000
C        -1.77161000        +1.42404000        +0.12810000
H        -3.90354000        +1.20325000        +0.11710000
H        -3.87892000        -1.24211000        -0.08988000
C        -1.83960000        +2.92746000        +0.24839000
C        -1.78103000        -2.92226000        -0.24590000
H        -1.39752000        -3.25223000        -1.21323000
H        -2.80572000        -3.28175000        -0.13627000
H        -1.16958000        -3.40777000        +0.51926000
H        -1.24214000        +3.42352000        -0.52065000
H        -1.45503000        +3.26427000        +1.21284000
H        -2.87211000        +3.26623000        +0.14638000
H        +0.35825000        -1.18166000        -0.11386000
H        +0.33551000        +1.23549000        +0.09097000
@C        -2.12919000        +0.17530000        +4.81068000
@C        -2.14184000        +1.57778000        +4.93250000
@C        -3.32795000        -0.55716000        +4.75205000
@C        -4.52427000        +0.15844000        +4.82472000
@C        -4.53788000        +1.54155000        +4.94691000
@C        -3.35636000        +2.28304000        +5.00567000
@H        -5.48829000        +2.06225000        +4.99467000
@H        -5.46367000        -0.38311000        +4.78769000
@C        -3.42435000        +3.78646000        +5.12596000
@C        -3.36578000        -2.06326000        +4.63167000
@H        -2.98227000        -2.39323000        +3.66434000
@H        -4.39047000        -2.42275000        +4.74130000
@H        -2.75433000        -2.54877000        +5.39683000
@H        -2.82689000        +4.28252000        +4.35692000
@H        -3.03978000        +4.12327000        +6.09041000
@H        -4.45686000        +4.12523000        +5.02395000
@H        -1.22650000        -0.32266000        +4.76371000
@H        -1.24924000        +2.09449000        +4.96854000
$end

$rem
JOBTYPE                   SP
METHOD                    B3LYP
DFT_D                     d3_op
BASIS                     6-311++G(d,p)
SYMMETRY                  False
THRESH                    12
SCF_CONVERGENCE           8
MAX_SUB_FILE_NUM          128
MEM_STATIC                400
MEM_TOTAL                 4000
$end
--------------------------------------------------------------
 Adding empirical dispersion correction 
 ----------------------------------------------------------------
 Doing -D3(op) with
 s6 =   1.00000
 s8 =   0.78311
 a1 =   0.30000
 a2 =   4.25000
 n  =  10.00000
 -D3 energy without 3body term =     -0.0145338490 hartrees
 ----------------------------------------------------------------
             Standard Nuclear Orientation (Angstroms)
    I     Atom           X                Y                Z
 ----------------------------------------------------------------
    1      C      -0.5444400000    -0.6837000000    -0.0668900000
    2      C      -0.5570900000     0.7187800000     0.0549300000
    3      C      -1.7432000000    -1.4161600000    -0.1255200000
    4      C      -2.9395200000    -0.7005600000    -0.0528500000
    5      C      -2.9531300000     0.6825500000     0.0693400000
    6      C      -1.7716100000     1.4240400000     0.1281000000
    7      H      -3.9035400000     1.2032500000     0.1171000000
    8      H      -3.8789200000    -1.2421100000    -0.0898800000
    9      C      -1.8396000000     2.9274600000     0.2483900000
   10      C      -1.7810300000    -2.9222600000    -0.2459000000
   11      H      -1.3975200000    -3.2522300000    -1.2132300000
   12      H      -2.8057200000    -3.2817500000    -0.1362700000
   13      H      -1.1695800000    -3.4077700000     0.5192600000
   14      H      -1.2421400000     3.4235200000    -0.5206500000
   15      H      -1.4550300000     3.2642700000     1.2128400000
   16      H      -2.8721100000     3.2662300000     0.1463800000
   17      H       0.3582500000    -1.1816600000    -0.1138600000
   18      H       0.3355100000     1.2354900000     0.0909700000
   19      GH     -2.1291900000     0.1753000000     4.8106800000
   20      GH     -2.1418400000     1.5777800000     4.9325000000
   21      GH     -3.3279500000    -0.5571600000     4.7520500000
   22      GH     -4.5242700000     0.1584400000     4.8247200000
   23      GH     -4.5378800000     1.5415500000     4.9469100000
   24      GH     -3.3563600000     2.2830400000     5.0056700000
   25      GH     -5.4882900000     2.0622500000     4.9946700000
   26      GH     -5.4636700000    -0.3831100000     4.7876900000
   27      GH     -3.4243500000     3.7864600000     5.1259600000
   28      GH     -3.3657800000    -2.0632600000     4.6316700000
   29      GH     -2.9822700000    -2.3932300000     3.6643400000
   30      GH     -4.3904700000    -2.4227500000     4.7413000000
   31      GH     -2.7543300000    -2.5487700000     5.3968300000
   32      GH     -2.8268900000     4.2825200000     4.3569200000
   33      GH     -3.0397800000     4.1232700000     6.0904100000
   34      GH     -4.4568600000     4.1252300000     5.0239500000
   35      GH     -1.2265000000    -0.3226600000     4.7637100000
   36      GH     -1.2492400000     2.0944900000     4.9685400000
 ----------------------------------------------------------------
 Nuclear Repulsion Energy =   339.8694378517 hartrees
 There are       29 alpha and       29 beta electrons
 Requested basis set is 6-311++G(d,p)
 There are 196 shells and 492 basis functions

 Total QAlloc Memory Limit   4000 MB
 Mega-Array Size       392 MB
 MEM_STATIC part       400 MB
 A cutoff of  1.0D-12 yielded  15006 shell pairs
 There are     94152 function pairs (     99704 Cartesian)
 
 -------------------------------------------------------
 OpenMP Integral Computing Module                       
 Release: version 1.0, May 2013, Q-Chem Inc. Pittsburgh 
 -------------------------------------------------------
 Integral Job Info:
 Integral job number is                      11
 Integral operator is                         1
 short-range coefficients                     0
 long-range coefficients              100000000
 Omega coefficients                           0
 if combine SR and LR in K                    0
 Integral screening is                        0
 Integral computing path is                   2
 max size of driver memory is            800000
 size of driver memory is                593474
 size of scratch memory is              2361544
 max col of scratch BK array               1296
 max len of scratch array in speh3          155
 max len of scratch index in speh4           18
 max int batch size is                      520
 min int batch size is                       52
 fixed nKL is                                52
 max L of basis functions is                  2
 order of int derivative is                   0
 number of shells is                        196
 number of basis is                         508
 number of cartesian basis is               508
 number of contracted shell pairs         15006
 number of primitive shell pairs          32172
 maxK2 (contraction) of shell pair           36
 max number of K2 of shell pair               1
 max number of CS2 of shell pair           2898
 max number of PS2 of shell pair           4650
 mem total for path MDJ                  151000
 -------------------------------------------------------
 Smallest overlap matrix eigenvalue = 6.03E-07
 Linear dependence detected in AO basis
 Number of orthogonalized atomic orbitals = 490
 Maximum deviation from orthogonality = 4.537E-11

 Scale SEOQF with 1.000000e-02/1.000000e-01/1.000000e-02

 Standard Electronic Orientation quadrupole field applied
 Nucleus-field energy     =     0.0000000158 hartrees
 Guess from superposition of atomic densities
 Warning:  Energy on first SCF cycle will be non-variational

 Q-Chem warning in module /opt/software/qchem/qchem-5.0.1/libgen/Atomic_PolEc.C, line 58:

 No atomic polarizability available.


 Q-Chem warning in module /opt/software/qchem/qchem-5.0.1/libgen/Atomic_PolEc.C, line 73:

 No atomic polarizability available.


 Q-Chem warning in module /opt/software/qchem/qchem-5.0.1/libgen/Atomic_PolEc.C, line 58:

 No atomic polarizability available.


 Q-Chem warning in module /opt/software/qchem/qchem-5.0.1/libgen/Atomic_PolEc.C, line 73:

 No atomic polarizability available.


 Q-Chem warning in module /opt/software/qchem/qchem-5.0.1/libgen/Atomic_PolEc.C, line 58:

 No atomic polarizability available.


 Q-Chem warning in module /opt/software/qchem/qchem-5.0.1/libgen/Atomic_PolEc.C, line 73:

 No atomic polarizability available.


 Q-Chem warning in module /opt/software/qchem/qchem-5.0.1/libgen/Atomic_PolEc.C, line 58:

 No atomic polarizability available.


 Q-Chem warning in module /opt/software/qchem/qchem-5.0.1/libgen/Atomic_PolEc.C, line 73:

 No atomic polarizability available.


 Q-Chem warning in module /opt/software/qchem/qchem-5.0.1/libgen/Atomic_PolEc.C, line 58:

 No atomic polarizability available.


 Q-Chem warning in module /opt/software/qchem/qchem-5.0.1/libgen/Atomic_PolEc.C, line 73:

 No atomic polarizability available.


 Q-Chem warning in module /opt/software/qchem/qchem-5.0.1/libgen/Atomic_PolEc.C, line 58:

 No atomic polarizability available.


 Q-Chem warning in module /opt/software/qchem/qchem-5.0.1/libgen/Atomic_PolEc.C, line 73:

 No atomic polarizability available.


 Q-Chem warning in module /opt/software/qchem/qchem-5.0.1/libgen/Atomic_PolEc.C, line 58:

 No atomic polarizability available.


 Q-Chem warning in module /opt/software/qchem/qchem-5.0.1/libgen/Atomic_PolEc.C, line 73:

 No atomic polarizability available.


 Q-Chem warning in module /opt/software/qchem/qchem-5.0.1/libgen/Atomic_PolEc.C, line 58:

 No atomic polarizability available.


 Q-Chem warning in module /opt/software/qchem/qchem-5.0.1/libgen/Atomic_PolEc.C, line 73:

 No atomic polarizability available.


 Q-Chem warning in module /opt/software/qchem/qchem-5.0.1/libgen/Atomic_PolEc.C, line 58:

 No atomic polarizability available.


 Q-Chem warning in module /opt/software/qchem/qchem-5.0.1/libgen/Atomic_PolEc.C, line 73:

 No atomic polarizability available.


 Q-Chem warning in module /opt/software/qchem/qchem-5.0.1/libgen/Atomic_PolEc.C, line 58:

 No atomic polarizability available.


 Q-Chem warning in module /opt/software/qchem/qchem-5.0.1/libgen/Atomic_PolEc.C, line 73:

 No atomic polarizability available.


 Q-Chem warning in module /opt/software/qchem/qchem-5.0.1/libgen/Atomic_PolEc.C, line 58:

 No atomic polarizability available.


 Q-Chem warning in module /opt/software/qchem/qchem-5.0.1/libgen/Atomic_PolEc.C, line 73:

 No atomic polarizability available.


 Q-Chem warning in module /opt/software/qchem/qchem-5.0.1/libgen/Atomic_PolEc.C, line 58:

 No atomic polarizability available.


 Q-Chem warning in module /opt/software/qchem/qchem-5.0.1/libgen/Atomic_PolEc.C, line 73:

 No atomic polarizability available.


 Q-Chem warning in module /opt/software/qchem/qchem-5.0.1/libgen/Atomic_PolEc.C, line 58:

 No atomic polarizability available.


 Q-Chem warning in module /opt/software/qchem/qchem-5.0.1/libgen/Atomic_PolEc.C, line 73:

 No atomic polarizability available.


 Q-Chem warning in module /opt/software/qchem/qchem-5.0.1/libgen/Atomic_PolEc.C, line 58:

 No atomic polarizability available.


 Q-Chem warning in module /opt/software/qchem/qchem-5.0.1/libgen/Atomic_PolEc.C, line 73:

 No atomic polarizability available.


 Q-Chem warning in module /opt/software/qchem/qchem-5.0.1/libgen/Atomic_PolEc.C, line 58:

 No atomic polarizability available.


 Q-Chem warning in module /opt/software/qchem/qchem-5.0.1/libgen/Atomic_PolEc.C, line 73:

 No atomic polarizability available.


 Q-Chem warning in module /opt/software/qchem/qchem-5.0.1/libgen/Atomic_PolEc.C, line 58:

 No atomic polarizability available.


 Q-Chem warning in module /opt/software/qchem/qchem-5.0.1/libgen/Atomic_PolEc.C, line 73:

 No atomic polarizability available.


 Q-Chem warning in module /opt/software/qchem/qchem-5.0.1/libgen/Atomic_PolEc.C, line 58:

 No atomic polarizability available.


 Q-Chem warning in module /opt/software/qchem/qchem-5.0.1/libgen/Atomic_PolEc.C, line 73:

 No atomic polarizability available.


 Q-Chem warning in module /opt/software/qchem/qchem-5.0.1/libgen/Atomic_PolEc.C, line 58:

 No atomic polarizability available.


 Q-Chem warning in module /opt/software/qchem/qchem-5.0.1/libgen/Atomic_PolEc.C, line 73:

 No atomic polarizability available.

 A restricted hybrid HF-DFT SCF calculation will be
 performed using Pulay DIIS extrapolation
 Exchange:     0.2000 Hartree-Fock + 0.0800 Slater + 0.7200 B88
 Correlation:  0.1900 VWN1RPA + 0.8100 LYP
 Using SG-1 standard quadrature grid
 Dispersion:   Grimme D3
 SCF converges when DIIS error is below 1.0E-08
 using 4 threads for integral computing
 -------------------------------------------------------
 OpenMP Integral computing Module                
 Release: version 1.0, May 2013, Q-Chem Inc. Pittsburgh 
 -------------------------------------------------------
 -------------------------------------------------------
 OpenMP BLAS3 based DFT computing Module                
 Release: version 1.0, May 2013, Q-Chem Inc. Pittsburgh 
 -------------------------------------------------------
 ---------------------------------------
  Cycle       Energy         DIIS Error
 ---------------------------------------
    1    -312.6527731464      2.00E-02
    2    -310.7985966152      2.30E-03
    3    -310.7764323962      2.45E-03
    4    -310.9749895357      1.79E-04
    5    -310.9756014427      1.10E-04
    6    -310.9759294557      2.46E-05
    7    -310.9759419900      1.36E-05
    8    -310.9759481181      1.70E-06
    9    -310.9759481897      8.45E-07
   10    -310.9759482109      9.49E-08
   11    -310.9759482112      1.01E-08
   12    -310.9759482112      6.70E-09 Convergence criterion met
 ---------------------------------------
 SCF time:  CPU 512.00 s  wall 128.40 s
 SCF   energy in the final basis set = -310.97594821
 Total energy in the final basis set = -310.97594821
 
 --------------------------------------------------------------
 
                    Orbital Energies (a.u.)
 --------------------------------------------------------------
 
 Alpha MOs
 -- Occupied --
-10.180 -10.180 -10.168 -10.168 -10.168 -10.167 -10.167 -10.167
 -0.858  -0.787  -0.745  -0.721  -0.658  -0.612  -0.577  -0.496
 -0.472  -0.460  -0.425  -0.421  -0.417  -0.404  -0.397  -0.376
 -0.345  -0.342  -0.339  -0.252  -0.236
 -- Virtual --
 -0.015  -0.011  -0.008   0.001   0.009   0.020   0.022   0.028
  0.031   0.038   0.042   0.049   0.051   0.053   0.057   0.060
  0.063   0.071   0.073   0.080   0.083   0.086   0.091   0.094
  0.097   0.103   0.108   0.111   0.113   0.115   0.119   0.123
  0.124   0.126   0.131   0.132   0.137   0.138   0.140   0.144
  0.146   0.150   0.153   0.155   0.158   0.160   0.165   0.167
  0.170   0.176   0.180   0.182   0.182   0.184   0.191   0.195
  0.197   0.199   0.203   0.204   0.207   0.211   0.214   0.216
  0.223   0.228   0.234   0.236   0.241   0.242   0.245   0.247
  0.249   0.254   0.258   0.265   0.266   0.269   0.270   0.276
  0.283   0.285   0.287   0.289   0.294   0.297   0.301   0.302
  0.312   0.316   0.321   0.328   0.330   0.339   0.345   0.346
  0.355   0.360   0.366   0.373   0.373   0.382   0.387   0.390
  0.393   0.406   0.413   0.418   0.421   0.430   0.437   0.452
  0.474   0.478   0.480   0.494   0.500   0.517   0.523   0.525
  0.527   0.541   0.548   0.552   0.561   0.566   0.574   0.580
  0.586   0.589   0.595   0.603   0.609   0.616   0.620   0.621
  0.627   0.634   0.640   0.646   0.652   0.656   0.662   0.664
  0.671   0.676   0.684   0.685   0.697   0.704   0.710   0.714
  0.716   0.721   0.729   0.743   0.751   0.768   0.771   0.776
  0.784   0.789   0.798   0.813   0.821   0.834   0.837   0.863
  0.875   0.894   0.903   0.909   0.916   0.929   0.940   0.947
  0.959   0.959   0.962   0.971   0.989   1.004   1.015   1.021
  1.028   1.028   1.039   1.048   1.066   1.088   1.095   1.106
  1.118   1.123   1.147   1.153   1.173   1.199   1.212   1.230
  1.243   1.327   1.333   1.335   1.371   1.379   1.417   1.421
  1.432   1.439   1.452   1.455   1.467   1.475   1.482   1.503
  1.508   1.531   1.537   1.544   1.549   1.554   1.561   1.569
  1.585   1.588   1.598   1.613   1.621   1.622   1.634   1.645
  1.653   1.675   1.680   1.695   1.701   1.703   1.722   1.730
  1.737   1.744   1.751   1.759   1.762   1.785   1.795   1.800
  1.806   1.827   1.830   1.833   1.840   1.845   1.856   1.860
  1.867   1.885   1.895   1.905   1.910   1.919   1.927   1.930
  1.947   1.949   1.968   1.981   1.983   1.985   2.010   2.021
  2.038   2.047   2.064   2.083   2.091   2.095   2.100   2.105
  2.106   2.137   2.143   2.154   2.163   2.193   2.209   2.216
  2.231   2.285   2.305   2.311   2.315   2.319   2.327   2.329
  2.336   2.398   2.411   2.412   2.425   2.426   2.435   2.446
  2.451   2.464   2.476   2.487   2.498   2.500   2.503   2.529
  2.537   2.562   2.564   2.577   2.581   2.589   2.593   2.600
  2.620   2.633   2.639   2.660   2.669   2.673   2.689   2.700
  2.725   2.737   2.758   2.764   2.775   2.789   2.800   2.813
  2.828   2.839   2.852   2.861   2.876   2.910   2.926   2.931
  2.939   2.954   2.965   2.970   2.977   2.988   3.008   3.012
  3.027   3.078   3.080   3.104   3.109   3.132   3.180   3.192
  3.195   3.230   3.242   3.303   3.310   3.348   3.368   3.370
  3.394   3.410   3.430   3.446   3.473   3.484   3.514   3.520
  3.537   3.550   3.558   3.597   3.600   3.614   3.649   3.665
  3.682   3.721   3.727   3.734   3.793   3.796   3.854   3.874
  3.984   4.037   4.051   4.079   4.194   4.216   4.294   4.298
  4.383   4.627   4.678   4.838   4.841   4.846   4.856   4.864
  4.900   4.942   5.013   5.194   5.542   7.085   7.145   7.185
  7.235   7.251   7.383   7.589   7.639   7.715   7.767   7.769
  7.784   7.792   7.806   7.840   7.851   7.864   7.889   7.993
  8.065   8.157   8.397   8.542   8.938   9.723  10.002  10.013
 10.211  10.233  10.267  10.275  10.336  23.649  23.932  23.953
 24.007  24.011  24.085  24.116  24.198  69.733  69.888  69.925
 69.977  69.996  70.027  70.044  70.075
 --------------------------------------------------------------
 
          Ground-State Mulliken Net Atomic Charges

     Atom                 Charge (a.u.)
  ----------------------------------------
      1 C                    -0.166592
      2 C                    -0.343097
      3 C                     0.567006
      4 C                    -0.464886
      5 C                    -0.407514
      6 C                     0.599215
      7 H                     0.155532
      8 H                     0.146103
      9 C                    -0.655040
     10 C                    -0.650645
     11 H                     0.155965
     12 H                     0.145613
     13 H                     0.149704
     14 H                     0.145260
     15 H                     0.171850
     16 H                     0.136783
     17 H                     0.164875
     18 H                     0.169370
     19 GH                   -0.048201
     20 GH                   -0.021132
     21 GH                    0.023407
     22 GH                    0.007710
     23 GH                   -0.005563
     24 GH                    0.019374
     25 GH                   -0.001260
     26 GH                   -0.000889
     27 GH                    0.006589
     28 GH                    0.008458
     29 GH                   -0.008655
     30 GH                    0.000368
     31 GH                   -0.000294
     32 GH                    0.000125
     33 GH                   -0.000178
     34 GH                    0.000406
     35 GH                   -0.001879
     36 GH                    0.002112
  ----------------------------------------
  Sum of atomic charges =     0.000000

 -----------------------------------------------------------------
                    Cartesian Multipole Moments
 -----------------------------------------------------------------
    Charge (ESU x 10^10)
                 0.0000
    Dipole Moment (Debye)
         X       0.0894      Y       0.0003      Z       0.0101
       Tot       0.0899
    Quadrupole Moments (Debye-Ang)
        XX     -46.2777     XY       0.0029     YY     -44.7061
        XZ      -0.0723     YZ       0.6766     ZZ     -52.7000
    Octopole Moments (Debye-Ang^2)
       XXX     245.0062    XXY      -0.1689    XYY      79.9260
       YYY      -0.5392    XXZ       0.1934    XYZ      -1.1422
       YYZ      -0.0578    XZZ      94.5752    YZZ      -0.1808
       ZZZ      -0.2404
    Hexadecapole Moments (Debye-Ang^3)
      XXXX   -1172.7779   XXXY       4.5232   XXYY    -369.9412
      XYYY       5.0317   YYYY   -1100.3207   XXXZ       0.5247
      XXYZ     -12.6690   XYYZ       0.4286   YYYZ     -44.4333
      XXZZ    -245.1933   XYZZ       1.4807   YYZZ    -196.6771
      XZZZ       1.7588   YZZZ     -41.8766   ZZZZ     -83.5653
 -----------------------------------------------------------------
Archival summary:
1\1\vega03.cac.cornell.edu\SP\ProcedureUnspecified\BasisUnspecified\810h18\jj585\TueApr1701:11:532018TueApr1701:11:532018\0\\#,ProcedureUnspecified,BasisUnspecified,\\0,1\C\C,1,1.39616\H,2,1.08475,1,118.991\C,2,1.38856,1,121.629,3,179.783,0\H,4,1.08495,2,119.453,1,179.671,0\C,4,1.3959,2,121.575,1,-0.129654,0\C,6,1.40604,4,117.481,2,0.160349,0\H,7,1.032,6,119.504,4,179.742,0\C,1,1.40634,2,117.536,3,-179.6,0\H,9,1.032,1,119.607,2,179.72,0\C,1,1.50976,2,119.611,3,-0.341033,0\H,11,1.09144,1,110.135,2,-7.24194,0\H,11,1.09156,1,111.21,2,113.289,0\H,11,1.09291,1,111.796,2,-127.427,0\C,6,1.51138,4,119.574,2,179.468,0\H,15,1.09144,6,110.104,4,-7.00566,0\H,15,1.09164,6,111.284,4,113.49,0\H,15,1.09319,6,111.89,4,-127.081,0\Gh,13,3.57828,11,136.809,1,-99.6416,0\Gh,19,1.09291,13,134.323,11,63.2579,0\Gh,20,1.09144,19,108.09,13,-102.91,0\Gh,20,1.09156,19,106.802,13,140.321,0\Gh,20,1.50976,19,111.796,13,18.4653,0\Gh,23,1.39616,20,119.611,19,-127.427,0\Gh,24,1.08475,23,118.991,20,-0.341033,0\Gh,24,1.38856,23,121.629,20,179.442,0\Gh,26,1.08495,24,119.453,23,179.671,0\Gh,26,1.3959,24,121.575,23,-0.129654,0\Gh,28,1.40604,26,117.481,24,0.160349,0\Gh,29,1.032,28,119.504,26,179.742,0\Gh,23,1.40634,20,122.848,19,51.7903,0\Gh,31,1.032,23,119.607,20,0.487832,0\Gh,28,1.51138,26,119.574,24,179.468,0\Gh,33,1.09144,28,110.104,26,-7.00566,0\Gh,33,1.09164,28,111.284,26,113.49,0\Gh,33,1.09319,28,111.89,26,-127.081,0\\\@

 Total job time:  129.28s(wall), 514.53s(cpu) 
 Tue Apr 17 01:11:53 2018

        *************************************************************
        *                                                           *
        *  Thank you very much for using Q-Chem.  Have a nice day.  *
        *                                                           *
        *************************************************************


0 sent ACK to 0 
now end server 0 ... 
