mFile = /opt/software/qchem/qchem-5.0.1//bin/mpi/machines
Process 0 of 1 is on vega03.cac.cornell.edu - thread support 0
initial socket setup ...start
initial socket setup ...done 
now start server 0 ... 
vega03 10.84.3
Q-Chem Developer Version! Running on 10.84.3.*
                  Welcome to Q-Chem
     A Quantum Leap Into The Future Of Chemistry


 Q-Chem 5.0, Q-Chem, Inc., Pleasanton, CA (2017)

 Yihan Shao,  Zhengting Gan,  E. Epifanovsky,  A. T. B. Gilbert,  M. Wormit,  
 J. Kussmann,  A. W. Lange,  A. Behn,  Jia Deng,  Xintian Feng,  D. Ghosh,  
 M. Goldey,  P. R. Horn,  L. D. Jacobson,  I. Kaliman,  T. Kus,  A. Landau,  
 Jie Liu,  E. I. Proynov,  R. M. Richard,  R. P. Steele,  E. J. Sundstrom,  
 H. L. Woodcock III,  P. M. Zimmerman,  D. Zuev,  B. Albrecht,  E. Alguire,  
 S. A. Baeppler,  Z. Benda,  Y. A. Bernard,  E. J. Berquist,  K. B. Bravaya,  
 D. Casanova,  Chun-Min Chang,  Yunqing Chen,  A. Chien,  K. D. Closser,  
 M. P. Coons,  S. Dasgupta,  M. Diedenhofen,  Hainam Do,  R. G. Edgar,  
 Po-Tung Fang,  S. Fatehi,  Qingguo Feng,  Qinghui Ge,  A. Ghysels,  
 J. Gomes,  J. Gonthier,  A. Gunina,  M. W. D. Hanson-Heine,  
 P. H. P. Harbach,  A. W. Hauser,  J. E. Herr,  E. G. Hohenstein,  
 Z. C. Holden,  Kerwin Hui,  T.-C. Jagau,  Hyunjun Ji,  B. Kaduk,  
 K. Khistyaev,  Jaehoon Kim,  P. Klunzinger,  K. Koh,  D. Kosenkov,  
 T. Kowalczyk,  C. M. Krauter,  A. Kunitsa,  Ka Un Lao,  A. Laurent,  
 K. V. Lawler,  Joonho Lee,  D. Lefrancois,  S. Lehtola,  D. S. Levine,  
 Yi-Pei Li,  You-Sheng Lin,  Fenglai Liu,  E. Livshits,  A. Luenser,  
 P. Manohar,  E. Mansoor,  S. F. Manzer,  Shan-Ping Mao,  Yuezhi Mao,  
 N. Mardirossian,  A. V. Marenich,  L. A. Martinez-Martinez,  S. A. Maurer,  
 N. J. Mayhall,  S. C. McKenzie,  J.-M. Mewes,  A. F. Morrison,  K. Nanda,  
 T. S. Nguyen-Beck,  R. Olivares-Amaya,  J. A. Parkhill,  T. M. Perrine,  
 F. Plasser,  S. Prager,  A. Prociuk,  D. R. Rehn,  F. Rob,  M. Schneider,  
 N. Sergueev,  S. M. Sharada,  S. Sharma,  D. W. Small,  T. Stauch,  
 T. Stein,  Yu-Chuan Su,  A. J. W. Thom,  T. Tsuchimochi,  L. Vogt,  
 O. Vydrov,  M. A. Watson,  J. Wenzel,  M. de Wergifosse,  T. A. Wesolowski,  
 A. White,  J. Witte,  A. Yamada,  Jun Yang,  K. Yao,  S. Yeganeh,  
 S. R. Yost,  Zhi-Qiang You,  A. Zech,  Igor Ying Zhang,  Xing Zhang,  
 Yan Zhao,  Ying Zhu,  B. R. Brooks,  G. K. L. Chan,  C. J. Cramer,  
 M. S. Gordon,  W. J. Hehre,  A. Klamt,  M. W. Schmidt,  C. D. Sherrill,  
 D. G. Truhlar,  A. Aspuru-Guzik,  R. Baer,  A. T. Bell,  N. A. Besley,  
 Jeng-Da Chai,  A. Dreuw,  B. D. Dunietz,  T. R. Furlani,  Chao-Ping Hsu,  
 Yousung Jung,  Jing Kong,  D. S. Lambrecht,  WanZhen Liang,  C. Ochsenfeld,  
 V. A. Rassolov,  L. V. Slipchenko,  J. E. Subotnik,  T. Van Voorhis,  
 J. M. Herbert,  A. I. Krylov,  P. M. W. Gill,  M. Head-Gordon

 Contributors to earlier versions of Q-Chem not listed above: 
 R. D. Adamson,  B. Austin,  J. Baker,  G. J. O. Beran,  K. Brandhorst,  
 S. T. Brown,  E. F. C. Byrd,  A. K. Chakraborty,  C.-L. Cheng,  
 Siu Hung Chien,  D. M. Chipman,  D. L. Crittenden,  H. Dachsel,  
 R. A. DiStasio Jr.,  R. J. Doerksen,  A. D. Dutoi,  L. Fusti-Molnar,  
 W. A. Goddard III,  A. Golubeva-Zadorozhnaya,  S. R. Gwaltney,  G. Hawkins,  
 A. Heyden,  S. Hirata,  G. Kedziora,  F. J. Keil,  C. Kelley,  Jihan Kim,  
 R. A. King,  R. Z. Khaliullin,  P. P. Korambath,  W. Kurlancheek,  
 A. M. Lee,  M. S. Lee,  S. V. Levchenko,  Ching Yeh Lin,  D. Liotard,  
 R. C. Lochan,  I. Lotan,  P. E. Maslen,  N. Nair,  D. P. O'Neill,  
 D. Neuhauser,  E. Neuscamman,  C. M. Oana,  R. Olson,  B. Peters,  
 R. Peverati,  P. A. Pieniazek,  Y. M. Rhee,  J. Ritchie,  M. A. Rohrdanz,  
 E. Rosta,  N. J. Russ,  H. F. Schaefer III,  N. E. Schultz,  N. Shenvi,  
 A. C. Simmonett,  A. Sodt,  D. Stuck,  K. S. Thanthiriwatte,  V. Vanovschi,  
 Tao Wang,  A. Warshel,  C. F. Williams,  Q. Wu,  X. Xu,  W. Zhang

 Please cite Q-Chem as follows:
 Y. Shao et al., Mol. Phys. 113, 184-215 (2015)
 DOI: 10.1080/00268976.2014.952696

 Q-Chem 5.0.1 for Intel X86 EM64T Linux

 Parts of Q-Chem use Armadillo 5.200.1 (Boston Tea Smuggler).
 http://arma.sourceforge.net/

 Q-Chem begins on Mon Apr  2 12:54:25 2018  

Host: vega03.cac.cornell.edu
0

     Scratch files written to /scratch/jj585/vdw/1111_distance_4.400_11.save//
 Parallel job on  1  processors

Checking the input file for inconsistencies... 	...done.

--------------------------------------------------------------
User input:
--------------------------------------------------------------
$molecule
0  1
--
0  1
C        +0.22270000        +1.04488000        +0.58595000
C        +0.62626000        -0.41353000        +0.99871000
C        -1.18200000        +1.23223000        +0.04377000
C        -0.37457000        -1.51643000        +0.72333000
O        -2.09172000        +0.78832000        +0.93966000
O        -1.47336000        +1.75939000        -0.99882000
O        -0.91364000        -1.42792000        -0.50620000
O        -0.62208000        -2.40877000        +1.49911000
C        -1.86134000        -2.44741000        -0.86560000
C        -3.47068000        +0.87492000        +0.53920000
C        +1.33008000        +1.39974000        -0.43491000
C        +2.63070000        +1.71700000        +0.32855000
C        +3.04336000        +0.29351000        +0.80300000
C        +1.94423000        -0.59299000        +0.15262000
O        +1.62840000        +0.13663000        -1.04376000
H        +0.27811000        +1.68786000        +1.46900000
H        +0.83923000        -0.48042000        +2.06408000
H        -2.68749000        -2.46677000        -0.15296000
H        -3.76076000        +1.91522000        +0.38406000
H        +3.37234000        +2.13782000        -0.35195000
H        +2.48236000        +2.42488000        +1.14651000
H        +4.02182000        +0.00994000        +0.41161000
H        +3.07359000        +0.18738000        +1.88928000
H        -2.21148000        -2.17765000        -1.85937000
H        -1.38062000        -3.42697000        -0.88096000
H        -4.03855000        +0.43623000        +1.35671000
H        -3.63120000        +0.31700000        -0.38495000
C        +0.90028000        +2.39077000        -1.49430000
C        +2.35450000        -2.01267000        -0.16812000
H        +3.26311000        -2.00678000        -0.77366000
H        +2.54990000        -2.57059000        +0.75079000
H        +1.57335000        -2.52896000        -0.72872000
H        +1.71845000        +2.58186000        -2.15686000
H        +0.59919000        +3.30478000        -1.02650000
H        +0.07925000        +1.98653000        -2.04874000
--
0  1
C        +0.24565000        +2.34504000        +4.78941000
C        +0.64921000        +0.88663000        +5.20217000
C        -1.15905000        +2.53239000        +4.24723000
C        -0.35162000        -0.21627000        +4.92679000
O        -2.06877000        +2.08848000        +5.14312000
O        -1.45041000        +3.05955000        +3.20464000
O        -0.89069000        -0.12776000        +3.69726000
O        -0.59913000        -1.10861000        +5.70257000
C        -1.83839000        -1.14725000        +3.33786000
C        -3.44773000        +2.17508000        +4.74266000
C        +1.35303000        +2.69990000        +3.76855000
C        +2.65365000        +3.01716000        +4.53201000
C        +3.06631000        +1.59367000        +5.00646000
C        +1.96718000        +0.70717000        +4.35608000
O        +1.65135000        +1.43679000        +3.15970000
H        +0.30106000        +2.98802000        +5.67246000
H        +0.86218000        +0.81974000        +6.26754000
H        -2.66454000        -1.16661000        +4.05050000
H        -3.73781000        +3.21538000        +4.58752000
H        +3.39529000        +3.43798000        +3.85151000
H        +2.50531000        +3.72504000        +5.34997000
H        +4.04477000        +1.31010000        +4.61507000
H        +3.09654000        +1.48754000        +6.09274000
H        -2.18853000        -0.87749000        +2.34409000
H        -1.35767000        -2.12681000        +3.32250000
H        -4.01560000        +1.73639000        +5.56017000
H        -3.60825000        +1.61716000        +3.81851000
C        +0.92323000        +3.69093000        +2.70916000
C        +2.37745000        -0.71251000        +4.03534000
H        +3.28606000        -0.70662000        +3.42980000
H        +2.57285000        -1.27043000        +4.95425000
H        +1.59630000        -1.22880000        +3.47474000
H        +1.74140000        +3.88202000        +2.04660000
H        +0.62214000        +4.60494000        +3.17696000
H        +0.10220000        +3.28669000        +2.15472000
$end

$rem
JOBTYPE                   SP
METHOD                    B3LYP
DFT_D                     d3_op
BASIS                     6-311++G(d,p)
SYMMETRY                  False
THRESH                    12
SCF_CONVERGENCE           8
MAX_SUB_FILE_NUM          128
MEM_STATIC                400
MEM_TOTAL                 4000
$end
--------------------------------------------------------------
 Adding empirical dispersion correction 
 ----------------------------------------------------------------
 Doing -D3(op) with
 s6 =   1.00000
 s8 =   0.78311
 a1 =   0.30000
 a2 =   4.25000
 n  =  10.00000
 -D3 energy without 3body term =     -0.1137465717 hartrees
 ----------------------------------------------------------------
             Standard Nuclear Orientation (Angstroms)
    I     Atom           X                Y                Z
 ----------------------------------------------------------------
    1      C      -1.3139446725     0.2656981721     0.8787410660
    2      C      -1.4574370720     0.4174657044    -0.6757902996
    3      C      -1.7750320754    -1.0501496293     1.4772260159
    4      C      -2.1361216805    -0.7103328200    -1.4250171902
    5      O      -1.1209492531    -2.0816101818     0.8979762866
    6      O      -2.5568152641    -1.1795529155     2.3837865813
    7      O      -3.2571187158    -1.1340577807    -0.8134639950
    8      O      -1.7461837104    -1.1454117468    -2.4823824020
    9      C      -3.9824104352    -2.1907221000    -1.4646751345
   10      C      -1.4866868611    -3.3978164325     1.3487928356
   11      C      -2.1133407671     1.4886298497     1.3884225543
   12      C      -1.2632878769     2.7589348746     1.1912609678
   13      C      -1.3364288316     2.9200491650    -0.3548332869
   14      C      -2.2863652957     1.7560508183    -0.7544477438
   15      O      -3.1374091132     1.6441383699     0.3973417605
   16      H      -0.2557901458     0.3467144018     1.1433468466
   17      H      -0.4871207917     0.5354571451    -1.1547559206
   18      H      -3.3416007711    -3.0632361896    -1.6019214077
   19      H      -1.2548114275    -3.5190052124     2.4080312313
   20      H      -1.7285324146     3.6046363109     1.6997255317
   21      H      -0.2455748120     2.6535880758     1.5724690228
   22      H      -1.7867322080     3.8734528501    -0.6363121158
   23      H      -0.3643623930     2.8504552784    -0.8472002213
   24      H      -4.8142269909    -2.4196876963    -0.8024038430
   25      H      -4.3471547418    -1.8594568226    -2.4383744455
   26      H      -0.8974016867    -4.0853552979     0.7460647501
   27      H      -2.5537882257    -3.5668119356     1.1944237424
   28      C      -2.7431756135     1.2921804861     2.7499993559
   29      C      -3.0978199685     1.9767168270    -2.0112431724
   30      H      -3.6424521545     2.9203044708    -1.9384169667
   31      H      -2.4440988072     2.0165122881    -2.8858381867
   32      H      -3.8227394909     1.1737721907    -2.1554466528
   33      H      -3.2745794554     2.1782016214     3.0283512827
   34      H      -1.9783612904     1.0935134257     3.4714539688
   35      H      -3.4220033358     0.4659023977     2.7131022522
   36      C       3.0731545043     0.1551253605     0.5606952117
   37      C       2.9296621049     0.3068928928    -0.9938361539
   38      C       2.6120671014    -1.1607224409     1.1591801616
   39      C       2.2509774963    -0.8209056317    -1.7430630445
   40      O       3.2661499238    -2.1921829934     0.5799304324
   41      O       1.8302839128    -1.2901257271     2.0657407270
   42      O       1.1299804611    -1.2446305923    -1.1315098492
   43      O       2.6409154664    -1.2559845585    -2.8004282563
   44      C       0.4046887417    -2.3012949116    -1.7827209887
   45      C       2.9004123158    -3.5083892442     1.0307469813
   46      C       2.2737584097     1.3780570381     1.0703767000
   47      C       3.1238113000     2.6483620630     0.8732151135
   48      C       3.0506703453     2.8094763534    -0.6728791411
   49      C       2.1007338812     1.6454780066    -1.0724935981
   50      O       1.2496900637     1.5335655583     0.0792959062
   51      H       4.1313090310     0.2361415902     0.8253009923
   52      H       3.8999783852     0.4248843335    -1.4728017748
   53      H       1.0454984058    -3.1738090012    -1.9199672620
   54      H       3.1322877494    -3.6295780240     2.0899853770
   55      H       2.6585667622     3.4940634993     1.3816796774
   56      H       4.1415243649     2.5430152642     1.2544231685
   57      H       2.6003669688     3.7628800384    -0.9543579701
   58      H       4.0227367838     2.7398824667    -1.1652460756
   59      H      -0.4271278140    -2.5302605080    -1.1204496973
   60      H       0.0399444351    -1.9700296342    -2.7564202998
   61      H       3.4896974901    -4.1959281095     0.4280188958
   62      H       1.8333109512    -3.6773847472     0.8763778881
   63      C       1.6439235634     1.1816076744     2.4319535016
   64      C       1.2892792083     1.8661440154    -2.3292890267
   65      H       0.7446470223     2.8097316592    -2.2564628210
   66      H       1.9430003697     1.9059394765    -3.2038840410
   67      H       0.5643596859     1.0631993791    -2.4734925071
   68      H       1.1125197215     2.0676288098     2.7103054284
   69      H       2.4087378865     0.9829406141     3.1534081146
   70      H       0.9650958411     0.3553295861     2.3950563980
 ----------------------------------------------------------------
 Molecular Point Group                 C1    NOp =  1
 Largest Abelian Subgroup              C1    NOp =  1
 Nuclear Repulsion Energy =  4532.2489187625 hartrees
 There are      130 alpha and      130 beta electrons
 Requested basis set is 6-311++G(d,p)
 There are 384 shells and 1000 basis functions

 Total QAlloc Memory Limit   4000 MB
 Mega-Array Size       392 MB
 MEM_STATIC part       400 MB
 A cutoff of  1.0D-12 yielded  55081 shell pairs
 There are    371841 function pairs (    394386 Cartesian)
 
 -------------------------------------------------------
 OpenMP Integral Computing Module                       
 Release: version 1.0, May 2013, Q-Chem Inc. Pittsburgh 
 -------------------------------------------------------
 Integral Job Info:
 Integral job number is                      11
 Integral operator is                         1
 short-range coefficients                     0
 long-range coefficients              100000000
 Omega coefficients                           0
 if combine SR and LR in K                    0
 Integral screening is                        0
 Integral computing path is                   2
 max size of driver memory is            800000
 size of driver memory is                593474
 size of scratch memory is              2361544
 max col of scratch BK array               1296
 max len of scratch array in speh3          155
 max len of scratch index in speh4           18
 max int batch size is                      520
 min int batch size is                       52
 fixed nKL is                                52
 max L of basis functions is                  2
 order of int derivative is                   0
 number of shells is                        384
 number of basis is                        1034
 number of cartesian basis is              1034
 number of contracted shell pairs         55081
 number of primitive shell pairs         115094
 maxK2 (contraction) of shell pair           36
 max number of K2 of shell pair               1
 max number of CS2 of shell pair          10995
 max number of PS2 of shell pair          17946
 mem total for path MDJ                  634392
 -------------------------------------------------------
 Smallest overlap matrix eigenvalue = 1.26E-07
 Linear dependence detected in AO basis
 Number of orthogonalized atomic orbitals = 993
 Maximum deviation from orthogonality = 3.210E-10

 Scale SEOQF with 1.000000e-01/1.000000e-01/1.000000e-01

 Standard Electronic Orientation quadrupole field applied
 Nucleus-field energy     =     0.0000000512 hartrees
 Guess from superposition of atomic densities
 Warning:  Energy on first SCF cycle will be non-variational
 A restricted hybrid HF-DFT SCF calculation will be
 performed using Pulay DIIS extrapolation
 Exchange:     0.2000 Hartree-Fock + 0.0800 Slater + 0.7200 B88
 Correlation:  0.1900 VWN1RPA + 0.8100 LYP
 Using SG-1 standard quadrature grid
 Dispersion:   Grimme D3
 SCF converges when DIIS error is below 1.0E-08
 using 2 threads for integral computing
 -------------------------------------------------------
 OpenMP Integral computing Module                
 Release: version 1.0, May 2013, Q-Chem Inc. Pittsburgh 
 -------------------------------------------------------
 -------------------------------------------------------
 OpenMP BLAS3 based DFT computing Module                
 Release: version 1.0, May 2013, Q-Chem Inc. Pittsburgh 
 -------------------------------------------------------
 ---------------------------------------
  Cycle       Energy         DIIS Error
 ---------------------------------------
    1   -1696.3714348693      2.02E-02
    2   -1688.3046009041      2.64E-03
    3   -1687.3786707407      4.18E-03
    4   -1688.9098626618      1.08E-03
    5   -1689.0184094890      2.44E-04
    6   -1689.0225668980      1.18E-04
    7   -1689.0237901061      2.64E-05
    8   -1689.0238324905      1.48E-05
    9   -1689.0238511310      2.95E-06
   10   -1689.0238518653      1.04E-06
   11   -1689.0238519631      3.01E-07
   12   -1689.0238519709      1.12E-07
   13   -1689.0238519718      4.50E-08
   14   -1689.0238519718      1.44E-08
   15   -1689.0238519723      5.24E-09 Convergence criterion met
 ---------------------------------------
 SCF time:  CPU 8423.33 s  wall 4228.82 s
 SCF   energy in the final basis set = -1689.02385197
 Total energy in the final basis set = -1689.02385197
 
 --------------------------------------------------------------
 
                    Orbital Energies (a.u.)
 --------------------------------------------------------------
 
 Alpha MOs
 -- Occupied --
-19.181 -19.171 -19.169 -19.168 -19.139 -19.124 -19.114 -19.114
-19.111 -19.106 -10.318 -10.304 -10.301 -10.300 -10.253 -10.244
-10.236 -10.230 -10.230 -10.229 -10.216 -10.212 -10.209 -10.205
-10.187 -10.186 -10.185 -10.182 -10.177 -10.161 -10.159 -10.156
-10.151 -10.125  -1.125  -1.117  -1.111  -1.108  -1.078  -1.047
 -1.040  -1.029  -1.025  -1.023  -0.841  -0.818  -0.817  -0.792
 -0.792  -0.770  -0.749  -0.743  -0.736  -0.725  -0.722  -0.710
 -0.682  -0.664  -0.653  -0.632  -0.609  -0.594  -0.591  -0.572
 -0.572  -0.566  -0.562  -0.552  -0.532  -0.523  -0.519  -0.510
 -0.508  -0.502  -0.501  -0.493  -0.487  -0.486  -0.482  -0.480
 -0.475  -0.470  -0.469  -0.465  -0.463  -0.451  -0.449  -0.443
 -0.440  -0.433  -0.428  -0.427  -0.418  -0.415  -0.413  -0.408
 -0.405  -0.401  -0.398  -0.391  -0.390  -0.381  -0.379  -0.376
 -0.373  -0.368  -0.367  -0.364  -0.363  -0.359  -0.355  -0.352
 -0.349  -0.341  -0.337  -0.335  -0.333  -0.328  -0.325  -0.320
 -0.318  -0.314  -0.308  -0.300  -0.289  -0.284  -0.280  -0.276
 -0.259  -0.257
 -- Virtual --
 -0.026  -0.015  -0.012  -0.010  -0.005   0.002   0.003   0.003
  0.007   0.013   0.014   0.019   0.020   0.021   0.025   0.030
  0.034   0.036   0.040   0.041   0.042   0.045   0.049   0.053
  0.055   0.057   0.061   0.063   0.065   0.067   0.069   0.071
  0.071   0.079   0.082   0.085   0.087   0.087   0.089   0.092
  0.095   0.097   0.099   0.101   0.102   0.105   0.107   0.109
  0.112   0.114   0.115   0.116   0.118   0.119   0.120   0.121
  0.124   0.128   0.129   0.129   0.130   0.133   0.136   0.136
  0.138   0.140   0.140   0.143   0.144   0.145   0.148   0.149
  0.151   0.153   0.154   0.156   0.157   0.158   0.158   0.160
  0.163   0.164   0.167   0.168   0.169   0.170   0.171   0.173
  0.174   0.176   0.177   0.179   0.182   0.182   0.185   0.188
  0.189   0.191   0.191   0.195   0.197   0.198   0.199   0.203
  0.203   0.204   0.208   0.209   0.210   0.211   0.215   0.216
  0.219   0.219   0.220   0.222   0.225   0.227   0.230   0.231
  0.235   0.235   0.238   0.239   0.243   0.246   0.247   0.250
  0.253   0.254   0.256   0.258   0.261   0.261   0.263   0.264
  0.265   0.267   0.272   0.276   0.278   0.279   0.281   0.284
  0.287   0.289   0.294   0.295   0.297   0.299   0.301   0.303
  0.305   0.307   0.309   0.312   0.316   0.317   0.322   0.323
  0.326   0.328   0.330   0.333   0.334   0.335   0.337   0.338
  0.341   0.343   0.345   0.348   0.349   0.353   0.355   0.357
  0.359   0.361   0.362   0.363   0.365   0.370   0.371   0.373
  0.376   0.378   0.381   0.382   0.385   0.388   0.390   0.391
  0.393   0.395   0.399   0.400   0.403   0.405   0.407   0.410
  0.415   0.419   0.421   0.425   0.426   0.429   0.430   0.436
  0.440   0.441   0.446   0.448   0.449   0.457   0.459   0.464
  0.469   0.471   0.474   0.475   0.481   0.484   0.489   0.491
  0.494   0.495   0.501   0.506   0.510   0.511   0.516   0.521
  0.527   0.535   0.536   0.539   0.547   0.548   0.550   0.553
  0.554   0.559   0.563   0.571   0.572   0.574   0.578   0.583
  0.585   0.589   0.592   0.598   0.602   0.603   0.607   0.610
  0.615   0.618   0.625   0.628   0.630   0.637   0.639   0.644
  0.645   0.650   0.652   0.656   0.656   0.661   0.663   0.670
  0.675   0.678   0.681   0.683   0.691   0.693   0.697   0.700
  0.703   0.706   0.709   0.714   0.718   0.720   0.721   0.726
  0.727   0.729   0.732   0.736   0.742   0.742   0.744   0.748
  0.753   0.757   0.762   0.766   0.767   0.771   0.772   0.774
  0.777   0.782   0.787   0.789   0.794   0.798   0.802   0.805
  0.809   0.812   0.815   0.821   0.823   0.826   0.826   0.834
  0.837   0.842   0.847   0.852   0.854   0.863   0.867   0.870
  0.873   0.878   0.882   0.890   0.892   0.899   0.907   0.913
  0.918   0.927   0.934   0.943   0.950   0.956   0.973   0.976
  0.987   0.992   0.997   1.006   1.015   1.025   1.033   1.035
  1.043   1.059   1.063   1.075   1.081   1.085   1.103   1.111
  1.114   1.118   1.123   1.129   1.135   1.140   1.144   1.149
  1.158   1.173   1.182   1.187   1.189   1.191   1.202   1.203
  1.211   1.217   1.224   1.230   1.233   1.237   1.246   1.254
  1.258   1.262   1.272   1.274   1.282   1.289   1.291   1.300
  1.301   1.307   1.314   1.317   1.321   1.327   1.336   1.339
  1.342   1.345   1.346   1.355   1.363   1.368   1.375   1.377
  1.386   1.394   1.397   1.405   1.408   1.416   1.423   1.428
  1.432   1.438   1.446   1.449   1.460   1.465   1.474   1.478
  1.481   1.492   1.494   1.499   1.503   1.511   1.515   1.522
  1.525   1.535   1.538   1.547   1.551   1.555   1.560   1.570
  1.572   1.574   1.579   1.583   1.589   1.590   1.593   1.597
  1.601   1.603   1.608   1.612   1.613   1.619   1.623   1.625
  1.630   1.633   1.636   1.643   1.646   1.650   1.658   1.663
  1.666   1.668   1.677   1.682   1.686   1.688   1.690   1.695
  1.698   1.703   1.707   1.713   1.715   1.722   1.724   1.724
  1.729   1.737   1.739   1.742   1.745   1.748   1.753   1.757
  1.757   1.766   1.771   1.774   1.780   1.781   1.788   1.789
  1.792   1.797   1.802   1.809   1.812   1.819   1.824   1.832
  1.837   1.842   1.844   1.849   1.854   1.859   1.862   1.869
  1.869   1.876   1.881   1.893   1.897   1.901   1.913   1.918
  1.920   1.925   1.928   1.933   1.941   1.951   1.954   1.959
  1.975   1.982   1.985   1.991   2.001   2.006   2.011   2.021
  2.027   2.039   2.043   2.045   2.052   2.054   2.060   2.067
  2.073   2.081   2.086   2.093   2.103   2.108   2.119   2.124
  2.126   2.129   2.134   2.144   2.146   2.157   2.161   2.162
  2.165   2.179   2.189   2.192   2.195   2.204   2.211   2.220
  2.222   2.233   2.238   2.245   2.250   2.254   2.266   2.269
  2.278   2.282   2.289   2.292   2.304   2.310   2.325   2.341
  2.342   2.357   2.369   2.373   2.408   2.420   2.423   2.425
  2.439   2.457   2.459   2.463   2.469   2.476   2.478   2.485
  2.495   2.502   2.516   2.517   2.522   2.529   2.534   2.535
  2.544   2.548   2.549   2.556   2.563   2.566   2.569   2.580
  2.584   2.588   2.593   2.598   2.610   2.610   2.618   2.625
  2.628   2.631   2.634   2.643   2.650   2.653   2.659   2.672
  2.674   2.677   2.682   2.686   2.692   2.698   2.704   2.708
  2.721   2.735   2.740   2.745   2.751   2.757   2.766   2.773
  2.787   2.793   2.803   2.807   2.809   2.820   2.824   2.834
  2.843   2.849   2.857   2.861   2.871   2.876   2.880   2.883
  2.899   2.902   2.914   2.918   2.928   2.934   2.946   2.958
  2.966   2.974   2.975   2.986   2.993   3.001   3.004   3.015
  3.021   3.025   3.029   3.040   3.058   3.060   3.064   3.077
  3.082   3.085   3.092   3.098   3.104   3.108   3.116   3.122
  3.127   3.129   3.132   3.143   3.150   3.161   3.162   3.174
  3.180   3.183   3.189   3.192   3.209   3.217   3.221   3.234
  3.247   3.251   3.256   3.263   3.266   3.277   3.280   3.289
  3.305   3.309   3.322   3.329   3.347   3.360   3.376   3.381
  3.390   3.399   3.407   3.412   3.417   3.432   3.441   3.451
  3.463   3.472   3.481   3.551   3.592   3.610   3.622   3.624
  3.634   3.679   3.716   3.729   3.736   3.749   3.769   3.777
  3.788   3.794   3.801   3.806   3.839   3.848   3.854   3.859
  3.867   3.869   3.877   3.895   3.918   3.926   3.930   3.932
  3.947   3.968   4.008   4.014   4.050   4.079   4.093   4.099
  4.119   4.124   4.137   4.147   4.157   4.176   4.180   4.189
  4.203   4.212   4.220   4.227   4.258   4.279   4.293   4.305
  4.335   4.342   4.352   4.463   4.495   4.537   4.557   5.102
  5.112   5.191   5.201   5.212   5.238   5.244   5.266   5.289
  5.302   5.330   5.346   5.372   5.375   5.441   5.474   5.505
  5.556   5.573   5.653   5.660   5.671   5.691   5.702   5.726
  5.739   5.943   5.955   5.967   5.979  23.814  23.831  23.869
 23.880  23.896  23.900  23.923  23.929  23.944  23.953  23.965
 23.971  23.976  23.989  23.994  24.002  24.011  24.021  24.042
 24.055  24.069  24.114  24.121  24.148  49.948  49.964  49.980
 49.999  50.029  50.055  50.065  50.072  50.087  50.106
 --------------------------------------------------------------
 
          Ground-State Mulliken Net Atomic Charges

     Atom                 Charge (a.u.)
  ----------------------------------------
      1 C                     0.416868
      2 C                     0.650314
      3 C                    -0.027270
      4 C                    -0.171134
      5 O                     0.038845
      6 O                    -0.096180
      7 O                     0.129156
      8 O                    -0.027638
      9 C                    -0.163307
     10 C                    -0.257100
     11 C                    -1.459713
     12 C                     0.043109
     13 C                     0.269197
     14 C                    -1.726752
     15 O                     0.209952
     16 H                    -0.109465
     17 H                    -0.052504
     18 H                     0.194265
     19 H                     0.205442
     20 H                     0.195704
     21 H                     0.109833
     22 H                     0.197872
     23 H                     0.027579
     24 H                     0.175875
     25 H                     0.178098
     26 H                     0.126308
     27 H                     0.200306
     28 C                    -0.295770
     29 C                    -0.059660
     30 H                     0.189595
     31 H                     0.158346
     32 H                     0.191151
     33 H                     0.140043
     34 H                     0.141814
     35 H                     0.212907
     36 C                    -0.243994
     37 C                     0.213565
     38 C                    -0.595395
     39 C                    -0.715829
     40 O                     0.097380
     41 O                    -0.071563
     42 O                     0.011158
     43 O                    -0.073927
     44 C                    -0.346117
     45 C                    -0.149420
     46 C                     0.062114
     47 C                    -0.248548
     48 C                    -0.200493
     49 C                    -0.183749
     50 O                     0.263236
     51 H                     0.254237
     52 H                     0.284157
     53 H                     0.214949
     54 H                     0.167765
     55 H                     0.179598
     56 H                     0.157354
     57 H                     0.176627
     58 H                     0.154636
     59 H                     0.107207
     60 H                     0.252147
     61 H                     0.174130
     62 H                     0.169036
     63 C                    -0.834163
     64 C                    -0.507738
     65 H                     0.245320
     66 H                     0.200873
     67 H                     0.257804
     68 H                     0.157939
     69 H                     0.167788
     70 H                     0.245832
  ----------------------------------------
  Sum of atomic charges =     0.000000

 -----------------------------------------------------------------
                    Cartesian Multipole Moments
 -----------------------------------------------------------------
    Charge (ESU x 10^10)
                 0.0000
    Dipole Moment (Debye)
         X       3.1169      Y      -0.4644      Z       0.3777
       Tot       3.1739
    Quadrupole Moments (Debye-Ang)
        XX    -201.8862     XY      12.7579     YY    -182.1260
        XZ      17.5744     YZ      -7.0817     ZZ    -221.3770
    Octopole Moments (Debye-Ang^2)
       XXX      31.8105    XXY     -32.3492    XYY       1.9246
       YYY    -112.0769    XXZ      -8.6013    XYZ     -24.5898
       YYZ       6.9417    XZZ      -9.8076    YZZ      21.1374
       ZZZ      21.8869
    Hexadecapole Moments (Debye-Ang^3)
      XXXX   -7006.0280   XXXY     218.7923   XXYY   -1856.7591
      XYYY     -42.8958   YYYY   -4450.0166   XXXZ     267.8553
      XXYZ     -35.7636   XYYZ      55.4536   YYYZ     -69.4642
      XXZZ   -1832.1865   XYZZ      25.0903   YYZZ   -1343.6941
      XZZZ     117.3503   YZZZ     -63.2977   ZZZZ   -3533.6235
 -----------------------------------------------------------------
Archival summary:
1\1\vega03.cac.cornell.edu\SP\ProcedureUnspecified\BasisUnspecified\102436\jj585\MonApr214:04:572018MonApr214:04:572018\0\\#,ProcedureUnspecified,BasisUnspecified,\\0,1\O\C,1,1.43358\C,1,1.43646,2,98.0224\C,3,1.51218,1,111.091,2,-178.393,0\H,4,1.09134,3,111.033,1,-57.0184,0\H,4,1.09192,3,109.775,1,62.6469,0\H,4,1.09264,3,110.458,1,-177.522,0\C,2,1.513,1,109.807,3,-177.944,0\H,8,1.07,2,109.471,1,-64.7983,0\H,8,1.07,2,109.471,1,55.2018,0\H,8,1.07,2,109.471,1,175.202,0\C,2,1.54115,1,102.483,3,57.1986,0\H,12,1.09096,2,110.128,1,81.1589,0\H,12,1.09186,2,112.95,1,-157.962,0\C,2,1.54738,1,103.124,3,-55.9256,0\H,15,1.09374,2,111.197,1,147.786,0\C,15,1.51731,2,113.483,1,-93.8005,0\O,17,1.20407,15,125.979,2,-9.23641,0\O,17,1.35176,15,110.223,2,174.335,0\C,19,1.43854,17,116.158,15,-178.482,0\H,20,1.08777,19,105.482,17,177.492,0\H,20,1.09107,19,110.6,17,-62.8398,0\H,20,1.09137,19,110.239,17,57.9539,0\C,3,1.55466,1,102.371,2,-54.4128,0\H,24,1.09132,3,109.614,1,-87.4148,0\H,24,1.09187,3,112.355,1,152.676,0\C,15,1.5685,2,101.696,1,32.1918,0\H,27,1.08851,15,111.41,2,119.274,0\C,27,1.51456,15,117.337,2,-119.387,0\O,29,1.20804,27,123.816,15,-137.891,0\O,29,1.34543,27,112.521,15,44.9607,0\C,31,1.43759,29,116.484,27,179.042,0\H,32,1.08763,31,105.353,29,177.393,0\H,32,1.09122,31,110.39,29,57.5626,0\H,32,1.09127,31,110.468,29,-63.158,0\H,10,1.74855,8,118.129,2,-52.1598,0\C,36,1.09374,10,148.11,8,-126.79,0\C,37,1.51731,36,105.237,10,-55.454,0\O,38,1.20407,37,125.979,36,112.562,0\O,38,1.35176,37,110.223,36,-63.8664,0\C,40,1.43854,38,116.158,37,-178.482,0\H,41,1.08777,40,105.482,38,177.492,0\H,41,1.09107,40,110.6,38,-62.8398,0\H,41,1.09137,40,110.239,38,57.9539,0\C,37,1.54738,36,111.197,10,67.8169,0\O,45,1.43358,37,103.124,36,147.786,0\C,46,1.43646,45,98.0224,37,-55.9256,0\C,47,1.51218,46,111.091,45,-178.393,0\H,48,1.09134,47,111.033,46,-57.0184,0\H,48,1.09192,47,109.775,46,62.6469,0\H,48,1.09264,47,110.458,46,-177.522,0\C,45,1.513,37,114.133,36,-93.1535,0\H,52,1.07,45,109.471,37,180,0\H,52,1.07,45,109.471,37,-60.0002,0\H,52,1.07,45,109.471,37,60.0002,0\C,45,1.54115,37,108.926,36,39.451,0\H,56,1.09096,45,110.128,37,-170.072,0\H,56,1.09186,45,112.95,37,-49.1929,0\C,47,1.55466,46,102.371,45,-54.4128,0\H,59,1.09132,47,109.614,46,-87.4148,0\H,59,1.09187,47,112.355,46,152.676,0\C,37,1.5685,36,108.73,10,178.984,0\H,62,1.08851,37,111.41,36,1.88124,0\C,62,1.51456,37,117.337,36,123.22,0\O,64,1.20804,62,123.816,37,-137.891,0\O,64,1.34543,62,112.521,37,44.9607,0\C,66,1.43759,64,116.484,62,179.042,0\H,67,1.08763,66,105.353,64,177.393,0\H,67,1.09122,66,110.39,64,57.5626,0\H,67,1.09127,66,110.468,64,-63.158,0\\\@

 Total job time:  4232.11s(wall), 8427.34s(cpu) 
 Mon Apr  2 14:04:57 2018

        *************************************************************
        *                                                           *
        *  Thank you very much for using Q-Chem.  Have a nice day.  *
        *                                                           *
        *************************************************************


0 sent ACK to 0 
now end server 0 ... 
