r0239.ten.osc.edu 10.25.157
Q-Chem Developer Version! Running on 10.25.157.*
                  Welcome to Q-Chem
     A Quantum Leap Into The Future Of Chemistry


 Q-Chem 5.0, Q-Chem, Inc., Pleasanton, CA (2017)

 Yihan Shao,  Zhengting Gan,  E. Epifanovsky,  A. T. B. Gilbert,  M. Wormit,  
 J. Kussmann,  A. W. Lange,  A. Behn,  Jia Deng,  Xintian Feng,  D. Ghosh,  
 M. Goldey,  P. R. Horn,  L. D. Jacobson,  I. Kaliman,  T. Kus,  A. Landau,  
 Jie Liu,  E. I. Proynov,  R. M. Richard,  R. P. Steele,  E. J. Sundstrom,  
 H. L. Woodcock III,  P. M. Zimmerman,  D. Zuev,  B. Albrecht,  E. Alguire,  
 S. A. Baeppler,  Z. Benda,  Y. A. Bernard,  E. J. Berquist,  K. B. Bravaya,  
 D. Casanova,  Chun-Min Chang,  Yunqing Chen,  A. Chien,  K. D. Closser,  
 M. P. Coons,  S. Dasgupta,  M. Diedenhofen,  Hainam Do,  R. G. Edgar,  
 Po-Tung Fang,  S. Fatehi,  Qingguo Feng,  Qinghui Ge,  A. Ghysels,  
 J. Gomes,  J. Gonthier,  A. Gunina,  M. W. D. Hanson-Heine,  
 P. H. P. Harbach,  A. W. Hauser,  J. E. Herr,  E. G. Hohenstein,  
 Z. C. Holden,  Kerwin Hui,  T.-C. Jagau,  Hyunjun Ji,  B. Kaduk,  
 K. Khistyaev,  Jaehoon Kim,  P. Klunzinger,  K. Koh,  D. Kosenkov,  
 T. Kowalczyk,  C. M. Krauter,  A. Kunitsa,  Ka Un Lao,  A. Laurent,  
 K. V. Lawler,  Joonho Lee,  D. Lefrancois,  S. Lehtola,  D. S. Levine,  
 Yi-Pei Li,  You-Sheng Lin,  Fenglai Liu,  E. Livshits,  A. Luenser,  
 P. Manohar,  E. Mansoor,  S. F. Manzer,  Shan-Ping Mao,  Yuezhi Mao,  
 N. Mardirossian,  A. V. Marenich,  L. A. Martinez-Martinez,  S. A. Maurer,  
 N. J. Mayhall,  S. C. McKenzie,  J.-M. Mewes,  A. F. Morrison,  K. Nanda,  
 T. S. Nguyen-Beck,  R. Olivares-Amaya,  J. A. Parkhill,  T. M. Perrine,  
 F. Plasser,  S. Prager,  A. Prociuk,  D. R. Rehn,  F. Rob,  M. Schneider,  
 N. Sergueev,  S. M. Sharada,  S. Sharma,  D. W. Small,  T. Stauch,  
 T. Stein,  Yu-Chuan Su,  A. J. W. Thom,  T. Tsuchimochi,  L. Vogt,  
 O. Vydrov,  M. A. Watson,  J. Wenzel,  M. de Wergifosse,  T. A. Wesolowski,  
 A. White,  J. Witte,  A. Yamada,  Jun Yang,  K. Yao,  S. Yeganeh,  
 S. R. Yost,  Zhi-Qiang You,  A. Zech,  Igor Ying Zhang,  Xing Zhang,  
 Yan Zhao,  Ying Zhu,  B. R. Brooks,  G. K. L. Chan,  C. J. Cramer,  
 M. S. Gordon,  W. J. Hehre,  A. Klamt,  M. W. Schmidt,  C. D. Sherrill,  
 D. G. Truhlar,  A. Aspuru-Guzik,  R. Baer,  A. T. Bell,  N. A. Besley,  
 Jeng-Da Chai,  A. Dreuw,  B. D. Dunietz,  T. R. Furlani,  Chao-Ping Hsu,  
 Yousung Jung,  Jing Kong,  D. S. Lambrecht,  WanZhen Liang,  C. Ochsenfeld,  
 V. A. Rassolov,  L. V. Slipchenko,  J. E. Subotnik,  T. Van Voorhis,  
 J. M. Herbert,  A. I. Krylov,  P. M. W. Gill,  M. Head-Gordon

 Contributors to earlier versions of Q-Chem not listed above: 
 R. D. Adamson,  B. Austin,  J. Baker,  G. J. O. Beran,  K. Brandhorst,  
 S. T. Brown,  E. F. C. Byrd,  A. K. Chakraborty,  C.-L. Cheng,  
 Siu Hung Chien,  D. M. Chipman,  D. L. Crittenden,  H. Dachsel,  
 R. A. DiStasio Jr.,  R. J. Doerksen,  A. D. Dutoi,  L. Fusti-Molnar,  
 W. A. Goddard III,  A. Golubeva-Zadorozhnaya,  S. R. Gwaltney,  G. Hawkins,  
 A. Heyden,  S. Hirata,  G. Kedziora,  F. J. Keil,  C. Kelley,  Jihan Kim,  
 R. A. King,  R. Z. Khaliullin,  P. P. Korambath,  W. Kurlancheek,  
 A. M. Lee,  M. S. Lee,  S. V. Levchenko,  Ching Yeh Lin,  D. Liotard,  
 R. C. Lochan,  I. Lotan,  P. E. Maslen,  N. Nair,  D. P. O'Neill,  
 D. Neuhauser,  E. Neuscamman,  C. M. Oana,  R. Olson,  B. Peters,  
 R. Peverati,  P. A. Pieniazek,  Y. M. Rhee,  J. Ritchie,  M. A. Rohrdanz,  
 E. Rosta,  N. J. Russ,  H. F. Schaefer III,  N. E. Schultz,  N. Shenvi,  
 A. C. Simmonett,  A. Sodt,  D. Stuck,  K. S. Thanthiriwatte,  V. Vanovschi,  
 Tao Wang,  A. Warshel,  C. F. Williams,  Q. Wu,  X. Xu,  W. Zhang

 Please cite Q-Chem as follows:
 Y. Shao et al., Mol. Phys. 113, 184-215 (2015)
 DOI: 10.1080/00268976.2014.952696

 Q-Chem 5.0.1 for Intel X86 EM64T Linux

 Parts of Q-Chem use Armadillo 5.200.1 (Boston Tea Smuggler).
 http://arma.sourceforge.net/

 Q-Chem begins on Sat Oct 14 17:16:09 2017  

Host: r0239.ten.osc.edu
0

     Scratch files written to /tmp/pbstmp.1310462/09//
Processing $rem in /users/PAS0291/osu6415/.qchemrc.
molden_format             true

Checking the input file for inconsistencies... 	...done.

--------------------------------------------------------------
User input:
--------------------------------------------------------------
$molecule
0 1
C 0.16165274 1.18249095 0.43556834
C 0.56458879 -0.27635041 0.84861920
C -1.24343073 1.36973778 -0.10586788
C -0.43246976 -1.38151952 0.56892815
O -2.15242087 0.93573749 0.79595707
O -1.53557188 1.88699085 -1.15295620
O -0.98260366 -1.28233305 -0.65471109
O -0.66593365 -2.28546492 1.33550822
C -1.92441971 -2.30515785 -1.01950808
C -3.53169917 1.02078809 0.39687904
C 1.26815881 1.53688377 -0.58611504
C 2.56963455 1.85690287 0.17400615
C 2.97962310 0.43599794 0.65853980
C 1.88453757 -0.45408017 0.00542909
O 1.56871663 0.27278341 -1.19263651
H 0.21793349 1.82567260 1.31839712
H 0.77560815 -0.34371784 1.91431679
H -2.74813949 -2.33594904 -0.30441105
H -3.82074094 2.06006414 0.23301787
H 3.31060122 2.27030209 -0.51179962
H 2.42514693 2.57145291 0.98682198
H 3.96220688 0.15020980 0.27934963
H 2.99899795 0.33669588 1.74573311
H -2.27969878 -2.02948698 -2.00980733
H -1.43721151 -3.28128585 -1.04440993
H -4.09912737 0.59009507 1.21894256
H -3.69454823 0.45515751 -0.52218876
H 0.95856947 2.24561128 -1.34890291
C 2.29848569 -1.87307361 -0.31394633
H 3.21131162 -1.86535570 -0.91305976
H 2.48711977 -2.43259302 0.60529462
H 1.52165491 -2.38856174 -0.88132967
$end

$rem
sym_ignore      true
jobtype         opt
method          b3lyp
basis           6-311++G(d,p)
dft_d           d3_op
mem_total       62000
MEM_STATIC      4000
ao2mo_disk      350000
max_scf_cycles  200
geom_opt_max_cycles 1000
geom_opt_tol_displacement 1
GEOM_OPT_TOL_GRADIENT       1
GEOM_OPT_TOL_ENERGY         1
$end

--------------------------------------------------------------
 Adding empirical dispersion correction 
 ----------------------------------------------------------------
 Doing -D3(op) with
 s6 =   1.00000
 s8 =   0.78311
 a1 =   0.30000
 a2 =   4.25000
 n  =  10.00000
 -D3 energy without 3body term =     -0.0372372317 hartrees
 ----------------------------------------------------------------
             Standard Nuclear Orientation (Angstroms)
    I     Atom           X                Y                Z
 ----------------------------------------------------------------
    1      C       0.1616527400     1.1824909500     0.4355683400
    2      C       0.5645887900    -0.2763504100     0.8486192000
    3      C      -1.2434307300     1.3697377800    -0.1058678800
    4      C      -0.4324697600    -1.3815195200     0.5689281500
    5      O      -2.1524208700     0.9357374900     0.7959570700
    6      O      -1.5355718800     1.8869908500    -1.1529562000
    7      O      -0.9826036600    -1.2823330500    -0.6547110900
    8      O      -0.6659336500    -2.2854649200     1.3355082200
    9      C      -1.9244197100    -2.3051578500    -1.0195080800
   10      C      -3.5316991700     1.0207880900     0.3968790400
   11      C       1.2681588100     1.5368837700    -0.5861150400
   12      C       2.5696345500     1.8569028700     0.1740061500
   13      C       2.9796231000     0.4359979400     0.6585398000
   14      C       1.8845375700    -0.4540801700     0.0054290900
   15      O       1.5687166300     0.2727834100    -1.1926365100
   16      H       0.2179334900     1.8256726000     1.3183971200
   17      H       0.7756081500    -0.3437178400     1.9143167900
   18      H      -2.7481394900    -2.3359490400    -0.3044110500
   19      H      -3.8207409400     2.0600641400     0.2330178700
   20      H       3.3106012200     2.2703020900    -0.5117996200
   21      H       2.4251469300     2.5714529100     0.9868219800
   22      H       3.9622068800     0.1502098000     0.2793496300
   23      H       2.9989979500     0.3366958800     1.7457331100
   24      H      -2.2796987800    -2.0294869800    -2.0098073300
   25      H      -1.4372115100    -3.2812858500    -1.0444099300
   26      H      -4.0991273700     0.5900950700     1.2189425600
   27      H      -3.6945482300     0.4551575100    -0.5221887600
   28      H       0.9585694700     2.2456112800    -1.3489029100
   29      C       2.2984856900    -1.8730736100    -0.3139463300
   30      H       3.2113116200    -1.8653557000    -0.9130597600
   31      H       2.4871197700    -2.4325930200     0.6052946200
   32      H       1.5216549100    -2.3885617400    -0.8813296700
 ----------------------------------------------------------------
 Nuclear Repulsion Energy =  1265.5996980392 hartrees
 There are       61 alpha and       61 beta electrons
 Requested basis set is 6-311++G(d,p)
 There are 176 shells and 464 basis functions

 Total QAlloc Memory Limit  62000 MB
 Mega-Array Size      3911 MB
 MEM_STATIC part      4000 MB
 A cutoff of  1.0D-11 yielded  12876 shell pairs
 There are     91313 function pairs (     97448 Cartesian)
 
 -------------------------------------------------------
 OpenMP Integral Computing Module                       
 Release: version 1.0, May 2013, Q-Chem Inc. Pittsburgh 
 -------------------------------------------------------
 Integral Job Info:
 Integral job number is                      11
 Integral operator is                         1
 short-range coefficients                     0
 long-range coefficients              100000000
 Omega coefficients                           0
 if combine SR and LR in K                    0
 Integral screening is                        0
 Integral computing path is                   2
 max size of driver memory is            800000
 size of driver memory is                593474
 size of scratch memory is              2361544
 max col of scratch BK array               1296
 max len of scratch array in speh3          155
 max len of scratch index in speh4           18
 max int batch size is                      520
 min int batch size is                       52
 fixed nKL is                                52
 max L of basis functions is                  2
 order of int derivative is                   0
 number of shells is                        176
 number of basis is                         480
 number of cartesian basis is               480
 number of contracted shell pairs         12876
 number of primitive shell pairs          28626
 maxK2 (contraction) of shell pair           36
 max number of K2 of shell pair               1
 max number of CS2 of shell pair           2407
 max number of PS2 of shell pair           4140
 mem total for path MDJ                  164520
 -------------------------------------------------------
 Smallest overlap matrix eigenvalue = 1.01E-06

 Q-Chem warning in module /fs/scratch/osu6415/qchem-kaunlao-vdw/stvman/mkSTV.C, line 281:

 Overlap eigenvalue is smaller than square root of threshold


 Scale SEOQF with 1.000000e-01/1.000000e-01/1.000000e-01

 Standard Electronic Orientation quadrupole field applied
 Nucleus-field energy     =     0.0000000277 hartrees
 Guess from superposition of atomic densities
 Warning:  Energy on first SCF cycle will be non-variational
 A restricted hybrid HF-DFT SCF calculation will be
 performed using Pulay DIIS extrapolation
 Exchange:     0.2000 Hartree-Fock + 0.0800 Slater + 0.7200 B88
 Correlation:  0.1900 VWN1RPA + 0.8100 LYP
 Using SG-1 standard quadrature grid
 Dispersion:   Grimme D3
 SCF converges when DIIS error is below 1.0E-08
 using 20 threads for integral computing
 -------------------------------------------------------
 OpenMP Integral computing Module                
 Release: version 1.0, May 2013, Q-Chem Inc. Pittsburgh 
 -------------------------------------------------------
 -------------------------------------------------------
 OpenMP BLAS3 based DFT computing Module                
 Release: version 1.0, May 2013, Q-Chem Inc. Pittsburgh 
 -------------------------------------------------------
 ---------------------------------------
  Cycle       Energy         DIIS Error
 ---------------------------------------
    1    -808.4517079969      2.94E-02
    2    -804.8751888870      3.81E-03
    3    -804.3869634995      6.32E-03
    4    -805.1515189225      1.47E-03
    5    -805.1955630679      3.74E-04
    6    -805.1978683227      1.50E-04
    7    -805.1982957361      3.54E-05
    8    -805.1983179704      1.26E-05
    9    -805.1983211464      3.59E-06
   10    -805.1983213422      1.72E-06
   11    -805.1983214005      4.22E-07
   12    -805.1983214034      1.60E-07
   13    -805.1983214038      3.66E-08
   14    -805.1983214032      1.34E-08
   15    -805.1983214107      3.37E-09 Convergence criterion met
 ---------------------------------------
 SCF time:  CPU 963.09 s  wall 52.02 s
 SCF   energy in the final basis set = -805.19832141
 Total energy in the final basis set = -805.19832141
 
 --------------------------------------------------------------
 
                    Orbital Energies (a.u.)
 --------------------------------------------------------------
 
 Alpha MOs
 -- Occupied --
-19.175 -19.174 -19.129 -19.119 -19.116 -10.309 -10.306 -10.245
-10.232 -10.230 -10.229 -10.206 -10.205 -10.180 -10.179 -10.170
 -1.120  -1.113  -1.062  -1.030  -1.028  -0.832  -0.795  -0.784
 -0.746  -0.729  -0.696  -0.655  -0.606  -0.592  -0.569  -0.561
 -0.532  -0.517  -0.510  -0.491  -0.490  -0.483  -0.476  -0.473
 -0.462  -0.441  -0.434  -0.425  -0.416  -0.405  -0.397  -0.387
 -0.380  -0.374  -0.370  -0.361  -0.355  -0.353  -0.334  -0.332
 -0.320  -0.313  -0.289  -0.281  -0.273
 -- Virtual --
 -0.020  -0.011  -0.006   0.000   0.007   0.010   0.014   0.020
  0.026   0.032   0.035   0.040   0.041   0.047   0.053   0.054
  0.062   0.066   0.070   0.076   0.081   0.086   0.092   0.096
  0.100   0.103   0.106   0.108   0.112   0.115   0.117   0.124
  0.129   0.129   0.131   0.133   0.134   0.139   0.139   0.143
  0.145   0.151   0.153   0.155   0.157   0.158   0.161   0.164
  0.167   0.168   0.175   0.181   0.183   0.186   0.188   0.193
  0.197   0.203   0.204   0.205   0.213   0.214   0.220   0.222
  0.227   0.231   0.234   0.246   0.247   0.254   0.255   0.260
  0.265   0.271   0.273   0.282   0.284   0.286   0.298   0.300
  0.301   0.306   0.314   0.316   0.323   0.330   0.333   0.341
  0.342   0.347   0.352   0.357   0.358   0.360   0.363   0.368
  0.374   0.378   0.385   0.387   0.389   0.397   0.403   0.414
  0.421   0.426   0.430   0.438   0.442   0.458   0.463   0.479
  0.492   0.497   0.501   0.511   0.526   0.531   0.536   0.551
  0.557   0.562   0.573   0.581   0.588   0.591   0.602   0.608
  0.627   0.629   0.634   0.646   0.652   0.653   0.658   0.663
  0.669   0.681   0.683   0.687   0.693   0.703   0.708   0.715
  0.723   0.726   0.733   0.739   0.744   0.753   0.763   0.768
  0.780   0.785   0.794   0.797   0.807   0.821   0.830   0.841
  0.854   0.867   0.899   0.909   0.935   0.959   0.977   1.009
  1.023   1.047   1.051   1.055   1.078   1.090   1.097   1.123
  1.139   1.150   1.170   1.179   1.188   1.210   1.215   1.219
  1.237   1.251   1.253   1.267   1.270   1.291   1.296   1.311
  1.321   1.332   1.357   1.367   1.379   1.392   1.400   1.407
  1.427   1.441   1.449   1.462   1.469   1.477   1.505   1.509
  1.515   1.522   1.540   1.550   1.558   1.566   1.573   1.576
  1.586   1.602   1.603   1.608   1.613   1.631   1.641   1.655
  1.671   1.681   1.694   1.696   1.699   1.708   1.713   1.723
  1.731   1.732   1.752   1.760   1.783   1.797   1.802   1.815
  1.825   1.831   1.848   1.854   1.864   1.877   1.894   1.906
  1.918   1.940   1.948   1.977   1.981   1.990   2.008   2.025
  2.034   2.039   2.067   2.073   2.100   2.114   2.121   2.129
  2.142   2.146   2.158   2.168   2.190   2.200   2.227   2.241
  2.257   2.277   2.315   2.337   2.368   2.395   2.420   2.448
  2.456   2.464   2.474   2.490   2.498   2.506   2.510   2.523
  2.527   2.534   2.553   2.578   2.586   2.592   2.610   2.623
  2.628   2.649   2.656   2.683   2.698   2.722   2.747   2.757
  2.777   2.802   2.813   2.831   2.833   2.852   2.859   2.871
  2.877   2.890   2.900   2.916   2.937   2.952   2.966   3.002
  3.017   3.028   3.041   3.050   3.064   3.076   3.095   3.104
  3.121   3.134   3.148   3.160   3.196   3.217   3.228   3.241
  3.255   3.264   3.300   3.337   3.354   3.364   3.390   3.402
  3.447   3.580   3.596   3.606   3.666   3.695   3.731   3.780
  3.784   3.823   3.829   3.837   3.857   3.938   3.962   4.047
  4.060   4.072   4.086   4.128   4.140   4.144   4.168   4.220
  4.256   4.269   4.434   4.498   5.037   5.108   5.163   5.189
  5.214   5.253   5.273   5.410   5.437   5.514   5.620   5.641
  5.661   5.875   5.896  23.782  23.840  23.854  23.894  23.903
 23.932  23.944  23.956  23.975  23.986  24.049  49.906  49.942
 49.982  50.039  50.048
 --------------------------------------------------------------
 
          Ground-State Mulliken Net Atomic Charges

     Atom                 Charge (a.u.)
  ----------------------------------------
      1 C                    -0.183250
      2 C                     1.001619
      3 C                    -0.504047
      4 C                    -0.968438
      5 O                    -0.014545
      6 O                    -0.207668
      7 O                    -0.020588
      8 O                    -0.143431
      9 C                    -0.211125
     10 C                    -0.197201
     11 C                     0.062949
     12 C                    -0.512520
     13 C                    -0.380425
     14 C                    -0.362360
     15 O                    -0.068376
     16 H                     0.241473
     17 H                     0.290705
     18 H                     0.192038
     19 H                     0.173614
     20 H                     0.185474
     21 H                     0.123996
     22 H                     0.163137
     23 H                     0.140933
     24 H                     0.177592
     25 H                     0.172813
     26 H                     0.161947
     27 H                     0.179613
     28 H                     0.292966
     29 C                    -0.313188
     30 H                     0.178809
     31 H                     0.165286
     32 H                     0.182201
  ----------------------------------------
  Sum of atomic charges =     0.000000

 -----------------------------------------------------------------
                    Cartesian Multipole Moments
 -----------------------------------------------------------------
    Charge (ESU x 10^10)
                 0.0000
    Dipole Moment (Debye)
         X       0.0279      Y       0.4875      Z       1.1110
       Tot       1.2135
    Quadrupole Moments (Debye-Ang)
        XX     -81.6341     XY       2.5791     YY     -96.4384
        XZ       2.9779     YZ      10.8779     ZZ    -102.3431
    Octopole Moments (Debye-Ang^2)
       XXX     -54.9969    XXY      -5.4443    XYY      -0.4267
       YYY       1.8270    XXZ       2.7624    XYZ     -15.3474
       YYZ     -15.2901    XZZ      -3.9783    YZZ       0.2107
       ZZZ      -2.1849
    Hexadecapole Moments (Debye-Ang^3)
      XXXX   -2137.9355   XXXY     -42.9770   XXYY    -597.4755
      XYYY      -8.1408   YYYY   -1416.5080   XXXZ     -40.3868
      XXYZ      21.8840   XYYZ      -2.8062   YYYZ      70.3811
      XXZZ    -475.0789   XYZZ       5.1661   YYZZ    -333.0833
      XZZZ       3.3398   YZZZ      27.3866   ZZZZ    -487.6459
 -----------------------------------------------------------------
 Calculating analytic gradient of the SCF energy
 Gradient of SCF Energy
            1           2           3           4           5           6
    1   0.0000614   0.0001363  -0.0000441  -0.0002073  -0.0000821   0.0000459
    2  -0.0000192  -0.0002193   0.0003147   0.0000126  -0.0000231  -0.0002376
    3  -0.0000401   0.0000357  -0.0001728   0.0002130   0.0000103   0.0000876
            7           8           9          10          11          12
    1  -0.0000742   0.0001752   0.0000720   0.0000749  -0.0001473  -0.0000303
    2  -0.0000273  -0.0000082   0.0000563  -0.0000301   0.0001672   0.0000110
    3  -0.0000091  -0.0002009  -0.0000192   0.0000481   0.0003104   0.0000058
           13          14          15          16          17          18
    1   0.0001038  -0.0001114   0.0000032  -0.0000400   0.0000315   0.0000029
    2  -0.0000745   0.0000820  -0.0000500   0.0000308   0.0000487  -0.0000173
    3  -0.0001367   0.0001212  -0.0001505  -0.0000256  -0.0000161  -0.0000071
           19          20          21          22          23          24
    1  -0.0000170  -0.0000559   0.0000754   0.0000349  -0.0001041   0.0000148
    2  -0.0000114   0.0000009   0.0000219  -0.0000160   0.0000522  -0.0000071
    3  -0.0000110  -0.0000462   0.0000022   0.0001398   0.0000069  -0.0000032
           25          26          27          28          29          30
    1   0.0000029  -0.0000033  -0.0000097   0.0000404   0.0000419   0.0000025
    2  -0.0000114  -0.0000128   0.0000016  -0.0000455  -0.0000655   0.0000271
    3   0.0000047  -0.0000088  -0.0000149  -0.0000567  -0.0000035  -0.0000026
           31          32
    1  -0.0000170   0.0000237
    2   0.0000124   0.0000368
    3  -0.0000120  -0.0000487
 Max gradient component =       3.147E-04
 RMS gradient           =       8.991E-05
 Gradient time:  CPU 315.89 s  wall 22.61 s
 Geometry Optimization Parameters
   NAtoms,    NIC,     NZ,  NCons,   NDum,   NFix, NCnnct, MaxDiis
       32     251       0       0       0       0       0       0


** GEOMETRY OPTIMIZATION IN DELOCALIZED INTERNAL COORDINATES **
   Searching for a Minimum

   Optimization Cycle:   1

                       Coordinates (Angstroms)
     ATOM                X               Y               Z
      1  C         0.1616527400    1.1824909500    0.4355683400
      2  C         0.5645887900   -0.2763504100    0.8486192000
      3  C        -1.2434307300    1.3697377800   -0.1058678800
      4  C        -0.4324697600   -1.3815195200    0.5689281500
      5  O        -2.1524208700    0.9357374900    0.7959570700
      6  O        -1.5355718800    1.8869908500   -1.1529562000
      7  O        -0.9826036600   -1.2823330500   -0.6547110900
      8  O        -0.6659336500   -2.2854649200    1.3355082200
      9  C        -1.9244197100   -2.3051578500   -1.0195080800
     10  C        -3.5316991700    1.0207880900    0.3968790400
     11  C         1.2681588100    1.5368837700   -0.5861150400
     12  C         2.5696345500    1.8569028700    0.1740061500
     13  C         2.9796231000    0.4359979400    0.6585398000
     14  C         1.8845375700   -0.4540801700    0.0054290900
     15  O         1.5687166300    0.2727834100   -1.1926365100
     16  H         0.2179334900    1.8256726000    1.3183971200
     17  H         0.7756081500   -0.3437178400    1.9143167900
     18  H        -2.7481394900   -2.3359490400   -0.3044110500
     19  H        -3.8207409400    2.0600641400    0.2330178700
     20  H         3.3106012200    2.2703020900   -0.5117996200
     21  H         2.4251469300    2.5714529100    0.9868219800
     22  H         3.9622068800    0.1502098000    0.2793496300
     23  H         2.9989979500    0.3366958800    1.7457331100
     24  H        -2.2796987800   -2.0294869800   -2.0098073300
     25  H        -1.4372115100   -3.2812858500   -1.0444099300
     26  H        -4.0991273700    0.5900950700    1.2189425600
     27  H        -3.6945482300    0.4551575100   -0.5221887600
     28  H         0.9585694700    2.2456112800   -1.3489029100
     29  C         2.2984856900   -1.8730736100   -0.3139463300
     30  H         3.2113116200   -1.8653557000   -0.9130597600
     31  H         2.4871197700   -2.4325930200    0.6052946200
     32  H         1.5216549100   -2.3885617400   -0.8813296700
   Point Group: c1    Number of degrees of freedom:    90


   Energy is   -805.198321411


 Attempting to Generate Delocalized Internal Coordinates

 90 Hessian modes will be used to form the next step
  Hessian Eigenvalues:
     0.003107    0.006878    0.007168    0.007259    0.007558    0.010570
     0.010621    0.010691    0.011246    0.021995    0.022735    0.022884
     0.026312    0.033437    0.036178    0.038664    0.041234    0.044676
     0.048571    0.049719    0.051912    0.055164    0.055464    0.057188
     0.058309    0.059465    0.063731    0.064791    0.065767    0.074818
     0.081003    0.092325    0.099050    0.101324    0.101421    0.103750
     0.105924    0.106077    0.120954    0.122088    0.153801    0.160000
     0.160000    0.160000    0.160000    0.160000    0.160000    0.160000
     0.160000    0.160000    0.173080    0.232089    0.237354    0.248888
     0.249708    0.249786    0.250000    0.250000    0.250000    0.250000
     0.255154    0.269262    0.278976    0.306193    0.309012    0.311255
     0.337244    0.343856    0.345205    0.345939    0.345950    0.346002
     0.346519    0.346532    0.346631    0.346686    0.346690    0.346863
     0.346984    0.347576    0.349894    0.350708    0.350895    0.352471
     0.398100    0.399371    0.545978    0.560379    1.009032    1.029047

 Minimum Search - Taking Simple RFO Step
 Searching for Lamda that Minimizes Along All modes
 Value Taken    Lamda =  -0.00001495
 Step Taken.  Stepsize is  0.043855

                             Maximum     Tolerance    Cnvgd?
         Gradient           0.000194      0.000001      NO
         Displacement       0.016055      0.000001      NO
         Energy change     *********      0.000000      NO


 New Cartesian Coordinates Obtained by Inverse Iteration

 Displacement from previous Coordinates is:  0.057674
 Adding empirical dispersion correction 
 ----------------------------------------------------------------
 Doing -D3(op) with
 s6 =   1.00000
 s8 =   0.78311
 a1 =   0.30000
 a2 =   4.25000
 n  =  10.00000
 -D3 energy without 3body term =     -0.0372236799 hartrees
 ----------------------------------------------------------------
             Standard Nuclear Orientation (Angstroms)
    I     Atom           X                Y                Z
 ----------------------------------------------------------------
    1      C       0.1616757590     1.1819718144     0.4342628157
    2      C       0.5649212125    -0.2763060548     0.8475406423
    3      C      -1.2435338223     1.3694023528    -0.1066134170
    4      C      -0.4319603531    -1.3816752486     0.5681772277
    5      O      -2.1520481051     0.9311766540     0.7935854257
    6      O      -1.5364072236     1.8965766781    -1.1486481060
    7      O      -0.9775167048    -1.2869322666    -0.6578478017
    8      O      -0.6758202005    -2.2775215867     1.3411296303
    9      C      -1.9239374870    -2.3068013339    -1.0193372139
   10      C      -3.5316825096     1.0199684194     0.3962525701
   11      C       1.2685564538     1.5364765916    -0.5870075238
   12      C       2.5682208383     1.8573228062     0.1758741567
   13      C       2.9812557628     0.4360194669     0.6564744265
   14      C       1.8854759808    -0.4543403900     0.0048827779
   15      O       1.5698853785     0.2724163678    -1.1932230990
   16      H       0.2180507385     1.8244531598     1.3176062504
   17      H       0.7748120669    -0.3432708304     1.9135060346
   18      H      -2.7495996902    -2.3291042903    -0.3061762189
   19      H      -3.8195943446     2.0604518918     0.2382207290
   20      H       3.3095223368     2.2748801657    -0.5070529998
   21      H       2.4200758474     2.5688052810     0.9907279739
   22      H       3.9624352046     0.1526229325     0.2718582536
   23      H       3.0058591703     0.3339411319     1.7433094291
   24      H      -2.2752479680    -2.0347880145    -2.0120699625
   25      H      -1.4418606664    -3.2856143586    -1.0375691375
   26      H      -4.0988124702     0.5855879479     1.2165891967
   27      H      -3.6960087378     0.4593243350    -0.5255950103
   28      H       0.9590041946     2.2458412141    -1.3492236775
   29      C       2.2990918850    -1.8735875764    -0.3134915743
   30      H       3.2109054726    -1.8666694438    -0.9141587653
   31      H       2.4895283618    -2.4317960430     0.6062041764
   32      H       1.5212861386    -2.3901870435    -0.8785286290
 ----------------------------------------------------------------
 Nuclear Repulsion Energy =  1265.4766001910 hartrees
 There are       61 alpha and       61 beta electrons
 Applying Cartesian multipole field
    Component          Value
    ---------          -----
     (2,0,0)        1.00000E-11
     (0,2,0)        2.00000E-11
     (0,0,2)       -3.00000E-11
 Nucleus-field energy     =     0.0000000277 hartrees
 Requested basis set is 6-311++G(d,p)
 There are 176 shells and 464 basis functions
 A cutoff of  1.0D-11 yielded  12874 shell pairs
 There are     91281 function pairs (     97416 Cartesian)
 Smallest overlap matrix eigenvalue = 1.01E-06

 Q-Chem warning in module /fs/scratch/osu6415/qchem-kaunlao-vdw/stvman/mkSTV.C, line 281:

 Overlap eigenvalue is smaller than square root of threshold

 Guess MOs from SCF MO coefficient file
 Reading MOs from coefficient file
 Reading MOs from coefficient file
 A restricted hybrid HF-DFT SCF calculation will be
 performed using Pulay DIIS extrapolation
 Exchange:     0.2000 Hartree-Fock + 0.0800 Slater + 0.7200 B88
 Correlation:  0.1900 VWN1RPA + 0.8100 LYP
 Using SG-1 standard quadrature grid
 Dispersion:   Grimme D3
 SCF converges when DIIS error is below 1.0E-08
 Geometry optimization detected.  Setting ReadMinima to 0
 Setting SaveMinima to 0
 using 20 threads for integral computing
 -------------------------------------------------------
 OpenMP Integral computing Module                
 Release: version 1.0, May 2013, Q-Chem Inc. Pittsburgh 
 -------------------------------------------------------
 -------------------------------------------------------
 OpenMP BLAS3 based DFT computing Module                
 Release: version 1.0, May 2013, Q-Chem Inc. Pittsburgh 
 -------------------------------------------------------
 ---------------------------------------
  Cycle       Energy         DIIS Error
 ---------------------------------------
    1    -805.1979469592      1.42E-04
    2    -805.1983213833      9.58E-06
    3    -805.1983220897      1.31E-05
    4    -805.1983250369      4.38E-06
    5    -805.1983253692      1.30E-06
    6    -805.1983253942      7.29E-07
    7    -805.1983254037      1.71E-07
    8    -805.1983254043      5.54E-08
    9    -805.1983254052      2.66E-08
   10    -805.1983254035      6.97E-09 Convergence criterion met
 ---------------------------------------
 SCF time:  CPU 626.10 s  wall 32.82 s
 SCF   energy in the final basis set = -805.19832540
 Total energy in the final basis set = -805.19832540
 
 --------------------------------------------------------------
 
                    Orbital Energies (a.u.)
 --------------------------------------------------------------
 
 Alpha MOs
 -- Occupied --
-19.175 -19.174 -19.129 -19.119 -19.116 -10.309 -10.306 -10.245
-10.232 -10.230 -10.229 -10.206 -10.205 -10.180 -10.179 -10.170
 -1.120  -1.113  -1.062  -1.030  -1.028  -0.832  -0.795  -0.784
 -0.746  -0.729  -0.696  -0.655  -0.606  -0.592  -0.569  -0.561
 -0.532  -0.517  -0.510  -0.491  -0.490  -0.483  -0.476  -0.473
 -0.462  -0.441  -0.434  -0.425  -0.416  -0.405  -0.397  -0.387
 -0.380  -0.374  -0.370  -0.361  -0.355  -0.353  -0.334  -0.332
 -0.320  -0.313  -0.290  -0.281  -0.273
 -- Virtual --
 -0.020  -0.011  -0.006   0.000   0.007   0.010   0.014   0.020
  0.026   0.032   0.035   0.040   0.041   0.047   0.053   0.054
  0.062   0.066   0.070   0.076   0.081   0.086   0.092   0.096
  0.100   0.103   0.106   0.108   0.112   0.115   0.117   0.124
  0.128   0.129   0.131   0.133   0.134   0.139   0.139   0.143
  0.145   0.150   0.152   0.155   0.157   0.158   0.161   0.164
  0.167   0.168   0.175   0.181   0.183   0.186   0.188   0.192
  0.197   0.203   0.204   0.205   0.213   0.214   0.220   0.222
  0.227   0.231   0.234   0.246   0.247   0.254   0.256   0.260
  0.265   0.271   0.273   0.282   0.284   0.286   0.298   0.300
  0.301   0.306   0.314   0.316   0.324   0.330   0.333   0.341
  0.343   0.347   0.352   0.357   0.358   0.360   0.363   0.368
  0.374   0.378   0.385   0.386   0.389   0.397   0.403   0.414
  0.421   0.426   0.430   0.438   0.442   0.459   0.463   0.479
  0.492   0.497   0.501   0.511   0.526   0.532   0.535   0.551
  0.557   0.562   0.573   0.581   0.588   0.591   0.602   0.608
  0.626   0.629   0.634   0.646   0.651   0.652   0.658   0.662
  0.670   0.681   0.683   0.687   0.693   0.703   0.708   0.715
  0.723   0.726   0.734   0.739   0.745   0.752   0.763   0.768
  0.780   0.785   0.794   0.797   0.807   0.821   0.830   0.841
  0.854   0.867   0.899   0.910   0.936   0.960   0.977   1.009
  1.022   1.047   1.051   1.055   1.078   1.090   1.097   1.123
  1.139   1.150   1.170   1.180   1.188   1.210   1.215   1.219
  1.237   1.251   1.253   1.268   1.269   1.291   1.297   1.311
  1.321   1.331   1.357   1.367   1.379   1.392   1.401   1.407
  1.428   1.440   1.449   1.462   1.469   1.477   1.505   1.510
  1.516   1.522   1.540   1.550   1.558   1.565   1.573   1.576
  1.586   1.601   1.603   1.608   1.613   1.631   1.640   1.655
  1.671   1.681   1.694   1.696   1.699   1.708   1.713   1.723
  1.730   1.732   1.752   1.760   1.783   1.797   1.802   1.816
  1.824   1.831   1.848   1.854   1.865   1.878   1.894   1.906
  1.919   1.940   1.948   1.977   1.981   1.990   2.008   2.024
  2.034   2.038   2.067   2.074   2.100   2.114   2.122   2.129
  2.141   2.146   2.158   2.168   2.190   2.200   2.227   2.241
  2.258   2.277   2.316   2.337   2.369   2.394   2.419   2.448
  2.456   2.464   2.474   2.490   2.498   2.506   2.510   2.523
  2.527   2.534   2.553   2.578   2.586   2.592   2.610   2.623
  2.627   2.649   2.656   2.683   2.698   2.722   2.748   2.757
  2.777   2.801   2.814   2.831   2.833   2.852   2.859   2.871
  2.877   2.890   2.900   2.916   2.937   2.952   2.966   3.002
  3.018   3.028   3.041   3.050   3.064   3.076   3.095   3.103
  3.121   3.134   3.148   3.161   3.196   3.217   3.227   3.241
  3.255   3.264   3.300   3.337   3.354   3.364   3.389   3.402
  3.447   3.579   3.595   3.606   3.666   3.694   3.731   3.779
  3.784   3.823   3.829   3.837   3.857   3.937   3.963   4.046
  4.060   4.073   4.086   4.128   4.140   4.145   4.168   4.220
  4.256   4.269   4.434   4.499   5.035   5.107   5.164   5.189
  5.214   5.253   5.272   5.410   5.436   5.514   5.620   5.640
  5.661   5.875   5.896  23.782  23.840  23.854  23.893  23.903
 23.932  23.944  23.956  23.975  23.986  24.049  49.906  49.942
 49.982  50.039  50.048
 --------------------------------------------------------------
 
          Ground-State Mulliken Net Atomic Charges

     Atom                 Charge (a.u.)
  ----------------------------------------
      1 C                    -0.188624
      2 C                     1.017994
      3 C                    -0.512938
      4 C                    -0.969489
      5 O                    -0.016032
      6 O                    -0.206943
      7 O                    -0.020039
      8 O                    -0.142757
      9 C                    -0.210744
     10 C                    -0.197942
     11 C                     0.067795
     12 C                    -0.508207
     13 C                    -0.383391
     14 C                    -0.368352
     15 O                    -0.068023
     16 H                     0.241234
     17 H                     0.291120
     18 H                     0.191778
     19 H                     0.173673
     20 H                     0.185592
     21 H                     0.123750
     22 H                     0.162900
     23 H                     0.141080
     24 H                     0.177554
     25 H                     0.172971
     26 H                     0.162239
     27 H                     0.179770
     28 H                     0.293207
     29 C                    -0.314963
     30 H                     0.179256
     31 H                     0.164572
     32 H                     0.181960
  ----------------------------------------
  Sum of atomic charges =     0.000000

 -----------------------------------------------------------------
                    Cartesian Multipole Moments
 -----------------------------------------------------------------
    Charge (ESU x 10^10)
                 0.0000
    Dipole Moment (Debye)
         X       0.0375      Y       0.4686      Z       1.1015
       Tot       1.1977
    Quadrupole Moments (Debye-Ang)
        XX     -81.6511     XY       2.5648     YY     -96.4280
        XZ       3.0196     YZ      10.8962     ZZ    -102.3586
    Octopole Moments (Debye-Ang^2)
       XXX     -55.0126    XXY      -5.4344    XYY      -0.2641
       YYY       1.2538    XXZ       2.7257    XYZ     -15.4761
       YYZ     -15.1328    XZZ      -3.9528    YZZ       0.2908
       ZZZ      -2.2621
    Hexadecapole Moments (Debye-Ang^3)
      XXXX   -2138.5539   XXXY     -43.1139   XXYY    -597.9319
      XYYY      -7.9786   YYYY   -1416.4629   XXXZ     -40.0656
      XXYZ      22.1102   XYYZ      -2.7422   YYYZ      70.4423
      XXZZ    -475.1725   XYZZ       4.9062   YYZZ    -333.2029
      XZZZ       3.8898   YZZZ      27.5753   ZZZZ    -487.6630
 -----------------------------------------------------------------
 Calculating analytic gradient of the SCF energy
 Gradient of SCF Energy
            1           2           3           4           5           6
    1   0.0001184  -0.0003893   0.0000109   0.0007643  -0.0000383  -0.0000297
    2   0.0003469   0.0001577  -0.0005845  -0.0005404   0.0002372   0.0001894
    3   0.0001301   0.0001109  -0.0005844  -0.0004526   0.0001912   0.0002358
            7           8           9          10          11          12
    1  -0.0002586  -0.0002031   0.0000448   0.0000572  -0.0000196  -0.0001629
    2   0.0000862   0.0001773   0.0000206  -0.0000290   0.0001266   0.0000108
    3   0.0001414   0.0001469  -0.0000236   0.0000006   0.0000800   0.0001045
           13          14          15          16          17          18
    1   0.0001272  -0.0000828   0.0000442   0.0000533  -0.0000255  -0.0000069
    2   0.0000521  -0.0001344  -0.0001764  -0.0000486   0.0000601  -0.0000074
    3  -0.0001308  -0.0000343   0.0000021   0.0000637   0.0000024  -0.0000163
           19          20          21          22          23          24
    1  -0.0000180  -0.0000508   0.0000260   0.0000362  -0.0000357   0.0000070
    2  -0.0000102  -0.0000164   0.0000085   0.0000260   0.0000187  -0.0000035
    3  -0.0000034  -0.0000592   0.0000347   0.0000895   0.0000017  -0.0000045
           25          26          27          28          29          30
    1   0.0000162  -0.0000114   0.0000046  -0.0000049   0.0000394   0.0000103
    2  -0.0000003  -0.0000085  -0.0000096   0.0000229  -0.0000189   0.0000318
    3   0.0000051  -0.0000035  -0.0000113   0.0000107   0.0000034   0.0000037
           31          32
    1  -0.0000256   0.0000031
    2  -0.0000049   0.0000203
    3  -0.0000237  -0.0000109
 Max gradient component =       7.643E-04
 RMS gradient           =       1.672E-04
 Gradient time:  CPU 318.95 s  wall 21.86 s
 Geometry Optimization Parameters
   NAtoms,    NIC,     NZ,  NCons,   NDum,   NFix, NCnnct, MaxDiis
       32     251       0       0       0       0       0       0

 Cartesian Hessian Update
 Hessian Updated using BFGS Update


** GEOMETRY OPTIMIZATION IN DELOCALIZED INTERNAL COORDINATES **
   Searching for a Minimum

   Optimization Cycle:   2

                       Coordinates (Angstroms)
     ATOM                X               Y               Z
      1  C         0.1616757590    1.1819718144    0.4342628157
      2  C         0.5649212125   -0.2763060548    0.8475406423
      3  C        -1.2435338223    1.3694023528   -0.1066134170
      4  C        -0.4319603531   -1.3816752486    0.5681772277
      5  O        -2.1520481051    0.9311766540    0.7935854257
      6  O        -1.5364072236    1.8965766781   -1.1486481060
      7  O        -0.9775167048   -1.2869322666   -0.6578478017
      8  O        -0.6758202005   -2.2775215867    1.3411296303
      9  C        -1.9239374870   -2.3068013339   -1.0193372139
     10  C        -3.5316825096    1.0199684194    0.3962525701
     11  C         1.2685564538    1.5364765916   -0.5870075238
     12  C         2.5682208383    1.8573228062    0.1758741567
     13  C         2.9812557628    0.4360194669    0.6564744265
     14  C         1.8854759808   -0.4543403900    0.0048827779
     15  O         1.5698853785    0.2724163678   -1.1932230990
     16  H         0.2180507385    1.8244531598    1.3176062504
     17  H         0.7748120669   -0.3432708304    1.9135060346
     18  H        -2.7495996902   -2.3291042903   -0.3061762189
     19  H        -3.8195943446    2.0604518918    0.2382207290
     20  H         3.3095223368    2.2748801657   -0.5070529998
     21  H         2.4200758474    2.5688052810    0.9907279739
     22  H         3.9624352046    0.1526229325    0.2718582536
     23  H         3.0058591703    0.3339411319    1.7433094291
     24  H        -2.2752479680   -2.0347880145   -2.0120699625
     25  H        -1.4418606664   -3.2856143586   -1.0375691375
     26  H        -4.0988124702    0.5855879479    1.2165891967
     27  H        -3.6960087378    0.4593243350   -0.5255950103
     28  H         0.9590041946    2.2458412141   -1.3492236775
     29  C         2.2990918850   -1.8735875764   -0.3134915743
     30  H         3.2109054726   -1.8666694438   -0.9141587653
     31  H         2.4895283618   -2.4317960430    0.6062041764
     32  H         1.5212861386   -2.3901870435   -0.8785286290
   Point Group: c1    Number of degrees of freedom:    90


   Energy is   -805.198325404

 Hessian Updated using BFGS Update

 81 Hessian modes will be used to form the next step
  Hessian Eigenvalues:
     0.002362    0.004234    0.007015    0.007210    0.007548    0.010568
     0.010677    0.010902    0.021928    0.022365    0.022873    0.025588
     0.032057    0.033574    0.036923    0.038985    0.043737    0.045015
     0.048879    0.049374    0.052166    0.055140    0.055489    0.057096
     0.058325    0.059412    0.063792    0.064836    0.065768    0.074794
     0.081155    0.092479    0.100207    0.101314    0.101420    0.104131
     0.105924    0.106079    0.120950    0.124542    0.155377    0.159862
     0.160217    0.173191    0.232306    0.237252    0.248908    0.249605
     0.249760    0.249843    0.252055    0.256797    0.268371    0.278987
     0.306114    0.309012    0.311206    0.338263    0.343909    0.345180
     0.345939    0.345949    0.346025    0.346512    0.346532    0.346606
     0.346680    0.346689    0.346803    0.346879    0.346991    0.349889
     0.350709    0.350895    0.352477    0.397814    0.399179    0.545864
     0.560418    1.008501    1.027064

 Minimum Search - Taking Simple RFO Step
 Searching for Lamda that Minimizes Along All modes
 Value Taken    Lamda =  -0.00001751
 Step Taken.  Stepsize is  0.054108

                             Maximum     Tolerance    Cnvgd?
         Gradient           0.000329      0.000001      NO
         Displacement       0.017491      0.000001      NO
         Energy change     -0.000004      0.000000      NO


 New Cartesian Coordinates Obtained by Inverse Iteration

 Displacement from previous Coordinates is:  0.119673
 Adding empirical dispersion correction 
 ----------------------------------------------------------------
 Doing -D3(op) with
 s6 =   1.00000
 s8 =   0.78311
 a1 =   0.30000
 a2 =   4.25000
 n  =  10.00000
 -D3 energy without 3body term =     -0.0372639646 hartrees
 ----------------------------------------------------------------
             Standard Nuclear Orientation (Angstroms)
    I     Atom           X                Y                Z
 ----------------------------------------------------------------
    1      C       0.1633554303     1.1876546476     0.4363611432
    2      C       0.5640510282    -0.2707909262     0.8496595358
    3      C      -1.2421813591     1.3782911591    -0.1022458382
    4      C      -0.4377312983    -1.3725972308     0.5739249781
    5      O      -2.1501477923     0.9241432022     0.7904839806
    6      O      -1.5356116594     1.9102716580    -1.1418364307
    7      O      -0.9726675760    -1.2870686010    -0.6574452048
    8      O      -0.6870714564    -2.2636836823     1.3507473218
    9      C      -1.9196530534    -2.3071358535    -1.0173724832
   10      C      -3.5294377321     1.0085412993     0.3905534355
   11      C       1.2701462004     1.5394521848    -0.5861462209
   12      C       2.5706206159     1.8564983002     0.1772716968
   13      C       2.9834342039     0.4330889329     0.6516316294
   14      C       1.8823452090    -0.4533298579     0.0039798524
   15      O       1.5667673190     0.2748714661    -1.1932384290
   16      H       0.2221230291     1.8297167279     1.3198332046
   17      H       0.7755481904    -0.3377957283     1.9153312401
   18      H      -2.7502510205    -2.3212090506    -0.3097717918
   19      H      -3.8234336970     2.0488672986     0.2431378165
   20      H       3.3124380472     2.2769372896    -0.5033288851
   21      H       2.4221723258     2.5643940850     0.9951724429
   22      H       3.9608089787     0.1491894757     0.2577763007
   23      H       3.0166412800     0.3270329254     1.7378661866
   24      H      -2.2632681131    -2.0420646495    -2.0146771622
   25      H      -1.4403651123    -3.2874551948    -1.0244871768
   26      H      -4.0957733303     0.5616965973     1.2047278037
   27      H      -3.6878979320     0.4568135295    -0.5376643058
   28      H       0.9615100560     2.2507678807    -1.3469087932
   29      C       2.2899751963    -1.8741950348    -0.3145537949
   30      H       3.1988784503    -1.8712321146    -0.9196500878
   31      H       2.4834415012    -2.4314550237     0.6051375940
   32      H       1.5077665903    -2.3895709817    -0.8746109785
 ----------------------------------------------------------------
 Nuclear Repulsion Energy =  1265.8278095568 hartrees
 There are       61 alpha and       61 beta electrons
 Applying Cartesian multipole field
    Component          Value
    ---------          -----
     (2,0,0)        1.00000E-11
     (0,2,0)        2.00000E-11
     (0,0,2)       -3.00000E-11
 Nucleus-field energy     =     0.0000000277 hartrees
 Requested basis set is 6-311++G(d,p)
 There are 176 shells and 464 basis functions
 A cutoff of  1.0D-11 yielded  12875 shell pairs
 There are     91281 function pairs (     97415 Cartesian)
 Smallest overlap matrix eigenvalue = 1.02E-06

 Q-Chem warning in module /fs/scratch/osu6415/qchem-kaunlao-vdw/stvman/mkSTV.C, line 281:

 Overlap eigenvalue is smaller than square root of threshold

 Guess MOs from SCF MO coefficient file
 Reading MOs from coefficient file
 Reading MOs from coefficient file
 A restricted hybrid HF-DFT SCF calculation will be
 performed using Pulay DIIS extrapolation
 Exchange:     0.2000 Hartree-Fock + 0.0800 Slater + 0.7200 B88
 Correlation:  0.1900 VWN1RPA + 0.8100 LYP
 Using SG-1 standard quadrature grid
 Dispersion:   Grimme D3
 SCF converges when DIIS error is below 1.0E-08
 Geometry optimization detected.  Setting ReadMinima to 0
 Setting SaveMinima to 0
 using 20 threads for integral computing
 -------------------------------------------------------
 OpenMP Integral computing Module                
 Release: version 1.0, May 2013, Q-Chem Inc. Pittsburgh 
 -------------------------------------------------------
 -------------------------------------------------------
 OpenMP BLAS3 based DFT computing Module                
 Release: version 1.0, May 2013, Q-Chem Inc. Pittsburgh 
 -------------------------------------------------------
 ---------------------------------------
  Cycle       Energy         DIIS Error
 ---------------------------------------
    1    -805.1980844446      1.82E-04
    2    -805.1983003372      2.50E-05
    3    -805.1982793344      4.36E-05
    4    -805.1983162317      6.70E-06
    5    -805.1983168587      3.64E-06
    6    -805.1983170999      9.25E-07
    7    -805.1983171156      3.20E-07
    8    -805.1983171177      9.18E-08
    9    -805.1983171185      4.79E-08
   10    -805.1983171193      1.17E-08
   11    -805.1983171163      4.70E-09 Convergence criterion met
 ---------------------------------------
 SCF time:  CPU 694.60 s  wall 36.06 s
 SCF   energy in the final basis set = -805.19831712
 Total energy in the final basis set = -805.19831712
 
 --------------------------------------------------------------
 
                    Orbital Energies (a.u.)
 --------------------------------------------------------------
 
 Alpha MOs
 -- Occupied --
-19.175 -19.173 -19.129 -19.119 -19.116 -10.309 -10.306 -10.245
-10.232 -10.230 -10.229 -10.206 -10.204 -10.180 -10.179 -10.170
 -1.120  -1.113  -1.062  -1.030  -1.027  -0.832  -0.795  -0.784
 -0.746  -0.729  -0.696  -0.655  -0.606  -0.592  -0.569  -0.561
 -0.532  -0.517  -0.510  -0.491  -0.490  -0.483  -0.476  -0.473
 -0.462  -0.441  -0.434  -0.425  -0.416  -0.405  -0.397  -0.387
 -0.380  -0.374  -0.369  -0.361  -0.355  -0.353  -0.334  -0.332
 -0.320  -0.313  -0.290  -0.281  -0.273
 -- Virtual --
 -0.020  -0.011  -0.006   0.000   0.007   0.010   0.014   0.020
  0.026   0.032   0.035   0.040   0.041   0.047   0.053   0.055
  0.062   0.066   0.070   0.075   0.081   0.087   0.092   0.096
  0.100   0.103   0.106   0.108   0.112   0.115   0.117   0.124
  0.128   0.129   0.131   0.133   0.134   0.139   0.139   0.143
  0.145   0.150   0.152   0.155   0.157   0.158   0.161   0.164
  0.167   0.168   0.175   0.181   0.183   0.186   0.188   0.192
  0.197   0.203   0.204   0.205   0.213   0.215   0.220   0.222
  0.227   0.231   0.234   0.246   0.246   0.254   0.256   0.261
  0.264   0.271   0.273   0.282   0.284   0.286   0.298   0.300
  0.301   0.305   0.314   0.316   0.324   0.331   0.333   0.341
  0.343   0.347   0.351   0.357   0.358   0.360   0.363   0.368
  0.374   0.378   0.385   0.386   0.390   0.398   0.403   0.414
  0.421   0.426   0.430   0.437   0.442   0.460   0.463   0.478
  0.493   0.497   0.500   0.512   0.526   0.532   0.535   0.551
  0.557   0.562   0.573   0.581   0.588   0.591   0.601   0.608
  0.626   0.629   0.634   0.646   0.651   0.652   0.658   0.662
  0.670   0.681   0.683   0.688   0.693   0.703   0.707   0.715
  0.723   0.726   0.734   0.739   0.745   0.752   0.763   0.768
  0.779   0.785   0.794   0.796   0.807   0.820   0.831   0.841
  0.855   0.868   0.900   0.910   0.936   0.961   0.976   1.009
  1.023   1.046   1.051   1.056   1.079   1.089   1.097   1.123
  1.138   1.150   1.169   1.180   1.189   1.209   1.213   1.219
  1.237   1.251   1.253   1.268   1.269   1.291   1.296   1.311
  1.322   1.332   1.357   1.366   1.379   1.393   1.401   1.407
  1.429   1.441   1.449   1.463   1.468   1.477   1.505   1.510
  1.516   1.522   1.540   1.550   1.558   1.565   1.573   1.577
  1.586   1.601   1.603   1.608   1.613   1.631   1.640   1.655
  1.671   1.681   1.694   1.696   1.699   1.708   1.714   1.723
  1.730   1.733   1.752   1.760   1.783   1.797   1.803   1.815
  1.824   1.831   1.848   1.854   1.864   1.879   1.894   1.905
  1.919   1.941   1.949   1.977   1.982   1.990   2.008   2.024
  2.035   2.039   2.067   2.074   2.100   2.115   2.122   2.129
  2.140   2.146   2.158   2.169   2.189   2.200   2.227   2.241
  2.257   2.278   2.317   2.337   2.369   2.394   2.419   2.447
  2.456   2.464   2.474   2.490   2.498   2.505   2.510   2.523
  2.527   2.535   2.553   2.578   2.587   2.592   2.610   2.623
  2.628   2.649   2.657   2.685   2.698   2.722   2.748   2.756
  2.777   2.801   2.814   2.831   2.833   2.852   2.859   2.871
  2.877   2.890   2.900   2.916   2.937   2.953   2.966   3.002
  3.019   3.027   3.040   3.050   3.064   3.076   3.095   3.103
  3.121   3.134   3.149   3.161   3.195   3.217   3.226   3.242
  3.255   3.264   3.300   3.337   3.355   3.364   3.390   3.402
  3.447   3.579   3.595   3.605   3.666   3.693   3.732   3.780
  3.784   3.823   3.828   3.837   3.857   3.937   3.963   4.046
  4.060   4.074   4.087   4.127   4.141   4.145   4.168   4.219
  4.256   4.269   4.434   4.499   5.035   5.106   5.165   5.192
  5.214   5.253   5.272   5.410   5.436   5.514   5.620   5.640
  5.661   5.875   5.896  23.782  23.839  23.854  23.893  23.903
 23.932  23.944  23.956  23.975  23.986  24.049  49.905  49.942
 49.982  50.039  50.049
 --------------------------------------------------------------
 
          Ground-State Mulliken Net Atomic Charges

     Atom                 Charge (a.u.)
  ----------------------------------------
      1 C                    -0.209861
      2 C                     1.035898
      3 C                    -0.500246
      4 C                    -0.976009
      5 O                    -0.016571
      6 O                    -0.207702
      7 O                    -0.020043
      8 O                    -0.141788
      9 C                    -0.210368
     10 C                    -0.199838
     11 C                     0.074805
     12 C                    -0.507272
     13 C                    -0.384573
     14 C                    -0.375115
     15 O                    -0.067075
     16 H                     0.240593
     17 H                     0.290794
     18 H                     0.191605
     19 H                     0.173926
     20 H                     0.185661
     21 H                     0.123362
     22 H                     0.162810
     23 H                     0.141291
     24 H                     0.177395
     25 H                     0.173172
     26 H                     0.162644
     27 H                     0.180103
     28 H                     0.293453
     29 C                    -0.316000
     30 H                     0.179533
     31 H                     0.164090
     32 H                     0.181324
  ----------------------------------------
  Sum of atomic charges =     0.000000

 -----------------------------------------------------------------
                    Cartesian Multipole Moments
 -----------------------------------------------------------------
    Charge (ESU x 10^10)
                 0.0000
    Dipole Moment (Debye)
         X       0.0498      Y       0.4492      Z       1.0886
       Tot       1.1787
    Quadrupole Moments (Debye-Ang)
        XX     -81.6718     XY       2.5759     YY     -96.4191
        XZ       3.0635     YZ      10.9194     ZZ    -102.3740
    Octopole Moments (Debye-Ang^2)
       XXX     -54.8429    XXY      -5.6231    XYY       0.0162
       YYY       0.0999    XXZ       2.5098    XYZ     -15.5491
       YYZ     -14.9776    XZZ      -3.8068    YZZ       0.2289
       ZZZ      -2.7536
    Hexadecapole Moments (Debye-Ang^3)
      XXXX   -2136.1639   XXXY     -44.0575   XXYY    -597.9032
      XYYY      -8.8982   YYYY   -1414.8237   XXXZ     -39.4972
      XXYZ      22.2074   XYYZ      -2.7066   YYYZ      70.6624
      XXZZ    -474.7163   XYZZ       4.1903   YYZZ    -333.0897
      XZZZ       4.7720   YZZZ      28.1682   ZZZZ    -487.6642
 -----------------------------------------------------------------
 Calculating analytic gradient of the SCF energy
 Gradient of SCF Energy
            1           2           3           4           5           6
    1   0.0001322  -0.0001715   0.0000401  -0.0001778   0.0000307  -0.0000633
    2  -0.0000843   0.0001398   0.0007821   0.0003338  -0.0003585  -0.0001902
    3  -0.0001050  -0.0000457   0.0002695  -0.0000765   0.0000393  -0.0001711
            7           8           9          10          11          12
    1   0.0001430   0.0000964  -0.0000215   0.0000303   0.0001389  -0.0002179
    2  -0.0000860  -0.0001370  -0.0000700  -0.0000309  -0.0000081  -0.0000030
    3   0.0000759   0.0000514  -0.0000487  -0.0000477  -0.0001608   0.0001570
           13          14          15          16          17          18
    1   0.0001284   0.0000667   0.0000325  -0.0000084  -0.0000799   0.0000028
    2   0.0001422  -0.0001398  -0.0002331  -0.0001574  -0.0000110   0.0000216
    3  -0.0000893  -0.0000802   0.0000832   0.0000583   0.0000103   0.0000012
           19          20          21          22          23          24
    1  -0.0000084  -0.0000168  -0.0000339   0.0000305   0.0000441   0.0000138
    2  -0.0000048  -0.0000273  -0.0000064   0.0000709  -0.0000271  -0.0000074
    3  -0.0000016  -0.0000408   0.0000356   0.0000143   0.0000101  -0.0000126
           25          26          27          28          29          30
    1   0.0000234  -0.0000208  -0.0000305  -0.0000625   0.0000222   0.0000100
    2   0.0000158  -0.0000259  -0.0000196   0.0000678   0.0000682   0.0000154
    3  -0.0000113  -0.0000149  -0.0000010   0.0000736   0.0000264   0.0000077
           31          32
    1  -0.0000265  -0.0000462
    2  -0.0000212  -0.0000084
    3  -0.0000223   0.0000158
 Max gradient component =       7.821E-04
 RMS gradient           =       1.263E-04
 Gradient time:  CPU 318.22 s  wall 22.15 s
 Geometry Optimization Parameters
   NAtoms,    NIC,     NZ,  NCons,   NDum,   NFix, NCnnct, MaxDiis
       32     251       0       0       0       0       0       0

 Cartesian Hessian Update
 Hessian Updated using BFGS Update


** GEOMETRY OPTIMIZATION IN DELOCALIZED INTERNAL COORDINATES **
   Searching for a Minimum

   Optimization Cycle:   3

                       Coordinates (Angstroms)
     ATOM                X               Y               Z
      1  C         0.1633554303    1.1876546476    0.4363611432
      2  C         0.5640510282   -0.2707909262    0.8496595358
      3  C        -1.2421813591    1.3782911591   -0.1022458382
      4  C        -0.4377312983   -1.3725972308    0.5739249781
      5  O        -2.1501477923    0.9241432022    0.7904839806
      6  O        -1.5356116594    1.9102716580   -1.1418364307
      7  O        -0.9726675760   -1.2870686010   -0.6574452048
      8  O        -0.6870714564   -2.2636836823    1.3507473218
      9  C        -1.9196530534   -2.3071358535   -1.0173724832
     10  C        -3.5294377321    1.0085412993    0.3905534355
     11  C         1.2701462004    1.5394521848   -0.5861462209
     12  C         2.5706206159    1.8564983002    0.1772716968
     13  C         2.9834342039    0.4330889329    0.6516316294
     14  C         1.8823452090   -0.4533298579    0.0039798524
     15  O         1.5667673190    0.2748714661   -1.1932384290
     16  H         0.2221230291    1.8297167279    1.3198332046
     17  H         0.7755481904   -0.3377957283    1.9153312401
     18  H        -2.7502510205   -2.3212090506   -0.3097717918
     19  H        -3.8234336970    2.0488672986    0.2431378165
     20  H         3.3124380472    2.2769372896   -0.5033288851
     21  H         2.4221723258    2.5643940850    0.9951724429
     22  H         3.9608089787    0.1491894757    0.2577763007
     23  H         3.0166412800    0.3270329254    1.7378661866
     24  H        -2.2632681131   -2.0420646495   -2.0146771622
     25  H        -1.4403651123   -3.2874551948   -1.0244871768
     26  H        -4.0957733303    0.5616965973    1.2047278037
     27  H        -3.6878979320    0.4568135295   -0.5376643058
     28  H         0.9615100560    2.2507678807   -1.3469087932
     29  C         2.2899751963   -1.8741950348   -0.3145537949
     30  H         3.1988784503   -1.8712321146   -0.9196500878
     31  H         2.4834415012   -2.4314550237    0.6051375940
     32  H         1.5077665903   -2.3895709817   -0.8746109785
   Point Group: c1    Number of degrees of freedom:    90


   Energy is   -805.198317116

 Hessian Updated using BFGS Update

 83 Hessian modes will be used to form the next step
  Hessian Eigenvalues:
     0.002680    0.005313    0.007018    0.007277    0.007569    0.010567
     0.010667    0.011459    0.021987    0.022391    0.022873    0.026414
     0.033137    0.035846    0.038609    0.041681    0.043660    0.045239
     0.048634    0.051867    0.054499    0.055057    0.055495    0.057251
     0.058473    0.059428    0.063679    0.064787    0.065809    0.075040
     0.081120    0.092059    0.099523    0.101322    0.101421    0.103877
     0.105925    0.106077    0.120951    0.123031    0.153853    0.159765
     0.160042    0.160353    0.173105    0.232152    0.237994    0.248802
     0.249098    0.249757    0.249832    0.250137    0.250502    0.254780
     0.268957    0.278935    0.306098    0.309287    0.311288    0.335931
     0.344020    0.345148    0.345939    0.345955    0.345993    0.346326
     0.346525    0.346615    0.346635    0.346692    0.346720    0.346878
     0.346988    0.349890    0.350708    0.350895    0.352472    0.397875
     0.399247    0.545938    0.560557    1.008902    1.027345

 Minimum Search - Taking Simple RFO Step
 Searching for Lamda that Minimizes Along All modes
 Value Taken    Lamda =  -0.00001277
 Step Taken.  Stepsize is  0.029462

                             Maximum     Tolerance    Cnvgd?
         Gradient           0.000315      0.000001      NO
         Displacement       0.007877      0.000001      NO
         Energy change      0.000008      0.000000      NO


 New Cartesian Coordinates Obtained by Inverse Iteration

 Displacement from previous Coordinates is:  0.073303
 Adding empirical dispersion correction 
 ----------------------------------------------------------------
 Doing -D3(op) with
 s6 =   1.00000
 s8 =   0.78311
 a1 =   0.30000
 a2 =   4.25000
 n  =  10.00000
 -D3 energy without 3body term =     -0.0372308355 hartrees
 ----------------------------------------------------------------
             Standard Nuclear Orientation (Angstroms)
    I     Atom           X                Y                Z
 ----------------------------------------------------------------
    1      C       0.1616098744     1.1843003968     0.4358128289
    2      C       0.5646367091    -0.2738474111     0.8491941206
    3      C      -1.2434259420     1.3721868912    -0.1051239204
    4      C      -0.4356690791    -1.3769639841     0.5728204424
    5      O      -2.1526807648     0.9291586827     0.7918103328
    6      O      -1.5354848420     1.9016613456    -1.1463240202
    7      O      -0.9740078406    -1.2885418822    -0.6569162953
    8      O      -0.6801435543    -2.2718036464     1.3467764015
    9      C      -1.9188043544    -2.3101363231    -1.0180630501
   10      C      -3.5320688576     1.0184326888     0.3934176752
   11      C       1.2688084122     1.5386231538    -0.5855512507
   12      C       2.5695309730     1.8566076210     0.1773636552
   13      C       2.9817147318     0.4337166806     0.6539647184
   14      C       1.8831461000    -0.4535695203     0.0037161925
   15      O       1.5673578645     0.2750450528    -1.1933378000
   16      H       0.2179287306     1.8274334737     1.3186988189
   17      H       0.7767431011    -0.3408990143     1.9147397765
   18      H      -2.7473747410    -2.3296179871    -0.3082282925
   19      H      -3.8206791918     2.0593360796     0.2396139327
   20      H       3.3114658829     2.2760221615    -0.5037250614
   21      H       2.4213734580     2.5657412633     0.9942206462
   22      H       3.9604695095     0.1495769511     0.2637597808
   23      H       3.0110353140     0.3287783884     1.7404117180
   24      H      -2.2660412022    -2.0423207834    -2.0133732045
   25      H      -1.4365688141    -3.2889716373    -1.0302811590
   26      H      -4.0995185712     0.5799890918     1.2113658385
   27      H      -3.6948457614     0.4615484440    -0.5309634617
   28      H       0.9598745661     2.2493565231    -1.3467224836
   29      C       2.2938358392    -1.8734007572    -0.3157770515
   30      H       3.2035310350    -1.8679832662    -0.9196655630
   31      H       2.4872590054    -2.4311510379     0.6036289013
   32      H       1.5135249299    -2.3896629090    -0.8776045863
 ----------------------------------------------------------------
 Nuclear Repulsion Energy =  1265.5739139030 hartrees
 There are       61 alpha and       61 beta electrons
 Applying Cartesian multipole field
    Component          Value
    ---------          -----
     (2,0,0)        1.00000E-11
     (0,2,0)        2.00000E-11
     (0,0,2)       -3.00000E-11
 Nucleus-field energy     =     0.0000000277 hartrees
 Requested basis set is 6-311++G(d,p)
 There are 176 shells and 464 basis functions
 A cutoff of  1.0D-11 yielded  12875 shell pairs
 There are     91285 function pairs (     97420 Cartesian)
 Smallest overlap matrix eigenvalue = 1.01E-06

 Q-Chem warning in module /fs/scratch/osu6415/qchem-kaunlao-vdw/stvman/mkSTV.C, line 281:

 Overlap eigenvalue is smaller than square root of threshold

 Guess MOs from SCF MO coefficient file
 Reading MOs from coefficient file
 Reading MOs from coefficient file
 A restricted hybrid HF-DFT SCF calculation will be
 performed using Pulay DIIS extrapolation
 Exchange:     0.2000 Hartree-Fock + 0.0800 Slater + 0.7200 B88
 Correlation:  0.1900 VWN1RPA + 0.8100 LYP
 Using SG-1 standard quadrature grid
 Dispersion:   Grimme D3
 SCF converges when DIIS error is below 1.0E-08
 Geometry optimization detected.  Setting ReadMinima to 0
 Setting SaveMinima to 0
 using 20 threads for integral computing
 -------------------------------------------------------
 OpenMP Integral computing Module                
 Release: version 1.0, May 2013, Q-Chem Inc. Pittsburgh 
 -------------------------------------------------------
 -------------------------------------------------------
 OpenMP BLAS3 based DFT computing Module                
 Release: version 1.0, May 2013, Q-Chem Inc. Pittsburgh 
 -------------------------------------------------------
 ---------------------------------------
  Cycle       Energy         DIIS Error
 ---------------------------------------
    1    -805.1986513110      1.07E-04
    2    -805.1983213614      1.32E-05
    3    -805.1983155752      2.32E-05
    4    -805.1983259222      3.71E-06
    5    -805.1983261049      2.07E-06
    6    -805.1983261857      5.22E-07
    7    -805.1983261904      1.99E-07
    8    -805.1983261914      5.75E-08
    9    -805.1983261913      2.82E-08
   10    -805.1983261921      6.52E-09 Convergence criterion met
 ---------------------------------------
 SCF time:  CPU 632.32 s  wall 32.89 s
 SCF   energy in the final basis set = -805.19832619
 Total energy in the final basis set = -805.19832619
 
 --------------------------------------------------------------
 
                    Orbital Energies (a.u.)
 --------------------------------------------------------------
 
 Alpha MOs
 -- Occupied --
-19.175 -19.174 -19.129 -19.119 -19.116 -10.309 -10.306 -10.245
-10.232 -10.230 -10.229 -10.206 -10.205 -10.180 -10.179 -10.170
 -1.120  -1.113  -1.062  -1.030  -1.028  -0.832  -0.795  -0.784
 -0.746  -0.729  -0.696  -0.655  -0.606  -0.592  -0.569  -0.561
 -0.532  -0.517  -0.510  -0.491  -0.490  -0.483  -0.476  -0.473
 -0.462  -0.441  -0.434  -0.425  -0.416  -0.405  -0.397  -0.387
 -0.380  -0.374  -0.369  -0.361  -0.355  -0.353  -0.334  -0.332
 -0.320  -0.313  -0.290  -0.281  -0.273
 -- Virtual --
 -0.020  -0.011  -0.006   0.000   0.007   0.010   0.014   0.020
  0.026   0.032   0.035   0.040   0.041   0.047   0.053   0.055
  0.062   0.066   0.070   0.075   0.081   0.087   0.092   0.096
  0.100   0.103   0.106   0.108   0.112   0.115   0.117   0.124
  0.128   0.129   0.131   0.133   0.134   0.139   0.139   0.143
  0.145   0.150   0.152   0.155   0.157   0.158   0.161   0.164
  0.167   0.168   0.175   0.181   0.183   0.186   0.188   0.192
  0.197   0.202   0.204   0.205   0.213   0.215   0.220   0.222
  0.227   0.231   0.234   0.246   0.247   0.254   0.256   0.261
  0.264   0.271   0.273   0.282   0.284   0.286   0.298   0.300
  0.301   0.306   0.314   0.316   0.324   0.331   0.333   0.341
  0.343   0.347   0.351   0.357   0.358   0.360   0.363   0.368
  0.374   0.378   0.385   0.386   0.389   0.398   0.403   0.414
  0.421   0.426   0.430   0.438   0.442   0.459   0.463   0.479
  0.492   0.497   0.501   0.511   0.526   0.532   0.535   0.551
  0.557   0.561   0.573   0.581   0.588   0.591   0.601   0.608
  0.626   0.629   0.634   0.646   0.651   0.652   0.658   0.662
  0.670   0.681   0.683   0.687   0.693   0.703   0.707   0.715
  0.723   0.726   0.734   0.739   0.745   0.752   0.763   0.768
  0.780   0.785   0.794   0.797   0.807   0.820   0.831   0.841
  0.855   0.867   0.899   0.910   0.936   0.960   0.977   1.009
  1.023   1.046   1.051   1.056   1.078   1.090   1.097   1.123
  1.138   1.150   1.169   1.179   1.188   1.210   1.214   1.219
  1.237   1.251   1.253   1.268   1.269   1.291   1.296   1.311
  1.322   1.332   1.357   1.367   1.379   1.393   1.400   1.407
  1.428   1.441   1.449   1.462   1.469   1.477   1.505   1.510
  1.516   1.522   1.540   1.550   1.558   1.565   1.573   1.577
  1.586   1.601   1.603   1.609   1.613   1.631   1.640   1.655
  1.671   1.681   1.694   1.696   1.699   1.708   1.713   1.723
  1.730   1.733   1.752   1.760   1.783   1.797   1.802   1.815
  1.824   1.831   1.848   1.854   1.865   1.878   1.894   1.906
  1.919   1.940   1.948   1.977   1.982   1.989   2.008   2.024
  2.034   2.038   2.067   2.074   2.100   2.114   2.122   2.129
  2.141   2.145   2.158   2.168   2.189   2.200   2.227   2.241
  2.257   2.277   2.316   2.337   2.369   2.394   2.419   2.447
  2.456   2.464   2.474   2.490   2.498   2.506   2.510   2.523
  2.527   2.534   2.553   2.577   2.586   2.592   2.610   2.623
  2.628   2.649   2.657   2.684   2.698   2.722   2.748   2.757
  2.777   2.801   2.814   2.831   2.833   2.852   2.859   2.871
  2.877   2.890   2.900   2.916   2.937   2.953   2.966   3.001
  3.018   3.027   3.041   3.050   3.064   3.076   3.095   3.103
  3.121   3.134   3.149   3.161   3.195   3.216   3.227   3.241
  3.255   3.264   3.300   3.337   3.354   3.364   3.390   3.402
  3.447   3.579   3.595   3.606   3.666   3.694   3.732   3.779
  3.784   3.823   3.828   3.837   3.857   3.938   3.963   4.046
  4.060   4.073   4.086   4.127   4.141   4.145   4.168   4.219
  4.256   4.269   4.434   4.499   5.036   5.107   5.165   5.190
  5.214   5.253   5.272   5.410   5.436   5.514   5.620   5.640
  5.661   5.875   5.896  23.782  23.840  23.854  23.893  23.903
 23.932  23.944  23.956  23.975  23.986  24.049  49.906  49.942
 49.982  50.039  50.048
 --------------------------------------------------------------
 
          Ground-State Mulliken Net Atomic Charges

     Atom                 Charge (a.u.)
  ----------------------------------------
      1 C                    -0.195975
      2 C                     1.024578
      3 C                    -0.511197
      4 C                    -0.969801
      5 O                    -0.016433
      6 O                    -0.207110
      7 O                    -0.019656
      8 O                    -0.142407
      9 C                    -0.210363
     10 C                    -0.198281
     11 C                     0.070733
     12 C                    -0.506470
     13 C                    -0.384608
     14 C                    -0.371939
     15 O                    -0.067539
     16 H                     0.241024
     17 H                     0.290896
     18 H                     0.191703
     19 H                     0.173719
     20 H                     0.185666
     21 H                     0.123526
     22 H                     0.162840
     23 H                     0.141104
     24 H                     0.177452
     25 H                     0.173079
     26 H                     0.162335
     27 H                     0.179806
     28 H                     0.293134
     29 C                    -0.314971
     30 H                     0.179360
     31 H                     0.164390
     32 H                     0.181405
  ----------------------------------------
  Sum of atomic charges =     0.000000

 -----------------------------------------------------------------
                    Cartesian Multipole Moments
 -----------------------------------------------------------------
    Charge (ESU x 10^10)
                 0.0000
    Dipole Moment (Debye)
         X       0.0410      Y       0.4613      Z       1.0964
       Tot       1.1902
    Quadrupole Moments (Debye-Ang)
        XX     -81.6505     XY       2.5546     YY     -96.4073
        XZ       3.0324     YZ      10.9161     ZZ    -102.3754
    Octopole Moments (Debye-Ang^2)
       XXX     -54.9333    XXY      -5.4370    XYY      -0.1840
       YYY       0.7570    XXZ       2.6185    XYZ     -15.5039
       YYZ     -15.1099    XZZ      -3.8522    YZZ       0.2602
       ZZZ      -2.5278
    Hexadecapole Moments (Debye-Ang^3)
      XXXX   -2136.7013   XXXY     -43.4273   XXYY    -597.8215
      XYYY      -8.0618   YYYY   -1416.4054   XXXZ     -39.7416
      XXYZ      22.1185   XYYZ      -2.6619   YYYZ      70.4930
      XXZZ    -474.8865   XYZZ       4.6551   YYZZ    -333.3916
      XZZZ       4.4334   YZZZ      27.8585   ZZZZ    -487.9352
 -----------------------------------------------------------------
 Calculating analytic gradient of the SCF energy
 Gradient of SCF Energy
            1           2           3           4           5           6
    1  -0.0000521   0.0000721   0.0000292  -0.0004175  -0.0000675  -0.0000009
    2   0.0000481  -0.0000401  -0.0003539   0.0003422   0.0001162   0.0001219
    3  -0.0000435   0.0000136  -0.0001808   0.0000881   0.0000757   0.0001024
            7           8           9          10          11          12
    1   0.0001580   0.0001649   0.0000377   0.0000053   0.0000186   0.0000067
    2  -0.0001302  -0.0001512  -0.0000291   0.0000024   0.0000511  -0.0000046
    3  -0.0000194  -0.0000655  -0.0000074   0.0000049   0.0000326  -0.0000227
           13          14          15          16          17          18
    1  -0.0000033   0.0000538  -0.0000267   0.0000304  -0.0000265   0.0000050
    2   0.0000251   0.0000467   0.0000364  -0.0000327  -0.0000191   0.0000017
    3   0.0000127  -0.0000078  -0.0000229   0.0000191   0.0000117  -0.0000028
           19          20          21          22          23          24
    1  -0.0000166   0.0000244  -0.0000172  -0.0000115   0.0000025   0.0000149
    2  -0.0000154   0.0000039  -0.0000096   0.0000088  -0.0000069  -0.0000049
    3   0.0000001   0.0000108  -0.0000087   0.0000023   0.0000238  -0.0000096
           25          26          27          28          29          30
    1   0.0000027  -0.0000089   0.0000092  -0.0000122   0.0000284   0.0000055
    2  -0.0000030  -0.0000153  -0.0000160  -0.0000050   0.0000229   0.0000084
    3  -0.0000084  -0.0000025  -0.0000047   0.0000018   0.0000152   0.0000063
           31          32
    1  -0.0000058  -0.0000025
    2  -0.0000017   0.0000029
    3  -0.0000072  -0.0000069
 Max gradient component =       4.175E-04
 RMS gradient           =       8.180E-05
 Gradient time:  CPU 318.53 s  wall 22.20 s
 Geometry Optimization Parameters
   NAtoms,    NIC,     NZ,  NCons,   NDum,   NFix, NCnnct, MaxDiis
       32     251       0       0       0       0       0       0

 Cartesian Hessian Update
 Hessian Updated using BFGS Update


** GEOMETRY OPTIMIZATION IN DELOCALIZED INTERNAL COORDINATES **
   Searching for a Minimum

   Optimization Cycle:   4

                       Coordinates (Angstroms)
     ATOM                X               Y               Z
      1  C         0.1616098744    1.1843003968    0.4358128289
      2  C         0.5646367091   -0.2738474111    0.8491941206
      3  C        -1.2434259420    1.3721868912   -0.1051239204
      4  C        -0.4356690791   -1.3769639841    0.5728204424
      5  O        -2.1526807648    0.9291586827    0.7918103328
      6  O        -1.5354848420    1.9016613456   -1.1463240202
      7  O        -0.9740078406   -1.2885418822   -0.6569162953
      8  O        -0.6801435543   -2.2718036464    1.3467764015
      9  C        -1.9188043544   -2.3101363231   -1.0180630501
     10  C        -3.5320688576    1.0184326888    0.3934176752
     11  C         1.2688084122    1.5386231538   -0.5855512507
     12  C         2.5695309730    1.8566076210    0.1773636552
     13  C         2.9817147318    0.4337166806    0.6539647184
     14  C         1.8831461000   -0.4535695203    0.0037161925
     15  O         1.5673578645    0.2750450528   -1.1933378000
     16  H         0.2179287306    1.8274334737    1.3186988189
     17  H         0.7767431011   -0.3408990143    1.9147397765
     18  H        -2.7473747410   -2.3296179871   -0.3082282925
     19  H        -3.8206791918    2.0593360796    0.2396139327
     20  H         3.3114658829    2.2760221615   -0.5037250614
     21  H         2.4213734580    2.5657412633    0.9942206462
     22  H         3.9604695095    0.1495769511    0.2637597808
     23  H         3.0110353140    0.3287783884    1.7404117180
     24  H        -2.2660412022   -2.0423207834   -2.0133732045
     25  H        -1.4365688141   -3.2889716373   -1.0302811590
     26  H        -4.0995185712    0.5799890918    1.2113658385
     27  H        -3.6948457614    0.4615484440   -0.5309634617
     28  H         0.9598745661    2.2493565231   -1.3467224836
     29  C         2.2938358392   -1.8734007572   -0.3157770515
     30  H         3.2035310350   -1.8679832662   -0.9196655630
     31  H         2.4872590054   -2.4311510379    0.6036289013
     32  H         1.5135249299   -2.3896629090   -0.8776045863
   Point Group: c1    Number of degrees of freedom:    90


   Energy is   -805.198326192

 Hessian Updated using BFGS Update

 85 Hessian modes will be used to form the next step
  Hessian Eigenvalues:
     0.002572    0.003986    0.007016    0.007167    0.007483    0.010567
     0.010599    0.020006    0.022181    0.022778    0.022925    0.026416
     0.032914    0.035840    0.038622    0.042442    0.043863    0.045830
     0.048450    0.051870    0.054217    0.055038    0.056750    0.057145
     0.058343    0.059350    0.063672    0.064789    0.066120    0.074827
     0.080530    0.092061    0.099406    0.101317    0.101419    0.104692
     0.105925    0.106081    0.120949    0.123025    0.153445    0.159739
     0.159914    0.160073    0.160537    0.173110    0.232000    0.237694
     0.247847    0.249009    0.249735    0.249799    0.249963    0.250043
     0.251872    0.254781    0.268270    0.278935    0.306104    0.309325
     0.311234    0.336048    0.343961    0.345148    0.345938    0.345948
     0.346064    0.346342    0.346518    0.346576    0.346650    0.346687
     0.346695    0.346872    0.346998    0.349897    0.350707    0.350895
     0.352474    0.397904    0.399248    0.545232    0.559960    1.008218
     1.027661

 Minimum Search - Taking Simple RFO Step
 Searching for Lamda that Minimizes Along All modes
 Value Taken    Lamda =  -0.00001057
 Step Taken.  Stepsize is  0.035517

                             Maximum     Tolerance    Cnvgd?
         Gradient           0.000222      0.000001      NO
         Displacement       0.012934      0.000001      NO
         Energy change     -0.000009      0.000000      NO


 New Cartesian Coordinates Obtained by Inverse Iteration

 Displacement from previous Coordinates is:  0.139818
 Adding empirical dispersion correction 
 ----------------------------------------------------------------
 Doing -D3(op) with
 s6 =   1.00000
 s8 =   0.78311
 a1 =   0.30000
 a2 =   4.25000
 n  =  10.00000
 -D3 energy without 3body term =     -0.0372846251 hartrees
 ----------------------------------------------------------------
             Standard Nuclear Orientation (Angstroms)
    I     Atom           X                Y                Z
[...]
    -0.00008998      0.00005461      0.00009741
     0.00000975     -0.00029160      0.00045489
    -0.00001320      0.00002770      0.00001149
    -0.00003112      0.00000101     -0.00000355
     0.00012084      0.00024853     -0.00000120
    -0.00171192      0.00041294     -0.00079869
    -0.00094627     -0.00035818     -0.00025348
    -0.00111064      0.00852079      0.00774979
     0.02760310     -0.01044892      0.01752854
    -0.00046349     -0.00025930     -0.00029132
    -0.00003144      0.00026166      0.00006972
     0.05390065      0.49010989      0.68693012
    -0.01336815      0.00207661     -0.06837584
    -0.00260986     -0.00004107      0.00227638
     0.00675475     -0.02513611      0.00332770
    -0.01021598     -0.00303207      0.01270996
     0.02189698     -0.08961012     -0.10497570
    -0.31948211      0.08980976      0.14067802
     0.00172239      0.02956843     -0.34351899
    -0.00072347      0.00058200     -0.00206652
     0.00181608     -0.00367721     -0.00004335
     0.00900942      0.00714883     -0.01344796
     0.00382135      0.01298342      0.02103267
     0.00186933     -0.00151516      0.00115200
     0.00034858     -0.00299573     -0.00041410
    -0.02450939     -0.00008715      0.01627545
    -0.00614001      0.01805412     -0.02983865
     0.02689220      0.01814909      0.01974078
vibration 80
    -0.00139889     -0.01818039     -0.02592378
     0.00163048     -0.00028348      0.00702692
     0.00011232     -0.00007740     -0.00075005
     0.00006102      0.00022474      0.00017190
    -0.00010971      0.00001989      0.00005339
    -0.00006423     -0.00012514      0.00020664
    -0.00003133     -0.00001797     -0.00002570
    -0.00004745     -0.00010535      0.00000910
     0.00011679      0.00039722      0.00002542
    -0.00022153      0.00015197      0.00007453
    -0.00024957      0.00212624     -0.00249213
    -0.02294466     -0.04753075     -0.00821529
    -0.02607627      0.01074666     -0.01943590
     0.00021969      0.00109885      0.00001655
    -0.00000514      0.00023149      0.00028407
     0.02442690      0.22034916      0.31010562
    -0.01716484      0.00387889     -0.08361467
    -0.00307939     -0.00002257      0.00262412
     0.00090171     -0.00335323      0.00040844
     0.35356808      0.18737784     -0.33178305
    -0.08818916      0.35877888      0.43324547
     0.30119544     -0.08499861     -0.13344173
    -0.00111622     -0.03183116      0.35693124
    -0.00094538      0.00077337     -0.00268421
     0.00270294     -0.00541175     -0.00009778
     0.00103115      0.00091159     -0.00173061
     0.00034358      0.00062876      0.00097592
     0.01126517     -0.03374767      0.03145982
    -0.00015792      0.00178343      0.00022831
     0.01455777     -0.00010786     -0.00978113
     0.00376181     -0.01143921      0.01845039
    -0.01682446     -0.01193699     -0.01275099
vibration 81
     0.00034331      0.00400653      0.00521839
     0.00149434     -0.00033034      0.00763111
     0.00004102     -0.00003819      0.00012499
    -0.00008950     -0.00034845      0.00024978
    -0.00000733     -0.00000850     -0.00000130
    -0.00002136      0.00003720     -0.00004031
     0.00001510      0.00004266      0.00000591
     0.00002860      0.00010574     -0.00008212
    -0.00002684     -0.00008723     -0.00002172
     0.00008006     -0.00014343     -0.00003412
    -0.00111487      0.00181950     -0.00108676
    -0.03172183      0.00663784      0.05050862
     0.03933397     -0.00731664     -0.06097450
     0.00075580      0.00002408     -0.00061385
     0.00006966     -0.00015541     -0.00000966
    -0.00454599     -0.04603793     -0.06550676
    -0.01969616      0.00458155     -0.08877460
     0.00053786      0.00004704     -0.00040395
    -0.00049465      0.00176819     -0.00025686
     0.32531599      0.18181225     -0.29363409
     0.05296102     -0.26435061     -0.30685172
    -0.48323737      0.13601481      0.19257694
     0.01502392     -0.04933331      0.53329205
     0.00032610     -0.00014082      0.00078095
    -0.00045111      0.00108880      0.00004075
    -0.00026707     -0.00023860      0.00040276
    -0.00002381      0.00014508      0.00026623
     0.00718632     -0.01697073      0.01738422
    -0.00629108     -0.00327231      0.00412365
     0.05468466      0.00214609     -0.03554131
    -0.00850217      0.02034482     -0.03455735
     0.02644756      0.01745128      0.02177676
vibration 82
    -0.00023551     -0.00072883     -0.00109756
     0.00483697     -0.00120282      0.02235392
    -0.00025908      0.00012386     -0.00008657
    -0.00008150     -0.00062388      0.00072691
     0.00006358      0.00001256     -0.00001360
     0.00005469     -0.00003718      0.00006185
    -0.00005066      0.00004322     -0.00011367
     0.00001940      0.00025660     -0.00025411
    -0.00067656      0.00045629      0.00012997
    -0.00009576      0.00047619      0.00013667
     0.00150280     -0.00223287      0.00140129
     0.03197918     -0.00618499     -0.05007508
     0.02286628     -0.00433361     -0.03346235
    -0.00008486      0.00000500      0.00034979
    -0.00015005      0.00027655      0.00005739
     0.00015188      0.00807006      0.01348389
    -0.05567549      0.01277305     -0.26484186
     0.00462823      0.00017599     -0.00401773
     0.00120430     -0.00444731      0.00069857
    -0.32890707     -0.18627715      0.29884998
    -0.05306750      0.26024125      0.29905967
    -0.28172823      0.08186942      0.11294422
     0.00841585     -0.02923016      0.28447577
     0.00077179     -0.00045937      0.00241940
     0.00272518     -0.00516447      0.00012260
     0.00009016      0.00009220     -0.00000772
    -0.00032332     -0.00139403     -0.00238273
    -0.00954789      0.02295086     -0.02337230
    -0.02983698     -0.01879453      0.04184508
     0.37546340      0.00405819     -0.24440707
    -0.07305156      0.18682129     -0.30936265
     0.05366003      0.03456558      0.05217616
vibration 83
    -0.00006032      0.00091182      0.00084775
     0.00567833     -0.00125229      0.02837596
    -0.00025247      0.00012596     -0.00009863
    -0.00037068     -0.00051787      0.00038804
     0.00005415     -0.00000694      0.00000141
     0.00005595     -0.00003083      0.00008578
    -0.00004303      0.00006128      0.00002976
     0.00007810      0.00012200     -0.00016884
     0.00011164     -0.00032107     -0.00000579
    -0.00004297     -0.00018837     -0.00015649
     0.00106112     -0.00164403      0.00100201
     0.01780238     -0.00316312     -0.02773392
     0.01770298     -0.00343735     -0.02425618
     0.00101172      0.00040545     -0.00186425
    -0.00008890     -0.00010298      0.00040167
    -0.00152801     -0.00952815     -0.01072092
    -0.06996208      0.01637843     -0.33137741
     0.00018758      0.00005830      0.00010117
    -0.00017571      0.00085436     -0.00015430
    -0.18448056     -0.10499571      0.16777577
    -0.02911665      0.14316465      0.16426798
    -0.21915282      0.06226095      0.08603074
     0.00597941     -0.01952549      0.20443015
     0.00011282      0.00012388     -0.00031165
    -0.00160558      0.00353535      0.00001030
     0.00017405      0.00005087     -0.00017670
     0.00032517      0.00127141      0.00208675
    -0.00655595      0.01584815     -0.01619156
     0.01922063      0.02007700     -0.06968893
    -0.44394786     -0.00228553      0.28301001
     0.11263546     -0.30533440      0.50244806
     0.09963678      0.06651981      0.05281737
vibration 84
     0.00010639      0.00054288      0.00077938
     0.00066011     -0.00019942      0.00149123
    -0.00000091     -0.00004371      0.00002478
     0.00014215     -0.00014368     -0.00017307
    -0.00000392      0.00001380     -0.00000298
    -0.00000801      0.00002153     -0.00001544
    -0.00020316      0.00010183      0.00009674
    -0.00002087      0.00009454      0.00000553
     0.00567670     -0.00381291     -0.00282604
     0.00009623     -0.00035799     -0.00015732
    -0.00025260      0.00037814     -0.00026916
    -0.00571487      0.00121647      0.00887316
    -0.00831061      0.00198613      0.01207662
    -0.00183530     -0.00031242     -0.00042984
     0.00025364     -0.00008053      0.00004805
    -0.00056589     -0.00646513     -0.00934485
    -0.00407703      0.00135413     -0.01833021
    -0.04272806     -0.00131103      0.03837642
    -0.00090547      0.00333374     -0.00055932
     0.05884692      0.03328890     -0.05338953
     0.00988462     -0.04692270     -0.05312988
     0.10794987     -0.02869122     -0.04229150
    -0.00294180      0.00951846     -0.09989563
    -0.00014871      0.00017317     -0.00425997
    -0.02353186      0.04661874     -0.00031449
    -0.00034824     -0.00037190      0.00050146
     0.00027699      0.00109751      0.00184970
     0.00181510     -0.00430913      0.00449495
    -0.08033385     -0.01855797     -0.03758042
     0.33330163      0.00193681     -0.24065853
     0.04201143     -0.16930131      0.26986091
     0.58970989      0.38750578      0.42158962
vibration 85
    -0.00004030     -0.00014968     -0.00009612
     0.00049797     -0.00017051      0.00155520
     0.00014070      0.00015586     -0.00003279
    -0.00023287      0.00003046      0.00000827
    -0.00009414      0.00015682      0.00011362
    -0.00004680      0.00004042      0.00005815
    -0.00017964      0.00019936      0.00015032
    -0.00008544      0.00007645      0.00004585
     0.05897888     -0.04377946     -0.03069876
     0.00441094     -0.04596242     -0.02210004
     0.00002272     -0.00000825     -0.00006478
     0.00038326     -0.00014388     -0.00063761
     0.00036917     -0.00009874     -0.00044806
     0.00016030      0.00002012      0.00008889
    -0.00002955      0.00005116     -0.00000724
    -0.00015954      0.00037084      0.00048867
    -0.00391110      0.00092698     -0.01909732
    -0.43439850     -0.01150954      0.39094851
    -0.09584775      0.36954674     -0.06029434
    -0.00385351     -0.00210812      0.00338082
    -0.00077361      0.00384804      0.00436248
    -0.00483056      0.00127568      0.00186876
     0.00008400     -0.00032629      0.00308360
     0.00543103     -0.00387733     -0.02384755
    -0.26783642      0.53246583     -0.00383296
    -0.00426853     -0.01297144      0.00316316
     0.04813007      0.18699224      0.31840645
     0.00010552     -0.00016663      0.00018869
     0.00513400      0.00105267      0.00353344
    -0.01546013      0.00005862      0.01185636
    -0.00423350      0.01523763     -0.02434196
    -0.04265221     -0.02773941     -0.02990781
vibration 86
    -0.00037839     -0.00617525     -0.00755098
    -0.01549478      0.00353397     -0.07242668
     0.00031986     -0.00019703     -0.00009509
     0.00045588      0.00150378     -0.00181936
    -0.00009053     -0.00004661      0.00004040
    -0.00001782     -0.00004664      0.00005383
     0.00013577      0.00001979      0.00035434
    -0.00007510     -0.00051166      0.00066722
     0.00673586     -0.00462993     -0.00290202
    -0.00084304      0.00882620      0.00439605
    -0.00008554     -0.00030575     -0.00078274
     0.01207616     -0.00316571     -0.01958786
     0.01377287     -0.00212896     -0.02753498
    -0.00027602      0.00051494     -0.00133665
    -0.00002286     -0.00007684      0.00079985
     0.00679121      0.07206292      0.09664401
     0.17735312     -0.04213064      0.85737516
    -0.04938295     -0.00166694      0.04395917
     0.01826693     -0.07068550      0.01143523
    -0.12246719     -0.07021314      0.11203302
    -0.02212881      0.10781338      0.12363329
    -0.17418662      0.05010812      0.06993431
     0.00779378     -0.02453062      0.26178671
    -0.00160249      0.00106202     -0.00862544
    -0.02830755      0.05545319     -0.00055956
     0.00085125      0.00263886     -0.00084141
    -0.00934453     -0.03636732     -0.06218768
     0.00288552     -0.00585483      0.00696234
    -0.00357592      0.00209795     -0.01369968
    -0.03704579     -0.00000042      0.02183572
     0.02239943     -0.06463974      0.10328699
     0.05794552      0.03895396      0.03964188
vibration 87
    -0.00002303     -0.00106104     -0.00117818
    -0.00222062      0.00055821     -0.01008735
    -0.00004164      0.00008307      0.00010322
     0.00005357      0.00015150     -0.00040222
     0.00001191      0.00029547      0.00011667
    -0.00000735      0.00010439      0.00004232
     0.00018967     -0.00010117      0.00002830
     0.00007937     -0.00011984      0.00009521
    -0.03746253      0.02743738      0.01935876
     0.00611570     -0.07126426     -0.03424407
    -0.00003988     -0.00000988     -0.00012112
     0.00147122     -0.00043990     -0.00243937
     0.00156406     -0.00021542     -0.00329905
    -0.00015001      0.00004549     -0.00019204
     0.00001454     -0.00001414      0.00010845
     0.00076373      0.01058230      0.01388925
     0.02492932     -0.00589491      0.12005728
     0.27691803      0.00791914     -0.24950983
    -0.14653259      0.56723074     -0.09164767
    -0.01479435     -0.00850548      0.01357405
    -0.00281306      0.01372333      0.01580891
    -0.01960373      0.00576146      0.00792923
     0.00094897     -0.00300433      0.03202487
    -0.00243106      0.00167419      0.01841830
     0.16822649     -0.33339561      0.00219195
    -0.00163028     -0.01639075     -0.00252219
     0.07593847      0.29133549      0.49896824
     0.00056791     -0.00117947      0.00126611
    -0.00360290     -0.00049578     -0.00338250
     0.00721559     -0.00000644     -0.00598864
     0.00457177     -0.01514482      0.02412579
     0.03198336      0.02099385      0.02247124
vibration 88
     0.00006774     -0.00030703     -0.00076001
    -0.00002618      0.00042625     -0.00127309
    -0.00050567     -0.00005317      0.00018165
     0.00003108      0.00012527     -0.00008443
    -0.00015352     -0.00014105      0.00015792
     0.00035758      0.00003401     -0.00002131
    -0.00002313     -0.00001992     -0.00000512
    -0.00002433     -0.00005398      0.00003767
     0.00050189     -0.00133386      0.00319411
     0.02291027      0.03216052     -0.06244300
     0.01471576     -0.03526131      0.03769899
    -0.00273631     -0.00139767      0.00144588
    -0.00085440      0.00042997     -0.00057442
    -0.00022955      0.00080720     -0.00031284
     0.00007645     -0.00022037     -0.00015794
     0.00012698      0.00464368      0.00808840
     0.00257778     -0.00085915      0.01285673
     0.00965760     -0.00042143     -0.00805198
     0.06218614     -0.22643188      0.01937227
     0.02887935      0.01554496     -0.02359717
     0.00065807      0.00226602      0.00389933
     0.00507357     -0.00120085     -0.00218263
     0.00017665     -0.00018918      0.00570441
    -0.01075809      0.00863522     -0.03053955
    -0.00432779      0.00789321      0.00076376
    -0.36229717     -0.28507407      0.53332471
     0.03268170      0.13032586      0.18884649
    -0.17178411      0.40399705     -0.43517246
    -0.00009218      0.00000494     -0.00006400
     0.00067455     -0.00011197     -0.00048756
     0.00014469     -0.00041906      0.00052817
     0.00039161      0.00014706      0.00021932
vibration 89
    -0.00009399      0.00029589      0.00102139
     0.00001999     -0.00052743      0.00145865
    -0.00080767      0.00068135     -0.00147075
    -0.00005824     -0.00012457     -0.00004567
     0.00007121     -0.00016632      0.00025377
    -0.00002622     -0.00036435      0.00068337
     0.00001990      0.00000249      0.00002046
     0.00000165      0.00003657      0.00001144
     0.00081452     -0.00242430      0.00555241
     0.01790423      0.02535998     -0.04905749
    -0.01862925      0.04462059     -0.04768938
     0.00343780      0.00173361     -0.00181572
     0.00105101     -0.00052811      0.00068612
     0.00028326     -0.00101598      0.00038420
    -0.00008344      0.00026481      0.00021059
     0.00035960     -0.00528577     -0.00925579
    -0.00280034      0.00091077     -0.01449622
     0.01716359     -0.00059660     -0.01412675
     0.04938789     -0.17937660      0.01538340
    -0.03620895     -0.01949430      0.02955307
    -0.00088123     -0.00276058     -0.00480365
    -0.00603357      0.00139112      0.00260124
    -0.00020701      0.00017364     -0.00653675
    -0.01850325      0.01495730     -0.05298598
    -0.00790076      0.01467802      0.00133140
    -0.28367950     -0.22343876      0.41811710
     0.02584193      0.10262180      0.14860396
     0.21713006     -0.51108105      0.55052799
     0.00011539      0.00001646      0.00006865
    -0.00072784      0.00013147      0.00052543
    -0.00010684      0.00033554     -0.00037079
    -0.00063354     -0.00026869     -0.00037348
vibration 90
    -0.00000537     -0.00000796      0.00003565
    -0.00009756     -0.00005395     -0.00021327
    -0.00012473      0.00009104     -0.00020655
     0.00064019      0.00107531     -0.00020381
     0.00001971     -0.00003157      0.00004933
     0.00004220     -0.00003828      0.00010949
     0.00004705     -0.00020898      0.00027258
    -0.00020308     -0.00043196      0.00021148
    -0.01500788      0.03879657     -0.08451092
     0.00198467      0.00295164     -0.00550823
    -0.00066025      0.00159539     -0.00171963
     0.00014716      0.00006658     -0.00009989
     0.00006949     -0.00002452     -0.00003654
     0.00001203     -0.00003548     -0.00003569
    -0.00000533     -0.00000299      0.00003220
     0.00004273     -0.00015113     -0.00020812
     0.00076670     -0.00012050      0.00344586
    -0.24190118      0.00939986      0.19682302
     0.00574201     -0.02089715      0.00196262
    -0.00157737     -0.00087126      0.00131576
    -0.00003917     -0.00000042     -0.00005394
    -0.00069282      0.00014546      0.00026295
     0.00004311     -0.00003887      0.00042857
     0.28560419     -0.23008954      0.82301321
     0.13022805     -0.24280801     -0.01925202
    -0.03212959     -0.02511927      0.04752331
     0.00293473      0.01097562      0.01561912
     0.00773709     -0.01839186      0.01979748
     0.00007208      0.00005737     -0.00022661
    -0.00174125     -0.00008144      0.00103289
     0.00049229     -0.00095795      0.00166882
     0.00050185      0.00034061     -0.00003245
[INT]
    0.676798
    2.457924
    0.034060
    1.047747
    1.942100
    2.509395
    0.475720
    0.229358
    1.748531
    1.075834
    1.006220
    6.443126
    2.479899
    4.526492
    6.199002
    0.527814
    0.854899
    9.852265
    8.637097
   10.171139
   14.118136
   11.234933
    4.769573
    1.278941
    4.264385
    5.413743
    7.422527
   20.820611
    0.316036
   10.767630
    1.195285
    1.308589
    8.971465
    4.352320
   27.361353
    6.132966
    8.849484
   27.661374
   34.827090
    7.877950
   69.667811
   29.829850
   18.580845
    3.990537
    0.385170
    1.667079
   21.873972
  151.872291
    2.471354
    4.335890
   69.063704
   86.654570
   74.769896
  211.030027
   11.480570
   58.571708
    2.535365
   33.116031
   13.919624
    4.552335
   35.157994
   14.882197
   13.654141
   15.299026
    0.321353
    0.189849
   16.657559
    4.389945
   15.490599
    3.349261
    6.068595
    7.140849
  274.947748
  249.521419
   11.634650
   11.062369
   53.737804
   22.529296
   15.373259
   35.348303
    0.019593
    5.491843
   27.208034
   19.102278
   36.620674
   22.919235
    7.823972
    3.110362
   15.087447
   10.911801

======= END OF MOLDEN-FORMATTED INPUT FILE =======


        *************************************************************
        *                                                           *
        *  Thank you very much for using Q-Chem.  Have a nice day.  *
        *                                                           *
        *************************************************************


