r0142.ten.osc.edu 10.25.154
Q-Chem Developer Version! Running on 10.25.154.*
                  Welcome to Q-Chem
     A Quantum Leap Into The Future Of Chemistry


 Q-Chem 5.0, Q-Chem, Inc., Pleasanton, CA (2017)

 Yihan Shao,  Zhengting Gan,  E. Epifanovsky,  A. T. B. Gilbert,  M. Wormit,  
 J. Kussmann,  A. W. Lange,  A. Behn,  Jia Deng,  Xintian Feng,  D. Ghosh,  
 M. Goldey,  P. R. Horn,  L. D. Jacobson,  I. Kaliman,  T. Kus,  A. Landau,  
 Jie Liu,  E. I. Proynov,  R. M. Richard,  R. P. Steele,  E. J. Sundstrom,  
 H. L. Woodcock III,  P. M. Zimmerman,  D. Zuev,  B. Albrecht,  E. Alguire,  
 S. A. Baeppler,  Z. Benda,  Y. A. Bernard,  E. J. Berquist,  K. B. Bravaya,  
 D. Casanova,  Chun-Min Chang,  Yunqing Chen,  A. Chien,  K. D. Closser,  
 M. P. Coons,  S. Dasgupta,  M. Diedenhofen,  Hainam Do,  R. G. Edgar,  
 Po-Tung Fang,  S. Fatehi,  Qingguo Feng,  Qinghui Ge,  A. Ghysels,  
 J. Gomes,  J. Gonthier,  A. Gunina,  M. W. D. Hanson-Heine,  
 P. H. P. Harbach,  A. W. Hauser,  J. E. Herr,  E. G. Hohenstein,  
 Z. C. Holden,  Kerwin Hui,  T.-C. Jagau,  Hyunjun Ji,  B. Kaduk,  
 K. Khistyaev,  Jaehoon Kim,  P. Klunzinger,  K. Koh,  D. Kosenkov,  
 T. Kowalczyk,  C. M. Krauter,  A. Kunitsa,  Ka Un Lao,  A. Laurent,  
 K. V. Lawler,  Joonho Lee,  D. Lefrancois,  S. Lehtola,  D. S. Levine,  
 Yi-Pei Li,  You-Sheng Lin,  Fenglai Liu,  E. Livshits,  A. Luenser,  
 P. Manohar,  E. Mansoor,  S. F. Manzer,  Shan-Ping Mao,  Yuezhi Mao,  
 N. Mardirossian,  A. V. Marenich,  L. A. Martinez-Martinez,  S. A. Maurer,  
 N. J. Mayhall,  S. C. McKenzie,  J.-M. Mewes,  A. F. Morrison,  K. Nanda,  
 T. S. Nguyen-Beck,  R. Olivares-Amaya,  J. A. Parkhill,  T. M. Perrine,  
 F. Plasser,  S. Prager,  A. Prociuk,  D. R. Rehn,  F. Rob,  M. Schneider,  
 N. Sergueev,  S. M. Sharada,  S. Sharma,  D. W. Small,  T. Stauch,  
 T. Stein,  Yu-Chuan Su,  A. J. W. Thom,  T. Tsuchimochi,  L. Vogt,  
 O. Vydrov,  M. A. Watson,  J. Wenzel,  M. de Wergifosse,  T. A. Wesolowski,  
 A. White,  J. Witte,  A. Yamada,  Jun Yang,  K. Yao,  S. Yeganeh,  
 S. R. Yost,  Zhi-Qiang You,  A. Zech,  Igor Ying Zhang,  Xing Zhang,  
 Yan Zhao,  Ying Zhu,  B. R. Brooks,  G. K. L. Chan,  C. J. Cramer,  
 M. S. Gordon,  W. J. Hehre,  A. Klamt,  M. W. Schmidt,  C. D. Sherrill,  
 D. G. Truhlar,  A. Aspuru-Guzik,  R. Baer,  A. T. Bell,  N. A. Besley,  
 Jeng-Da Chai,  A. Dreuw,  B. D. Dunietz,  T. R. Furlani,  Chao-Ping Hsu,  
 Yousung Jung,  Jing Kong,  D. S. Lambrecht,  WanZhen Liang,  C. Ochsenfeld,  
 V. A. Rassolov,  L. V. Slipchenko,  J. E. Subotnik,  T. Van Voorhis,  
 J. M. Herbert,  A. I. Krylov,  P. M. W. Gill,  M. Head-Gordon

 Contributors to earlier versions of Q-Chem not listed above: 
 R. D. Adamson,  B. Austin,  J. Baker,  G. J. O. Beran,  K. Brandhorst,  
 S. T. Brown,  E. F. C. Byrd,  A. K. Chakraborty,  C.-L. Cheng,  
 Siu Hung Chien,  D. M. Chipman,  D. L. Crittenden,  H. Dachsel,  
 R. A. DiStasio Jr.,  R. J. Doerksen,  A. D. Dutoi,  L. Fusti-Molnar,  
 W. A. Goddard III,  A. Golubeva-Zadorozhnaya,  S. R. Gwaltney,  G. Hawkins,  
 A. Heyden,  S. Hirata,  G. Kedziora,  F. J. Keil,  C. Kelley,  Jihan Kim,  
 R. A. King,  R. Z. Khaliullin,  P. P. Korambath,  W. Kurlancheek,  
 A. M. Lee,  M. S. Lee,  S. V. Levchenko,  Ching Yeh Lin,  D. Liotard,  
 R. C. Lochan,  I. Lotan,  P. E. Maslen,  N. Nair,  D. P. O'Neill,  
 D. Neuhauser,  E. Neuscamman,  C. M. Oana,  R. Olson,  B. Peters,  
 R. Peverati,  P. A. Pieniazek,  Y. M. Rhee,  J. Ritchie,  M. A. Rohrdanz,  
 E. Rosta,  N. J. Russ,  H. F. Schaefer III,  N. E. Schultz,  N. Shenvi,  
 A. C. Simmonett,  A. Sodt,  D. Stuck,  K. S. Thanthiriwatte,  V. Vanovschi,  
 Tao Wang,  A. Warshel,  C. F. Williams,  Q. Wu,  X. Xu,  W. Zhang

 Please cite Q-Chem as follows:
 Y. Shao et al., Mol. Phys. 113, 184-215 (2015)
 DOI: 10.1080/00268976.2014.952696

 Q-Chem 5.0.1 for Intel X86 EM64T Linux

 Parts of Q-Chem use Armadillo 5.200.1 (Boston Tea Smuggler).
 http://arma.sourceforge.net/

 Q-Chem begins on Sun Oct 15 23:07:57 2017  

Host: r0142.ten.osc.edu
0

     Scratch files written to /tmp/pbstmp.1310574/10//
Processing $rem in /users/PAS0291/osu6415/.qchemrc.
molden_format             true

Checking the input file for inconsistencies... 	...done.

--------------------------------------------------------------
User input:
--------------------------------------------------------------
$molecule
0 1
C -0.21130374 1.03541205 0.39863150
C 0.64928827 -0.20048833 0.86057258
C -1.59219666 0.72585876 -0.13690855
C -0.11345469 -1.50989749 0.70535034
O -2.51525014 1.51667684 0.45409223
O -1.86149505 -0.07604469 -0.99680401
O 0.12904844 -2.16250579 -0.43400729
O -0.88179283 -1.89917949 1.55613855
C -0.70270345 -3.30493482 -0.70582193
C -3.87525820 1.32846154 0.01671847
C 0.71961563 1.64369322 -0.70352183
C 1.82259654 2.44909338 0.00583844
C 2.65673943 1.29037708 0.61984821
C 1.95445158 0.02435125 0.03204563
O 1.42866372 0.51845054 -1.21660111
H -0.33308018 1.73786574 1.22072182
H 0.84357752 -0.12132887 1.93040885
H -1.73976340 -2.98408727 -0.80920249
H -3.96416523 1.53176846 -1.05149101
H 2.40265583 3.01207320 -0.72719209
H 1.42988612 3.15012030 0.74495155
H 3.69499315 1.32624541 0.28694898
H 2.65637344 1.29022350 1.71182330
H -0.33430667 -3.71012891 -1.64563589
H -0.62065823 -4.04229591 0.09375552
H -4.46530641 2.03653184 0.59409064
H -4.19689472 0.30552537 0.21705441
H 0.19594638 2.14952442 -1.51227510
C 2.88792921 -1.14816648 -0.18204601
H 3.77078439 -0.81534252 -0.73210223
H 3.21763305 -1.54527769 0.78265513
H 2.40189134 -1.94395117 -0.74065251
$end

$rem
sym_ignore      true
jobtype         ts
method          b3lyp
basis           6-311++G(d,p)
dft_d           d3_op
mem_total       62000
MEM_STATIC      4000
ao2mo_disk      350000
max_scf_cycles  200
geom_opt_max_cycles 1000
geom_opt_tol_displacement 1
GEOM_OPT_TOL_GRADIENT       1
GEOM_OPT_TOL_ENERGY         1
$end

--------------------------------------------------------------
 Adding empirical dispersion correction 
 ----------------------------------------------------------------
 Doing -D3(op) with
 s6 =   1.00000
 s8 =   0.78311
 a1 =   0.30000
 a2 =   4.25000
 n  =  10.00000
 -D3 energy without 3body term =     -0.0358212577 hartrees
 ----------------------------------------------------------------
             Standard Nuclear Orientation (Angstroms)
    I     Atom           X                Y                Z
 ----------------------------------------------------------------
    1      C      -0.2113037400     1.0354120500     0.3986315000
    2      C       0.6492882700    -0.2004883300     0.8605725800
    3      C      -1.5921966600     0.7258587600    -0.1369085500
    4      C      -0.1134546900    -1.5098974900     0.7053503400
    5      O      -2.5152501400     1.5166768400     0.4540922300
    6      O      -1.8614950500    -0.0760446900    -0.9968040100
    7      O       0.1290484400    -2.1625057900    -0.4340072900
    8      O      -0.8817928300    -1.8991794900     1.5561385500
    9      C      -0.7027034500    -3.3049348200    -0.7058219300
   10      C      -3.8752582000     1.3284615400     0.0167184700
   11      C       0.7196156300     1.6436932200    -0.7035218300
   12      C       1.8225965400     2.4490933800     0.0058384400
   13      C       2.6567394300     1.2903770800     0.6198482100
   14      C       1.9544515800     0.0243512500     0.0320456300
   15      O       1.4286637200     0.5184505400    -1.2166011100
   16      H      -0.3330801800     1.7378657400     1.2207218200
   17      H       0.8435775200    -0.1213288700     1.9304088500
   18      H      -1.7397634000    -2.9840872700    -0.8092024900
   19      H      -3.9641652300     1.5317684600    -1.0514910100
   20      H       2.4026558300     3.0120732000    -0.7271920900
   21      H       1.4298861200     3.1501203000     0.7449515500
   22      H       3.6949931500     1.3262454100     0.2869489800
   23      H       2.6563734400     1.2902235000     1.7118233000
   24      H      -0.3343066700    -3.7101289100    -1.6456358900
   25      H      -0.6206582300    -4.0422959100     0.0937555200
   26      H      -4.4653064100     2.0365318400     0.5940906400
   27      H      -4.1968947200     0.3055253700     0.2170544100
   28      H       0.1959463800     2.1495244200    -1.5122751000
   29      C       2.8879292100    -1.1481664800    -0.1820460100
   30      H       3.7707843900    -0.8153425200    -0.7321022300
   31      H       3.2176330500    -1.5452776900     0.7826551300
   32      H       2.4018913400    -1.9439511700    -0.7406525100
 ----------------------------------------------------------------
 Nuclear Repulsion Energy =  1251.7072062064 hartrees
 There are       61 alpha and       61 beta electrons
 Requested basis set is 6-311++G(d,p)
 There are 176 shells and 464 basis functions

 Total QAlloc Memory Limit  62000 MB
 Mega-Array Size      3911 MB
 MEM_STATIC part      4000 MB
 A cutoff of  1.0D-11 yielded  12685 shell pairs
 There are     89870 function pairs (     95861 Cartesian)
 
 -------------------------------------------------------
 OpenMP Integral Computing Module                       
 Release: version 1.0, May 2013, Q-Chem Inc. Pittsburgh 
 -------------------------------------------------------
 Integral Job Info:
 Integral job number is                      11
 Integral operator is                         1
 short-range coefficients                     0
 long-range coefficients              100000000
 Omega coefficients                           0
 if combine SR and LR in K                    0
 Integral screening is                        0
 Integral computing path is                   2
 max size of driver memory is            800000
 size of driver memory is                593474
 size of scratch memory is              2361544
 max col of scratch BK array               1296
 max len of scratch array in speh3          155
 max len of scratch index in speh4           18
 max int batch size is                      520
 min int batch size is                       52
 fixed nKL is                                52
 max L of basis functions is                  2
 order of int derivative is                   0
 number of shells is                        176
 number of basis is                         480
 number of cartesian basis is               480
 number of contracted shell pairs         12685
 number of primitive shell pairs          28247
 maxK2 (contraction) of shell pair           36
 max number of K2 of shell pair               1
 max number of CS2 of shell pair           2390
 max number of PS2 of shell pair           4056
 mem total for path MDJ                  160152
 -------------------------------------------------------
 Smallest overlap matrix eigenvalue = 6.61E-07

 Q-Chem warning in module /fs/scratch/osu6415/qchem-kaunlao-vdw/stvman/mkSTV.C, line 281:

 Overlap eigenvalue is smaller than square root of threshold

 Linear dependence detected in AO basis
 Number of orthogonalized atomic orbitals = 463
 Maximum deviation from orthogonality = 1.167E-10

 Scale SEOQF with 1.000000e-01/1.000000e-01/1.000000e-01

 Standard Electronic Orientation quadrupole field applied
 Nucleus-field energy     =     0.0000000326 hartrees
 Guess from superposition of atomic densities
 Warning:  Energy on first SCF cycle will be non-variational
 A restricted hybrid HF-DFT SCF calculation will be
 performed using Pulay DIIS extrapolation
 Exchange:     0.2000 Hartree-Fock + 0.0800 Slater + 0.7200 B88
 Correlation:  0.1900 VWN1RPA + 0.8100 LYP
 Using SG-1 standard quadrature grid
 Dispersion:   Grimme D3
 SCF converges when DIIS error is below 1.0E-08
 using 20 threads for integral computing
 -------------------------------------------------------
 OpenMP Integral computing Module                
 Release: version 1.0, May 2013, Q-Chem Inc. Pittsburgh 
 -------------------------------------------------------
 -------------------------------------------------------
 OpenMP BLAS3 based DFT computing Module                
 Release: version 1.0, May 2013, Q-Chem Inc. Pittsburgh 
 -------------------------------------------------------
 ---------------------------------------
  Cycle       Energy         DIIS Error
 ---------------------------------------
    1    -808.4382527887      2.94E-02
    2    -804.8657873949      3.83E-03
    3    -804.3788366388      6.31E-03
    4    -805.1496446540      1.40E-03
    5    -805.1892111814      3.76E-04
    6    -805.1915004166      1.52E-04
    7    -805.1919424712      3.60E-05
    8    -805.1919667853      1.11E-05
    9    -805.1919694598      2.83E-06
   10    -805.1919695706      1.66E-06
   11    -805.1919696214      4.49E-07
   12    -805.1919696253      1.60E-07
   13    -805.1919696256      3.98E-08
   14    -805.1919696247      1.39E-08
   15    -805.1919696287      3.70E-09 Convergence criterion met
 ---------------------------------------
 SCF time:  CPU 955.80 s  wall 52.87 s
 SCF   energy in the final basis set = -805.19196963
 Total energy in the final basis set = -805.19196963
 
 --------------------------------------------------------------
 
                    Orbital Energies (a.u.)
 --------------------------------------------------------------
 
 Alpha MOs
 -- Occupied --
-19.177 -19.166 -19.129 -19.117 -19.109 -10.308 -10.302 -10.241
-10.237 -10.229 -10.220 -10.205 -10.204 -10.180 -10.179 -10.164
 -1.117  -1.110  -1.063  -1.029  -1.021  -0.830  -0.794  -0.782
 -0.745  -0.724  -0.692  -0.650  -0.605  -0.592  -0.565  -0.563
 -0.527  -0.508  -0.506  -0.493  -0.489  -0.483  -0.483  -0.467
 -0.457  -0.435  -0.424  -0.421  -0.419  -0.410  -0.392  -0.383
 -0.373  -0.370  -0.363  -0.361  -0.356  -0.351  -0.338  -0.327
 -0.317  -0.308  -0.289  -0.277  -0.270
 -- Virtual --
 -0.015  -0.013  -0.003   0.002   0.003   0.007   0.013   0.021
  0.027   0.033   0.035   0.037   0.043   0.047   0.049   0.059
  0.064   0.068   0.070   0.078   0.081   0.091   0.092   0.094
  0.099   0.101   0.105   0.109   0.111   0.116   0.118   0.124
  0.128   0.129   0.131   0.135   0.135   0.137   0.140   0.144
  0.147   0.151   0.154   0.157   0.161   0.162   0.166   0.168
  0.168   0.174   0.175   0.177   0.184   0.186   0.186   0.193
  0.195   0.196   0.206   0.209   0.214   0.218   0.220   0.227
  0.228   0.235   0.238   0.241   0.246   0.249   0.257   0.260
  0.267   0.272   0.280   0.283   0.288   0.292   0.297   0.303
  0.309   0.310   0.320   0.323   0.328   0.334   0.339   0.339
  0.347   0.351   0.352   0.359   0.362   0.367   0.369   0.373
  0.374   0.382   0.386   0.389   0.391   0.398   0.402   0.409
  0.416   0.430   0.435   0.446   0.449   0.453   0.459   0.477
  0.485   0.499   0.508   0.512   0.516   0.529   0.537   0.541
  0.561   0.569   0.573   0.586   0.595   0.600   0.608   0.620
  0.623   0.631   0.635   0.639   0.646   0.659   0.665   0.671
  0.680   0.684   0.688   0.695   0.703   0.711   0.720   0.725
  0.729   0.732   0.742   0.746   0.751   0.760   0.766   0.773
  0.779   0.793   0.796   0.801   0.807   0.831   0.835   0.845
  0.860   0.901   0.908   0.942   0.961   0.980   1.006   1.012
  1.021   1.049   1.054   1.068   1.080   1.084   1.100   1.117
  1.137   1.143   1.175   1.197   1.204   1.213   1.216   1.236
  1.247   1.261   1.265   1.282   1.285   1.295   1.311   1.334
  1.341   1.343   1.355   1.365   1.377   1.397   1.401   1.416
  1.435   1.440   1.454   1.468   1.481   1.494   1.498   1.508
  1.520   1.536   1.546   1.557   1.561   1.563   1.571   1.588
  1.592   1.599   1.602   1.619   1.629   1.647   1.656   1.667
  1.671   1.695   1.696   1.701   1.710   1.718   1.725   1.730
  1.743   1.746   1.757   1.777   1.786   1.797   1.808   1.819
  1.834   1.836   1.852   1.860   1.873   1.877   1.915   1.928
  1.932   1.938   1.966   1.982   1.991   1.998   2.015   2.030
  2.050   2.056   2.068   2.091   2.105   2.114   2.130   2.134
  2.148   2.160   2.181   2.197   2.216   2.224   2.237   2.247
  2.270   2.294   2.318   2.334   2.418   2.432   2.439   2.445
  2.468   2.470   2.491   2.500   2.508   2.513   2.520   2.525
  2.540   2.542   2.552   2.574   2.590   2.600   2.620   2.633
  2.654   2.660   2.670   2.683   2.712   2.734   2.741   2.764
  2.795   2.799   2.825   2.828   2.852   2.861   2.867   2.876
  2.885   2.897   2.925   2.936   2.959   2.985   3.013   3.017
  3.028   3.041   3.055   3.064   3.076   3.095   3.104   3.110
  3.135   3.150   3.157   3.178   3.200   3.220   3.232   3.255
  3.275   3.307   3.323   3.335   3.380   3.390   3.414   3.448
  3.588   3.604   3.624   3.658   3.669   3.725   3.776   3.794
  3.822   3.835   3.840   3.873   3.941   3.966   4.036   4.042
  4.069   4.099   4.116   4.136   4.164   4.173   4.193   4.265
  4.278   4.423   4.483   5.046   5.065   5.109   5.172   5.221
  5.248   5.302   5.385   5.437   5.514   5.613   5.649   5.672
  5.893   5.899  23.788  23.849  23.854  23.881  23.900  23.928
 23.948  23.951  23.965  23.989  24.047  49.899  49.941  49.997
 50.039  50.049
 --------------------------------------------------------------
 
          Ground-State Mulliken Net Atomic Charges

     Atom                 Charge (a.u.)
  ----------------------------------------
      1 C                     0.224686
      2 C                     0.242815
      3 C                    -0.818181
      4 C                    -0.604288
      5 O                    -0.024179
      6 O                    -0.184573
      7 O                     0.030383
      8 O                    -0.160138
      9 C                    -0.193019
     10 C                    -0.274747
     11 C                     0.336319
     12 C                    -0.555131
     13 C                    -0.310365
     14 C                    -0.201271
     15 O                    -0.061416
     16 H                     0.308829
     17 H                     0.270205
     18 H                     0.180029
     19 H                     0.172700
     20 H                     0.184482
     21 H                     0.123604
     22 H                     0.163299
     23 H                     0.145228
     24 H                     0.155878
     25 H                     0.173096
     26 H                     0.152340
     27 H                     0.183984
     28 H                     0.272141
     29 C                    -0.424973
     30 H                     0.156855
     31 H                     0.157582
     32 H                     0.177829
  ----------------------------------------
  Sum of atomic charges =    -0.000000

 -----------------------------------------------------------------
                    Cartesian Multipole Moments
 -----------------------------------------------------------------
    Charge (ESU x 10^10)
                -0.0000
    Dipole Moment (Debye)
         X       0.5601      Y       1.8000      Z       0.4441
       Tot       1.9367
    Quadrupole Moments (Debye-Ang)
        XX     -85.3255     XY      -3.2687     YY     -87.2953
        XZ       4.9675     YZ       3.9395     ZZ    -102.2872
    Octopole Moments (Debye-Ang^2)
       XXX     -54.7391    XXY      14.6741    XYY      -7.8541
       YYY     -24.6911    XXZ       0.0051    XYZ      -4.2528
       YYZ     -23.0136    XZZ       0.5822    YZZ       7.5079
       ZZZ      -7.4159
    Hexadecapole Moments (Debye-Ang^3)
      XXXX   -2053.3359   XXXY     -70.4917   XXYY    -641.9301
      XYYY      15.5365   YYYY   -1576.7878   XXXZ     -13.1574
      XXYZ      -4.9955   XYYZ      17.1820   YYYZ      25.8207
      XXZZ    -474.3850   XYZZ     -15.5417   YYZZ    -350.3602
      XZZZ      20.3731   YZZZ      10.5479   ZZZZ    -458.9371
 -----------------------------------------------------------------
 Calculating analytic gradient of the SCF energy
 Gradient of SCF Energy
            1           2           3           4           5           6
    1   0.0003396  -0.0000683  -0.0000388  -0.0011342   0.0000062   0.0000205
    2  -0.0000818  -0.0000535  -0.0001004   0.0007631  -0.0000226   0.0000778
    3  -0.0009388   0.0013939   0.0001924  -0.0011417   0.0000638  -0.0001422
            7           8           9          10          11          12
    1  -0.0000012   0.0008751   0.0000142  -0.0000317   0.0000179   0.0000053
    2   0.0000442  -0.0006124  -0.0000309   0.0000045   0.0000472  -0.0000188
    3  -0.0000233   0.0005490  -0.0000473  -0.0000173   0.0000096   0.0000195
           13          14          15          16          17          18
    1  -0.0000757   0.0000355   0.0000011   0.0000159  -0.0000402   0.0000061
    2   0.0000291   0.0000341  -0.0000001   0.0000058  -0.0000586   0.0000053
    3   0.0000544  -0.0000276   0.0000658   0.0000110   0.0000196  -0.0000369
           19          20          21          22          23          24
    1   0.0000055   0.0000051  -0.0000265  -0.0000085   0.0000317   0.0000219
    2  -0.0000180   0.0000281  -0.0000246   0.0000086  -0.0000197   0.0000159
    3  -0.0000094   0.0000525   0.0000449  -0.0000223   0.0000183  -0.0000305
           25          26          27          28          29          30
    1  -0.0000011   0.0000042  -0.0000022   0.0000046  -0.0000014   0.0000169
    2   0.0000032  -0.0000127  -0.0000179  -0.0000242   0.0000031   0.0000215
    3  -0.0000324  -0.0000052  -0.0000091  -0.0000134  -0.0000342   0.0000320
           31          32
    1  -0.0000016   0.0000040
    2  -0.0000092   0.0000141
    3   0.0000016   0.0000033
 Max gradient component =       1.394E-03
 RMS gradient           =       2.832E-04
 Gradient time:  CPU 312.71 s  wall 22.64 s
 Geometry Optimization Parameters
   NAtoms,    NIC,     NZ,  NCons,   NDum,   NFix, NCnnct, MaxDiis
       32     251       0       0       0       0       0       0


** GEOMETRY OPTIMIZATION IN DELOCALIZED INTERNAL COORDINATES **
   Searching for a Transition State

   Optimization Cycle:   1

                       Coordinates (Angstroms)
     ATOM                X               Y               Z
      1  C        -0.2113037400    1.0354120500    0.3986315000
      2  C         0.6492882700   -0.2004883300    0.8605725800
      3  C        -1.5921966600    0.7258587600   -0.1369085500
      4  C        -0.1134546900   -1.5098974900    0.7053503400
      5  O        -2.5152501400    1.5166768400    0.4540922300
      6  O        -1.8614950500   -0.0760446900   -0.9968040100
      7  O         0.1290484400   -2.1625057900   -0.4340072900
      8  O        -0.8817928300   -1.8991794900    1.5561385500
      9  C        -0.7027034500   -3.3049348200   -0.7058219300
     10  C        -3.8752582000    1.3284615400    0.0167184700
     11  C         0.7196156300    1.6436932200   -0.7035218300
     12  C         1.8225965400    2.4490933800    0.0058384400
     13  C         2.6567394300    1.2903770800    0.6198482100
     14  C         1.9544515800    0.0243512500    0.0320456300
     15  O         1.4286637200    0.5184505400   -1.2166011100
     16  H        -0.3330801800    1.7378657400    1.2207218200
     17  H         0.8435775200   -0.1213288700    1.9304088500
     18  H        -1.7397634000   -2.9840872700   -0.8092024900
     19  H        -3.9641652300    1.5317684600   -1.0514910100
     20  H         2.4026558300    3.0120732000   -0.7271920900
     21  H         1.4298861200    3.1501203000    0.7449515500
     22  H         3.6949931500    1.3262454100    0.2869489800
     23  H         2.6563734400    1.2902235000    1.7118233000
     24  H        -0.3343066700   -3.7101289100   -1.6456358900
     25  H        -0.6206582300   -4.0422959100    0.0937555200
     26  H        -4.4653064100    2.0365318400    0.5940906400
     27  H        -4.1968947200    0.3055253700    0.2170544100
     28  H         0.1959463800    2.1495244200   -1.5122751000
     29  C         2.8879292100   -1.1481664800   -0.1820460100
     30  H         3.7707843900   -0.8153425200   -0.7321022300
     31  H         3.2176330500   -1.5452776900    0.7826551300
     32  H         2.4018913400   -1.9439511700   -0.7406525100
   Point Group: c1    Number of degrees of freedom:    90


   Energy is   -805.191969629


 Attempting to Generate Delocalized Internal Coordinates

 90 Hessian modes will be used to form the next step
  Hessian Eigenvalues:
     0.003034    0.006097    0.007100    0.007335    0.007445    0.010228
     0.010481    0.010816    0.010943    0.022054    0.022837    0.024213
     0.025968    0.033702    0.036027    0.038551    0.041061    0.045152
     0.048375    0.048482    0.052188    0.054588    0.056107    0.057292
     0.057886    0.060033    0.063358    0.064493    0.066272    0.073918
     0.080376    0.092808    0.096972    0.101348    0.101545    0.104497
     0.105970    0.106534    0.119856    0.123438    0.153890    0.160000
     0.160000    0.160000    0.160000    0.160000    0.160000    0.160000
     0.160000    0.160000    0.172797    0.232626    0.233769    0.249644
     0.249891    0.249990    0.250000    0.250000    0.250000    0.250000
     0.252636    0.264423    0.278450    0.300515    0.309578    0.310403
     0.334824    0.343433    0.345667    0.345854    0.346096    0.346727
     0.346958    0.347080    0.347131    0.347250    0.347584    0.347880
     0.350216    0.350256    0.350767    0.350912    0.351628    0.353603
     0.394551    0.397173    0.546917    0.582871    0.996389    1.017539
**WARNING** Hessian does not have the Desired Local Structure

 Transition State Search - Taking P-RFO Step
 Searching for Lamda that Maximizes Along the Lowest mode
 Value Taken    Lamda =   0.00303458
 Searching for Lamda that Minimizes Along All other modes
 Value Taken    Lamda =  -0.00021993
 Calculated Step too Large.  Step scaled by  0.002349
 Step Taken.  Stepsize is  0.300000

                             Maximum     Tolerance    Cnvgd?
         Gradient           0.000640      0.000001      NO
         Displacement       0.088619      0.000001      NO
         Energy change     *********      0.000000      NO


 New Cartesian Coordinates Obtained by Inverse Iteration

 Displacement from previous Coordinates is:  0.752763
 Adding empirical dispersion correction 
 ----------------------------------------------------------------
 Doing -D3(op) with
 s6 =   1.00000
 s8 =   0.78311
 a1 =   0.30000
 a2 =   4.25000
 n  =  10.00000
 -D3 energy without 3body term =     -0.0357994519 hartrees
 ----------------------------------------------------------------
             Standard Nuclear Orientation (Angstroms)
    I     Atom           X                Y                Z
 ----------------------------------------------------------------
    1      C      -0.2076892126     1.0211751305     0.3925930325
    2      C       0.6414751672    -0.2206609734     0.8597346326
    3      C      -1.6039313153     0.7268230814    -0.1107523657
    4      C      -0.1191952062    -1.5273168494     0.6741174909
    5      O      -2.5016788721     1.5425963402     0.4852896961
    6      O      -1.9036524973    -0.0839157839    -0.9520968543
    7      O       0.1440367924    -2.1660128872    -0.4685187323
    8      O      -0.9036430317    -1.9262922124     1.5054926816
    9      C      -0.6833873059    -3.3041438173    -0.7699579818
   10      C      -3.8730606642     1.3707455497     0.0777092157
   11      C       0.7126367725     1.5982848151    -0.7364998072
   12      C       1.8091217561     2.4382778097    -0.0604600679
   13      C       2.6222858824     1.3084624382     0.6304747993
   14      C       1.9583390199     0.0148856533     0.0550547812
   15      O       1.4391463927     0.4674186798    -1.2118480465
   16      H      -0.3016716506     1.7385726856     1.2053729406
   17      H       0.8161350077    -0.1539140921     1.9337937086
   18      H      -1.7180840228    -2.9809889721    -0.8886914563
   19      H      -3.9797096114     1.5585596264    -0.9917118923
   20      H       2.4037178648     2.9531487770    -0.8168410213
   21      H       1.4117336473     3.1834654289     0.6314405880
   22      H       3.6753276286     1.3430890297     0.3476617597
   23      H       2.5686966915     1.3453527740     1.7205101593
   24      H      -0.2978191424    -3.6980412092    -1.7076843786
   25      H      -0.6168672797    -4.0514335846     0.0218058478
   26      H      -4.4395751340     2.0978789491     0.6549591491
   27      H      -4.2077850206     0.3567683939     0.3008522981
   28      H       0.1818060159     2.0687086383    -1.5617855959
   29      C       2.9201680291    -1.1414588428    -0.1174730062
   30      H       3.8056293712    -0.8012470890    -0.6587502857
   31      H       3.2406190191    -1.5111384965     0.8611475978
   32      H       2.4613193481    -1.9590255210    -0.6675547870
 ----------------------------------------------------------------
 Nuclear Repulsion Energy =  1251.5820342412 hartrees
 There are       61 alpha and       61 beta electrons
 Applying Cartesian multipole field
    Component          Value
    ---------          -----
     (2,0,0)        1.00000E-11
     (0,2,0)        2.00000E-11
     (0,0,2)       -3.00000E-11
 Nucleus-field energy     =     0.0000000328 hartrees
 Requested basis set is 6-311++G(d,p)
 There are 176 shells and 464 basis functions
 A cutoff of  1.0D-11 yielded  12681 shell pairs
 There are     89849 function pairs (     95840 Cartesian)
 Smallest overlap matrix eigenvalue = 6.74E-07

 Q-Chem warning in module /fs/scratch/osu6415/qchem-kaunlao-vdw/stvman/mkSTV.C, line 281:

 Overlap eigenvalue is smaller than square root of threshold

 Linear dependence detected in AO basis
 Number of orthogonalized atomic orbitals = 463
 Maximum deviation from orthogonality = 1.005E-10
 Guess MOs from SCF MO coefficient file
 Reading MOs from coefficient file
 Reading MOs from coefficient file
 A restricted hybrid HF-DFT SCF calculation will be
 performed using Pulay DIIS extrapolation
 Exchange:     0.2000 Hartree-Fock + 0.0800 Slater + 0.7200 B88
 Correlation:  0.1900 VWN1RPA + 0.8100 LYP
 Using SG-1 standard quadrature grid
 Dispersion:   Grimme D3
 SCF converges when DIIS error is below 1.0E-08
 Geometry optimization detected.  Setting ReadMinima to 0
 Setting SaveMinima to 0
 using 20 threads for integral computing
 -------------------------------------------------------
 OpenMP Integral computing Module                
 Release: version 1.0, May 2013, Q-Chem Inc. Pittsburgh 
 -------------------------------------------------------
 -------------------------------------------------------
 OpenMP BLAS3 based DFT computing Module                
 Release: version 1.0, May 2013, Q-Chem Inc. Pittsburgh 
 -------------------------------------------------------
 ---------------------------------------
  Cycle       Energy         DIIS Error
 ---------------------------------------
    1    -805.1765397101      1.10E-03
    2    -805.1908846542      1.98E-04
    3    -805.1899613258      2.98E-04
    4    -805.1917878476      5.28E-05
    5    -805.1918285863      2.49E-05
    6    -805.1918407643      5.47E-06
    7    -805.1918412560      2.29E-06
    8    -805.1918413585      7.76E-07
    9    -805.1918413683      3.07E-07
   10    -805.1918413704      7.98E-08
   11    -805.1918413706      1.78E-08
   12    -805.1918413705      8.08E-09 Convergence criterion met
 ---------------------------------------
 SCF time:  CPU 786.85 s  wall 43.74 s
 SCF   energy in the final basis set = -805.19184137
 Total energy in the final basis set = -805.19184137
 
 --------------------------------------------------------------
 
                    Orbital Energies (a.u.)
 --------------------------------------------------------------
 
 Alpha MOs
 -- Occupied --
-19.177 -19.166 -19.129 -19.118 -19.108 -10.308 -10.301 -10.241
-10.237 -10.230 -10.219 -10.205 -10.204 -10.180 -10.180 -10.164
 -1.117  -1.109  -1.063  -1.030  -1.020  -0.830  -0.794  -0.782
 -0.745  -0.724  -0.692  -0.650  -0.605  -0.592  -0.565  -0.563
 -0.527  -0.508  -0.506  -0.493  -0.489  -0.483  -0.482  -0.467
 -0.457  -0.435  -0.424  -0.421  -0.419  -0.409  -0.391  -0.383
 -0.373  -0.370  -0.362  -0.361  -0.356  -0.351  -0.338  -0.328
 -0.317  -0.307  -0.288  -0.277  -0.270
 -- Virtual --
 -0.016  -0.013  -0.003   0.002   0.004   0.007   0.013   0.021
  0.027   0.033   0.035   0.037   0.043   0.047   0.049   0.059
  0.064   0.067   0.069   0.077   0.081   0.091   0.092   0.094
  0.098   0.101   0.106   0.108   0.111   0.116   0.118   0.123
  0.127   0.129   0.131   0.135   0.135   0.137   0.140   0.144
  0.147   0.151   0.154   0.158   0.161   0.161   0.166   0.168
  0.168   0.173   0.175   0.178   0.183   0.185   0.186   0.193
  0.194   0.196   0.206   0.209   0.214   0.217   0.220   0.226
  0.228   0.235   0.237   0.241   0.249   0.249   0.257   0.260
  0.265   0.273   0.279   0.284   0.290   0.292   0.297   0.302
  0.309   0.311   0.320   0.323   0.328   0.334   0.338   0.339
  0.347   0.350   0.353   0.358   0.363   0.366   0.370   0.374
  0.375   0.381   0.386   0.390   0.392   0.397   0.402   0.410
  0.417   0.429   0.436   0.445   0.447   0.453   0.460   0.478
  0.485   0.497   0.507   0.511   0.516   0.530   0.539   0.540
  0.564   0.570   0.572   0.585   0.595   0.600   0.607   0.620
  0.625   0.632   0.636   0.641   0.648   0.658   0.663   0.671
  0.680   0.683   0.687   0.696   0.703   0.712   0.720   0.724
  0.729   0.731   0.743   0.746   0.751   0.760   0.765   0.773
  0.778   0.791   0.797   0.801   0.804   0.831   0.835   0.845
  0.860   0.894   0.908   0.939   0.960   0.980   1.004   1.014
  1.019   1.050   1.054   1.070   1.079   1.085   1.103   1.120
  1.134   1.147   1.173   1.195   1.203   1.212   1.219   1.235
  1.245   1.260   1.262   1.284   1.284   1.296   1.312   1.333
  1.342   1.345   1.358   1.361   1.377   1.400   1.401   1.417
  1.436   1.440   1.455   1.465   1.479   1.490   1.493   1.506
  1.514   1.532   1.548   1.557   1.563   1.565   1.571   1.587
  1.592   1.599   1.602   1.621   1.632   1.648   1.657   1.666
  1.672   1.694   1.696   1.702   1.708   1.718   1.727   1.728
  1.744   1.746   1.761   1.778   1.784   1.797   1.808   1.819
  1.828   1.838   1.850   1.859   1.871   1.879   1.914   1.922
  1.936   1.942   1.968   1.979   1.991   1.996   2.014   2.030
  2.050   2.055   2.062   2.099   2.104   2.116   2.127   2.135
  2.149   2.166   2.181   2.197   2.215   2.227   2.236   2.250
  2.269   2.295   2.317   2.333   2.418   2.431   2.440   2.445
  2.467   2.471   2.493   2.500   2.509   2.513   2.519   2.525
  2.540   2.542   2.554   2.573   2.591   2.604   2.620   2.631
  2.653   2.659   2.671   2.683   2.710   2.733   2.739   2.764
  2.796   2.798   2.823   2.830   2.853   2.863   2.866   2.871
  2.888   2.895   2.928   2.930   2.957   2.984   3.011   3.021
  3.026   3.040   3.058   3.064   3.076   3.096   3.104   3.112
  3.130   3.152   3.155   3.175   3.199   3.220   3.237   3.254
  3.274   3.310   3.324   3.337   3.383   3.394   3.414   3.447
  3.589   3.604   3.625   3.662   3.667   3.726   3.776   3.795
  3.821   3.835   3.839   3.874   3.938   3.964   4.036   4.044
  4.069   4.094   4.116   4.139   4.167   4.173   4.192   4.267
  4.277   4.422   4.483   5.046   5.069   5.109   5.168   5.223
  5.248   5.302   5.385   5.436   5.516   5.611   5.651   5.672
  5.894   5.900  23.788  23.849  23.855  23.882  23.901  23.928
 23.948  23.953  23.963  23.987  24.045  49.899  49.941  49.998
 50.039  50.048
 --------------------------------------------------------------
 
          Ground-State Mulliken Net Atomic Charges

     Atom                 Charge (a.u.)
  ----------------------------------------
      1 C                     0.192380
      2 C                     0.197841
      3 C                    -0.770355
      4 C                    -0.601402
      5 O                    -0.030301
      6 O                    -0.185472
      7 O                     0.027581
      8 O                    -0.161189
      9 C                    -0.190532
     10 C                    -0.280324
     11 C                     0.335771
     12 C                    -0.574405
     13 C                    -0.295006
     14 C                    -0.189342
     15 O                    -0.060885
     16 H                     0.309253
     17 H                     0.268815
     18 H                     0.181463
     19 H                     0.172406
     20 H                     0.184205
     21 H                     0.126376
     22 H                     0.161675
     23 H                     0.148541
     24 H                     0.155767
     25 H                     0.172759
     26 H                     0.152598
     27 H                     0.184967
     28 H                     0.273014
     29 C                    -0.395734
     30 H                     0.157585
     31 H                     0.157827
     32 H                     0.174122
  ----------------------------------------
  Sum of atomic charges =    -0.000000

 -----------------------------------------------------------------
                    Cartesian Multipole Moments
 -----------------------------------------------------------------
    Charge (ESU x 10^10)
                -0.0000
    Dipole Moment (Debye)
         X       0.6152      Y       1.8957      Z       0.4348
       Tot       2.0399
    Quadrupole Moments (Debye-Ang)
        XX     -85.5567     XY      -3.5916     YY     -87.5980
        XZ       4.8369     YZ       3.9225     ZZ    -101.7304
    Octopole Moments (Debye-Ang^2)
       XXX     -53.2521    XXY      16.3589    XYY      -7.4544
       YYY     -22.9435    XXZ       1.2303    XYZ      -4.8870
       YYZ     -23.3639    XZZ       0.1836    YZZ       7.4991
       ZZZ      -7.1521
    Hexadecapole Moments (Debye-Ang^3)
      XXXX   -2056.3456   XXXY     -65.7138   XXYY    -642.3942
      XYYY      20.8891   YYYY   -1583.9334   XXXZ     -11.7705
      XXYZ      -5.8445   XYYZ      18.8369   YYYZ      23.1026
      XXZZ    -474.2905   XYZZ     -11.7332   YYZZ    -349.8004
      XZZZ      24.8582   YZZZ       2.8152   ZZZZ    -453.9161
 -----------------------------------------------------------------
 Calculating analytic gradient of the SCF energy
 Gradient of SCF Energy
            1           2           3           4           5           6
    1   0.0008415  -0.0003820  -0.0000622  -0.0008774  -0.0000776  -0.0001230
    2   0.0008149  -0.0009811  -0.0001630   0.0011684   0.0000722   0.0000421
    3  -0.0002005   0.0004316  -0.0002626  -0.0009433   0.0001056   0.0001478
            7           8           9          10          11          12
    1  -0.0003921   0.0004140   0.0000498   0.0000727  -0.0010734   0.0007842
    2  -0.0000021  -0.0006668  -0.0000828   0.0000447  -0.0010560   0.0003805
    3   0.0001248   0.0004199  -0.0001086  -0.0000366   0.0008697  -0.0008161
           13          14          15          16          17          18
    1  -0.0010996   0.0011466  -0.0000764   0.0002503  -0.0000236  -0.0000112
    2  -0.0001965   0.0006095  -0.0002237  -0.0000451  -0.0001682  -0.0000734
    3   0.0007177  -0.0001480   0.0003023  -0.0000170  -0.0000834  -0.0001060
           19          20          21          22          23          24
    1   0.0000072   0.0000051  -0.0000259  -0.0000146  -0.0000953  -0.0000185
    2  -0.0000302   0.0001557  -0.0000215  -0.0000994   0.0000005   0.0000429
    3  -0.0000124   0.0000699  -0.0001004  -0.0002097  -0.0000108  -0.0000299
           25          26          27          28          29          30
    1   0.0000070   0.0000014  -0.0000403   0.0000826   0.0004185   0.0000753
    2   0.0000287  -0.0000218   0.0000011   0.0001193  -0.0000724   0.0001574
    3  -0.0000520   0.0000118   0.0000147  -0.0000442  -0.0003541   0.0001352
           31          32
    1  -0.0000445   0.0002814
    2  -0.0000627   0.0003291
    3  -0.0000010   0.0001855
 Max gradient component =       1.168E-03
 RMS gradient           =       4.055E-04
 Gradient time:  CPU 309.49 s  wall 22.07 s
 Geometry Optimization Parameters
   NAtoms,    NIC,     NZ,  NCons,   NDum,   NFix, NCnnct, MaxDiis
       32     251       0       0       0       0       0       0

 Cartesian Hessian Update
 Hessian Updated using Powell/Murtagh-Sargent Update
  Mixing factors:     0.000023 Powell
                      0.999977 Murtagh-Sargent


** GEOMETRY OPTIMIZATION IN DELOCALIZED INTERNAL COORDINATES **
   Searching for a Transition State

   Optimization Cycle:   2

                       Coordinates (Angstroms)
     ATOM                X               Y               Z
      1  C        -0.2076892126    1.0211751305    0.3925930325
      2  C         0.6414751672   -0.2206609734    0.8597346326
      3  C        -1.6039313153    0.7268230814   -0.1107523657
      4  C        -0.1191952062   -1.5273168494    0.6741174909
      5  O        -2.5016788721    1.5425963402    0.4852896961
      6  O        -1.9036524973   -0.0839157839   -0.9520968543
      7  O         0.1440367924   -2.1660128872   -0.4685187323
      8  O        -0.9036430317   -1.9262922124    1.5054926816
      9  C        -0.6833873059   -3.3041438173   -0.7699579818
     10  C        -3.8730606642    1.3707455497    0.0777092157
     11  C         0.7126367725    1.5982848151   -0.7364998072
     12  C         1.8091217561    2.4382778097   -0.0604600679
     13  C         2.6222858824    1.3084624382    0.6304747993
     14  C         1.9583390199    0.0148856533    0.0550547812
     15  O         1.4391463927    0.4674186798   -1.2118480465
     16  H        -0.3016716506    1.7385726856    1.2053729406
     17  H         0.8161350077   -0.1539140921    1.9337937086
     18  H        -1.7180840228   -2.9809889721   -0.8886914563
     19  H        -3.9797096114    1.5585596264   -0.9917118923
     20  H         2.4037178648    2.9531487770   -0.8168410213
     21  H         1.4117336473    3.1834654289    0.6314405880
     22  H         3.6753276286    1.3430890297    0.3476617597
     23  H         2.5686966915    1.3453527740    1.7205101593
     24  H        -0.2978191424   -3.6980412092   -1.7076843786
     25  H        -0.6168672797   -4.0514335846    0.0218058478
     26  H        -4.4395751340    2.0978789491    0.6549591491
     27  H        -4.2077850206    0.3567683939    0.3008522981
     28  H         0.1818060159    2.0687086383   -1.5617855959
     29  C         2.9201680291   -1.1414588428   -0.1174730062
     30  H         3.8056293712   -0.8012470890   -0.6587502857
     31  H         3.2406190191   -1.5111384965    0.8611475978
     32  H         2.4613193481   -1.9590255210   -0.6675547870
   Point Group: c1    Number of degrees of freedom:    90


   Energy is   -805.191841371

 Hessian Updated using Powell/Murtagh-Sargent Update
  Mixing factors:     0.996378 Powell
                      0.003622 Murtagh-Sargent

 87 Hessian modes will be used to form the next step
  Hessian Eigenvalues:
     0.002088    0.006129    0.007174    0.007360    0.007740    0.010230
     0.010481    0.010943    0.011017    0.022059    0.022838    0.024216
     0.025969    0.033703    0.036193    0.038648    0.041062    0.045218
     0.048375    0.048616    0.052209    0.054613    0.056164    0.057303
     0.057886    0.060037    0.063369    0.064498    0.066275    0.073987
     0.080536    0.092855    0.096980    0.101348    0.101545    0.104501
     0.105970    0.106534    0.119882    0.123465    0.153944    0.160000
     0.160000    0.160000    0.160000    0.160000    0.160012    0.172878
     0.232691    0.233837    0.249656    0.249896    0.249993    0.250000
     0.250000    0.250000    0.250048    0.252706    0.264424    0.278451
     0.300517    0.309583    0.310408    0.334828    0.343433    0.345667
     0.345854    0.346097    0.346727    0.346958    0.347080    0.347131
     0.347250    0.347584    0.347882    0.350217    0.350256    0.350767
     0.350912    0.351649    0.353603    0.394552    0.397174    0.546918
     0.582871    0.996393    1.017541
**WARNING** Hessian does not have the Desired Local Structure

 Transition State Search - Taking P-RFO Step
 Searching for Lamda that Maximizes Along the Lowest mode
 Value Taken    Lamda =   0.00238822
 Searching for Lamda that Minimizes Along All other modes
 Value Taken    Lamda =  -0.00023356
 Calculated Step too Large.  Step scaled by  0.106146
 Step Taken.  Stepsize is  0.300000

                             Maximum     Tolerance    Cnvgd?
         Gradient           0.001007      0.000001      NO
         Displacement       0.108214      0.000001      NO
         Energy change      0.000128      0.000000      NO


 New Cartesian Coordinates Obtained by Inverse Iteration

 Displacement from previous Coordinates is:  0.661426
 Adding empirical dispersion correction 
 ----------------------------------------------------------------
 Doing -D3(op) with
 s6 =   1.00000
 s8 =   0.78311
 a1 =   0.30000
 a2 =   4.25000
 n  =  10.00000
 -D3 energy without 3body term =     -0.0357742028 hartrees
 ----------------------------------------------------------------
             Standard Nuclear Orientation (Angstroms)
    I     Atom           X                Y                Z
 ----------------------------------------------------------------
    1      C      -0.2074004518     1.0186139150     0.3805158259
    2      C       0.6273725905    -0.2286179300     0.8579829938
    3      C      -1.6153661585     0.7416900997    -0.0983157296
    4      C      -0.1268046523    -1.5343695754     0.6435260927
    5      O      -2.4944402667     1.5614708869     0.5194362927
    6      O      -1.9374879496    -0.0600639410    -0.9400991872
    7      O       0.1661731939    -2.1631814196    -0.4973898477
    8      O      -0.9120288517    -1.9528600818     1.4643316421
    9      C      -0.6440221285    -3.3076479885    -0.8201948575
   10      C      -3.8750711364     1.4022349101     0.1385305549
   11      C       0.7107979913     1.5687527106    -0.7672549238
   12      C       1.8081887739     2.4269953833    -0.1181246612
   13      C       2.5908937148     1.3196860424     0.6413616676
   14      C       1.9524626965     0.0084032845     0.0728609694
   15      O       1.4452509153     0.4301527869    -1.2099669614
   16      H      -0.2777874263     1.7481322018     1.1850079881
   17      H       0.7821955726    -0.1733282991     1.9358924494
   18      H      -1.6793893924    -2.9931952814    -0.9553298086
   19      H      -4.0021468915     1.5993895341    -0.9269529073
   20      H       2.4230912774     2.8853796433    -0.8942444912
   21      H       1.4176822539     3.2177791209     0.5256451609
   22      H       3.6582747866     1.3506813391     0.4184549165
   23      H       2.4764169357     1.3862298081     1.7253162397
   24      H      -0.2377014294    -3.6923621929    -1.7530090565
   25      H      -0.5846144548    -4.0588701642    -0.0315365813
   26      H      -4.4247258486     2.1285062286     0.7329140352
   27      H      -4.2118725729     0.3886495364     0.3603508631
   28      H       0.1769355975     2.0109925324    -1.6059578785
   29      C       2.9242309670    -1.1438335777    -0.0646204316
   30      H       3.8109249831    -0.8113609124    -0.6085666195
   31      H       3.2403119981    -1.4873738664     0.9248692411
   32      H       2.4740998034    -1.9780512637    -0.5980488903
 ----------------------------------------------------------------
 Nuclear Repulsion Energy =  1251.3746893987 hartrees
 There are       61 alpha and       61 beta electrons
 Applying Cartesian multipole field
    Component          Value
    ---------          -----
     (2,0,0)        1.00000E-11
     (0,2,0)        2.00000E-11
     (0,0,2)       -3.00000E-11
 Nucleus-field energy     =     0.0000000328 hartrees
 Requested basis set is 6-311++G(d,p)
 There are 176 shells and 464 basis functions
 A cutoff of  1.0D-11 yielded  12680 shell pairs
 There are     89859 function pairs (     95861 Cartesian)
 Smallest overlap matrix eigenvalue = 6.84E-07

 Q-Chem warning in module /fs/scratch/osu6415/qchem-kaunlao-vdw/stvman/mkSTV.C, line 281:

 Overlap eigenvalue is smaller than square root of threshold

 Linear dependence detected in AO basis
 Number of orthogonalized atomic orbitals = 463
 Maximum deviation from orthogonality = 1.181E-10
 Guess MOs from SCF MO coefficient file
 Reading MOs from coefficient file
 Reading MOs from coefficient file
 A restricted hybrid HF-DFT SCF calculation will be
 performed using Pulay DIIS extrapolation
 Exchange:     0.2000 Hartree-Fock + 0.0800 Slater + 0.7200 B88
 Correlation:  0.1900 VWN1RPA + 0.8100 LYP
 Using SG-1 standard quadrature grid
 Dispersion:   Grimme D3
 SCF converges when DIIS error is below 1.0E-08
 Geometry optimization detected.  Setting ReadMinima to 0
 Setting SaveMinima to 0
 using 20 threads for integral computing
 -------------------------------------------------------
 OpenMP Integral computing Module                
 Release: version 1.0, May 2013, Q-Chem Inc. Pittsburgh 
 -------------------------------------------------------
 -------------------------------------------------------
 OpenMP BLAS3 based DFT computing Module                
 Release: version 1.0, May 2013, Q-Chem Inc. Pittsburgh 
 -------------------------------------------------------
 ---------------------------------------
  Cycle       Energy         DIIS Error
 ---------------------------------------
    1    -805.1780941113      8.68E-04
    2    -805.1909623963      1.44E-04
    3    -805.1905611455      2.07E-04
    4    -805.1914610900      3.31E-05
    5    -805.1914751106      1.76E-05
    6    -805.1914810803      4.59E-06
    7    -805.1914814302      1.82E-06
    8    -805.1914814948      4.96E-07
    9    -805.1914814991      1.87E-07
   10    -805.1914815007      6.61E-08
   11    -805.1914815007      1.37E-08
   12    -805.1914814996      5.08E-09 Convergence criterion met
 ---------------------------------------
 SCF time:  CPU 771.42 s  wall 41.10 s
 SCF   energy in the final basis set = -805.19148150
 Total energy in the final basis set = -805.19148150
 
 --------------------------------------------------------------
 
                    Orbital Energies (a.u.)
 --------------------------------------------------------------
 
 Alpha MOs
 -- Occupied --
-19.177 -19.166 -19.129 -19.118 -19.108 -10.308 -10.301 -10.241
-10.237 -10.230 -10.219 -10.206 -10.204 -10.180 -10.180 -10.164
 -1.117  -1.109  -1.063  -1.030  -1.020  -0.831  -0.793  -0.782
 -0.745  -0.724  -0.692  -0.650  -0.606  -0.591  -0.565  -0.563
 -0.528  -0.508  -0.506  -0.493  -0.489  -0.483  -0.482  -0.467
 -0.457  -0.435  -0.424  -0.421  -0.419  -0.409  -0.391  -0.383
 -0.373  -0.371  -0.362  -0.361  -0.356  -0.351  -0.338  -0.328
 -0.318  -0.306  -0.288  -0.277  -0.270
 -- Virtual --
 -0.016  -0.013  -0.003   0.002   0.004   0.007   0.013   0.021
  0.027   0.033   0.035   0.037   0.043   0.047   0.049   0.059
  0.064   0.067   0.069   0.077   0.081   0.091   0.093   0.094
  0.098   0.102   0.107   0.108   0.111   0.116   0.118   0.122
  0.127   0.128   0.131   0.134   0.135   0.137   0.141   0.144
  0.148   0.151   0.154   0.158   0.160   0.161   0.166   0.168
  0.168   0.172   0.175   0.179   0.182   0.185   0.187   0.193
  0.194   0.196   0.206   0.210   0.213   0.216   0.219   0.226
  0.227   0.235   0.235   0.243   0.249   0.251   0.258   0.260
  0.265   0.274   0.278   0.284   0.291   0.293   0.298   0.301
  0.309   0.313   0.318   0.323   0.327   0.333   0.338   0.340
  0.346   0.349   0.354   0.356   0.362   0.365   0.371   0.375
  0.375   0.381   0.387   0.391   0.393   0.398   0.403   0.410
  0.419   0.428   0.437   0.445   0.447   0.453   0.461   0.479
  0.485   0.496   0.506   0.511   0.516   0.530   0.538   0.542
  0.565   0.569   0.571   0.584   0.596   0.599   0.607   0.620
  0.626   0.631   0.636   0.643   0.649   0.657   0.662   0.671
  0.679   0.682   0.686   0.697   0.702   0.714   0.720   0.724
  0.729   0.731   0.743   0.745   0.751   0.761   0.764   0.771
  0.777   0.789   0.799   0.800   0.804   0.831   0.834   0.846
  0.858   0.888   0.907   0.939   0.961   0.980   1.002   1.016
  1.018   1.050   1.054   1.072   1.078   1.085   1.107   1.122
  1.135   1.151   1.169   1.191   1.201   1.213   1.223   1.234
  1.246   1.256   1.263   1.285   1.287   1.297   1.311   1.332
  1.340   1.346   1.355   1.364   1.376   1.401   1.402   1.417
  1.437   1.439   1.455   1.462   1.477   1.485   1.493   1.502
  1.513   1.531   1.550   1.556   1.565   1.567   1.570   1.587
  1.591   1.600   1.604   1.624   1.633   1.650   1.659   1.662
  1.675   1.693   1.695   1.703   1.708   1.720   1.726   1.731
  1.743   1.746   1.765   1.781   1.784   1.796   1.806   1.820
  1.822   1.841   1.849   1.859   1.870   1.881   1.910   1.923
  1.936   1.943   1.971   1.978   1.992   1.995   2.015   2.027
  2.049   2.050   2.062   2.101   2.107   2.120   2.125   2.137
  2.149   2.172   2.179   2.198   2.213   2.228   2.235   2.255
  2.269   2.295   2.315   2.335   2.417   2.429   2.441   2.445
  2.466   2.472   2.493   2.500   2.510   2.513   2.517   2.525
  2.540   2.542   2.555   2.573   2.590   2.608   2.620   2.631
  2.650   2.659   2.672   2.684   2.709   2.733   2.739   2.763
  2.794   2.799   2.822   2.832   2.852   2.861   2.865   2.869
  2.890   2.894   2.925   2.928   2.955   2.982   3.011   3.023
  3.025   3.038   3.059   3.066   3.074   3.097   3.105   3.114
  3.127   3.151   3.154   3.172   3.196   3.220   3.241   3.251
  3.274   3.313   3.326   3.338   3.383   3.397   3.417   3.445
  3.591   3.605   3.626   3.664   3.671   3.726   3.776   3.795
  3.822   3.835   3.840   3.874   3.934   3.963   4.037   4.046
  4.069   4.092   4.116   4.141   4.169   4.174   4.191   4.268
  4.277   4.421   4.483   5.047   5.070   5.106   5.166   5.226
  5.249   5.299   5.385   5.436   5.518   5.609   5.653   5.672
  5.893   5.900  23.789  23.850  23.854  23.881  23.902  23.928
 23.947  23.955  23.963  23.986  24.044  49.898  49.940  50.001
 50.039  50.049
 --------------------------------------------------------------
 
          Ground-State Mulliken Net Atomic Charges

     Atom                 Charge (a.u.)
  ----------------------------------------
      1 C                     0.149322
      2 C                     0.151937
      3 C                    -0.695688
      4 C                    -0.610333
      5 O                    -0.034105
      6 O                    -0.186487
      7 O                     0.022815
      8 O                    -0.161365
      9 C                    -0.187924
     10 C                    -0.281763
     11 C                     0.320997
     12 C                    -0.598850
     13 C                    -0.279653
     14 C                    -0.180593
     15 O                    -0.060012
     16 H                     0.309550
     17 H                     0.269140
     18 H                     0.181776
     19 H                     0.172206
     20 H                     0.182856
     21 H                     0.129880
     22 H                     0.163180
     23 H                     0.150557
     24 H                     0.155756
     25 H                     0.173668
     26 H                     0.152805
     27 H                     0.185478
     28 H                     0.272936
     29 C                    -0.356310
     30 H                     0.159312
     31 H                     0.157398
     32 H                     0.171517
  ----------------------------------------
  Sum of atomic charges =    -0.000000

 -----------------------------------------------------------------
                    Cartesian Multipole Moments
 -----------------------------------------------------------------
    Charge (ESU x 10^10)
                -0.0000
    Dipole Moment (Debye)
         X       0.6460      Y       1.9391      Z       0.4515
       Tot       2.0931
    Quadrupole Moments (Debye-Ang)
        XX     -85.8140     XY      -3.8181     YY     -87.7161
        XZ       4.5871     YZ       3.9768     ZZ    -101.3940
    Octopole Moments (Debye-Ang^2)
       XXX     -52.4102    XXY      17.4707    XYY      -7.0158
       YYY     -22.3802    XXZ       2.7150    XYZ      -5.3564
       YYZ     -23.6838    XZZ       0.0470    YZZ       7.1719
       ZZZ      -6.3312
    Hexadecapole Moments (Debye-Ang^3)
      XXXX   -2052.3540   XXXY     -58.4423   XXYY    -642.3345
      XYYY      27.2568   YYYY   -1590.5121   XXXZ     -10.3626
      XXYZ      -6.1395   XYYZ      20.4186   YYYZ      21.4783
      XXZZ    -473.8668   XYZZ      -7.7776   YYZZ    -350.3249
      XZZZ      28.6831   YZZZ      -3.3217   ZZZZ    -453.6332
 -----------------------------------------------------------------
 Calculating analytic gradient of the SCF energy
 Gradient of SCF Energy
            1           2           3           4           5           6
    1   0.0007417   0.0008349  -0.0003161  -0.0029562  -0.0000683  -0.0002991
    2   0.0001406  -0.0016256  -0.0003055   0.0022514   0.0002519   0.0004553
    3  -0.0001077   0.0012155  -0.0002683  -0.0027307   0.0000542   0.0001781
            7           8           9          10          11          12
    1   0.0012085   0.0013731   0.0001201   0.0000833  -0.0012692   0.0010485
    2  -0.0002859  -0.0009659  -0.0000001   0.0000988  -0.0008927   0.0003737
    3   0.0006016   0.0010945  -0.0000495  -0.0000552   0.0009207  -0.0010358
           13          14          15          16          17          18
    1  -0.0011448   0.0007299  -0.0002719   0.0004065  -0.0000711   0.0000557
    2  -0.0003311   0.0010663   0.0001092  -0.0000905  -0.0004164   0.0000896
    3   0.0008359  -0.0000528   0.0000006  -0.0001309   0.0001149  -0.0000511
           19          20          21          22          23          24
    1   0.0000090   0.0000534  -0.0000121   0.0000930  -0.0002637   0.0000305
    2  -0.0000297   0.0000019   0.0003243  -0.0000923  -0.0000447   0.0000458
    3   0.0000031   0.0000486  -0.0003102   0.0001429  -0.0001821  -0.0000288
           25          26          27          28          29          30
    1   0.0000155  -0.0000057  -0.0000005  -0.0000075   0.0001193  -0.0000121
    2   0.0000096  -0.0000181  -0.0000301  -0.0000485   0.0001411   0.0000345
    3  -0.0000476   0.0000160   0.0000213  -0.0001201  -0.0001506   0.0000916
           31          32
    1  -0.0000837  -0.0001408
    2  -0.0001139  -0.0001030
    3  -0.0000393   0.0000210
 Max gradient component =       2.956E-03
 RMS gradient           =       6.741E-04
 Gradient time:  CPU 306.23 s  wall 21.64 s
 Geometry Optimization Parameters
   NAtoms,    NIC,     NZ,  NCons,   NDum,   NFix, NCnnct, MaxDiis
       32     251       0       0       0       0       0       0

 Cartesian Hessian Update
 Hessian Updated using Powell/Murtagh-Sargent Update
  Mixing factors:     0.882182 Powell
                      0.117818 Murtagh-Sargent


** GEOMETRY OPTIMIZATION IN DELOCALIZED INTERNAL COORDINATES **
   Searching for a Transition State

   Optimization Cycle:   3

                       Coordinates (Angstroms)
     ATOM                X               Y               Z
      1  C        -0.2074004518    1.0186139150    0.3805158259
      2  C         0.6273725905   -0.2286179300    0.8579829938
      3  C        -1.6153661585    0.7416900997   -0.0983157296
      4  C        -0.1268046523   -1.5343695754    0.6435260927
      5  O        -2.4944402667    1.5614708869    0.5194362927
      6  O        -1.9374879496   -0.0600639410   -0.9400991872
      7  O         0.1661731939   -2.1631814196   -0.4973898477
      8  O        -0.9120288517   -1.9528600818    1.4643316421
      9  C        -0.6440221285   -3.3076479885   -0.8201948575
     10  C        -3.8750711364    1.4022349101    0.1385305549
     11  C         0.7107979913    1.5687527106   -0.7672549238
     12  C         1.8081887739    2.4269953833   -0.1181246612
     13  C         2.5908937148    1.3196860424    0.6413616676
     14  C         1.9524626965    0.0084032845    0.0728609694
     15  O         1.4452509153    0.4301527869   -1.2099669614
     16  H        -0.2777874263    1.7481322018    1.1850079881
     17  H         0.7821955726   -0.1733282991    1.9358924494
     18  H        -1.6793893924   -2.9931952814   -0.9553298086
     19  H        -4.0021468915    1.5993895341   -0.9269529073
     20  H         2.4230912774    2.8853796433   -0.8942444912
     21  H         1.4176822539    3.2177791209    0.5256451609
     22  H         3.6582747866    1.3506813391    0.4184549165
     23  H         2.4764169357    1.3862298081    1.7253162397
     24  H        -0.2377014294   -3.6923621929   -1.7530090565
     25  H        -0.5846144548   -4.0588701642   -0.0315365813
     26  H        -4.4247258486    2.1285062286    0.7329140352
     27  H        -4.2118725729    0.3886495364    0.3603508631
     28  H         0.1769355975    2.0109925324   -1.6059578785
     29  C         2.9242309670   -1.1438335777   -0.0646204316
     30  H         3.8109249831   -0.8113609124   -0.6085666195
     31  H         3.2403119981   -1.4873738664    0.9248692411
     32  H         2.4740998034   -1.9780512637   -0.5980488903
   Point Group: c1    Number of degrees of freedom:    90


   Energy is   -805.191481500

 Hessian Updated using Powell/Murtagh-Sargent Update
  Mixing factors:     0.992745 Powell
                      0.007255 Murtagh-Sargent

 83 Hessian modes will be used to form the next step
  Hessian Eigenvalues:
    -0.001867    0.006444    0.007174    0.007363    0.007824    0.010231
     0.010482    0.010943    0.014584    0.022064    0.022849    0.024224
     0.025993    0.033773    0.036207    0.038696    0.041107    0.045236
     0.048376    0.048763    0.052219    0.054613    0.056180    0.057303
     0.057892    0.060044    0.063382    0.064513    0.066276    0.074042
     0.080845    0.092871    0.097033    0.101348    0.101546    0.104514
     0.105970    0.106534    0.119928    0.123729    0.154435    0.160000
     0.160001    0.160038    0.172953    0.232870    0.233859    0.249657
     0.249905    0.249993    0.250000    0.250039    0.250356    0.252707
     0.264480    0.278451    0.300593    0.309588    0.310417    0.334836
     0.343433    0.345667    0.345856    0.346098    0.346727    0.346958
     0.347080    0.347131    0.347250    0.347584    0.347884    0.350217
     0.350258    0.350767    0.350912    0.351678    0.353603    0.394552
     0.397183    0.546918    0.582872    0.996393    1.017546

 Transition State Search - Taking P-RFO Step
 Searching for Lamda that Maximizes Along the Lowest mode
 Value Taken    Lamda =   0.00006172
 Searching for Lamda that Minimizes Along All other modes
 Value Taken    Lamda =  -0.00067586
 Step Taken.  Stepsize is  0.278571

                             Maximum     Tolerance    Cnvgd?
         Gradient           0.002539      0.000001      NO
         Displacement       0.108481      0.000001      NO
         Energy change      0.000360      0.000000      NO


 New Cartesian Coordinates Obtained by Inverse Iteration

 Displacement from previous Coordinates is:  1.014056
 Adding empirical dispersion correction 
 ----------------------------------------------------------------
 Doing -D3(op) with
 s6 =   1.00000
 s8 =   0.78311
 a1 =   0.30000
 a2 =   4.25000
 n  =  10.00000
 -D3 energy without 3body term =     -0.0360544639 hartrees
 ----------------------------------------------------------------
             Standard Nuclear Orientation (Angstroms)
    I     Atom           X                Y                Z
 ----------------------------------------------------------------
    1      C      -0.1832349763     1.0160481467     0.3603337213
    2      C       0.6518072534    -0.2186650351     0.8637597529
    3      C      -1.5838147753     0.7144210876    -0.1218989150
    4      C      -0.1030715468    -1.5285973563     0.6668527479
    5      O      -2.4853833701     1.4899095380     0.5197450385
    6      O      -1.8855357586    -0.0945443977    -0.9646647252
    7      O       0.1191967244    -2.1289908759    -0.5050808329
    8      O      -0.9509914453    -1.8871646012     1.4527169935
    9      C      -0.7703299642    -3.2081971215    -0.8447422388
   10      C      -3.8644638419     1.2811864380     0.1570195832
   11      C       0.7429794580     1.5542207592    -0.7888624620
   12      C       1.8306889058     2.4265339831    -0.1443870657
   13      C       2.6040641961     1.3374784036     0.6492414619
   14      C       1.9840166627     0.0124360899     0.0885649361
   15      O       1.4886916236     0.4127123059    -1.2060242625
   16      H      -0.2640401494     1.7570300194     1.1537745594
   17      H       0.7938134930    -0.1460775375     1.9422595680
   18      H      -1.7882243348    -2.8270215616    -0.9331018959
   19      H      -4.0168073001     1.4931765655    -0.9022699511
   20      H       2.4561516049     2.8567525454    -0.9281095109
   21      H       1.4399618533     3.2376873589     0.4732796420
   22      H       3.6780056861     1.3752239878     0.4623907398
   23      H       2.4525989233     1.4192036638     1.7279259291
   24      H      -0.4177237382    -3.5792904528    -1.8045612346
   25      H      -0.7332949854    -3.9928247723    -0.0878555384
   26      H      -4.4335017283     1.9729977251     0.7738536966
   27      H      -4.1561241119     0.2506763681     0.3641662656
   28      H       0.2119564422     1.9788143509    -1.6382168398
   29      C       2.9683689138    -1.1322100509    -0.0201648346
   30      H       3.8519377872    -0.8027800376    -0.5712040215
   31      H       3.2874529750    -1.4479315352     0.9776157112
   32      H       2.5292939636    -1.9835905314    -0.5349719181
 ----------------------------------------------------------------
 Nuclear Repulsion Energy =  1254.9359965302 hartrees
 There are       61 alpha and       61 beta electrons
 Applying Cartesian multipole field
    Component          Value
    ---------          -----
     (2,0,0)        1.00000E-11
     (0,2,0)        2.00000E-11
     (0,0,2)       -3.00000E-11
 Nucleus-field energy     =     0.0000000318 hartrees
 Requested basis set is 6-311++G(d,p)
 There are 176 shells and 464 basis functions
 A cutoff of  1.0D-11 yielded  12713 shell pairs
 There are     90130 function pairs (     96148 Cartesian)
 Smallest overlap matrix eigenvalue = 6.85E-07

 Q-Chem warning in module /fs/scratch/osu6415/qchem-kaunlao-vdw/stvman/mkSTV.C, line 281:

 Overlap eigenvalue is smaller than square root of threshold

 Linear dependence detected in AO basis
 Number of orthogonalized atomic orbitals = 463
 Maximum deviation from orthogonality = 1.340E-10
 Guess MOs from SCF MO coefficient file
 Reading MOs from coefficient file
 Reading MOs from coefficient file
 A restricted hybrid HF-DFT SCF calculation will be
 performed using Pulay DIIS extrapolation
 Exchange:     0.2000 Hartree-Fock + 0.0800 Slater + 0.7200 B88
 Correlation:  0.1900 VWN1RPA + 0.8100 LYP
 Using SG-1 standard quadrature grid
 Dispersion:   Grimme D3
 SCF converges when DIIS error is below 1.0E-08
 Geometry optimization detected.  Setting ReadMinima to 0
 Setting SaveMinima to 0
 using 20 threads for integral computing
 -------------------------------------------------------
 OpenMP Integral computing Module                
 Release: version 1.0, May 2013, Q-Chem Inc. Pittsburgh 
 -------------------------------------------------------
 -------------------------------------------------------
 OpenMP BLAS3 based DFT computing Module                
 Release: version 1.0, May 2013, Q-Chem Inc. Pittsburgh 
 -------------------------------------------------------
 ---------------------------------------
  Cycle       Energy         DIIS Error
 ---------------------------------------
    1    -805.1685770359      1.09E-03
    2    -805.1899925532      1.17E-04
    3    -805.1899558700      1.49E-04
    4    -805.1903959807      4.69E-05
    5    -805.1904322889      1.69E-05
    6    -805.1904378043      4.55E-06
    7    -805.1904381080      2.52E-06
    8    -805.1904382273      6.22E-07
    9    -805.1904382347      2.53E-07
   10    -805.1904382365      9.18E-08
   11    -805.1904382370      2.82E-08
   12    -805.1904382355      9.19E-09 Convergence criterion met
 ---------------------------------------
 SCF time:  CPU 786.45 s  wall 42.40 s
 SCF   energy in the final basis set = -805.19043824
 Total energy in the final basis set = -805.19043824
 
 --------------------------------------------------------------
 
                    Orbital Energies (a.u.)
 --------------------------------------------------------------
 
 Alpha MOs
 -- Occupied --
-19.176 -19.165 -19.128 -19.117 -19.108 -10.308 -10.301 -10.241
-10.237 -10.229 -10.217 -10.206 -10.204 -10.180 -10.180 -10.166
 -1.117  -1.109  -1.062  -1.029  -1.020  -0.831  -0.793  -0.782
 -0.744  -0.723  -0.693  -0.650  -0.605  -0.591  -0.565  -0.562
 -0.528  -0.508  -0.505  -0.493  -0.489  -0.483  -0.480  -0.467
 -0.456  -0.434  -0.423  -0.421  -0.419  -0.409  -0.391  -0.383
 -0.373  -0.370  -0.361  -0.360  -0.355  -0.352  -0.338  -0.328
 -0.317  -0.307  -0.287  -0.277  -0.269
 -- Virtual --
 -0.018  -0.013  -0.003   0.002   0.003   0.006   0.013   0.021
  0.027   0.033   0.035   0.037   0.043   0.047   0.049   0.059
  0.065   0.066   0.071   0.077   0.081   0.090   0.093   0.094
  0.098   0.102   0.107   0.108   0.112   0.115   0.118   0.124
  0.127   0.129   0.131   0.136   0.137   0.137   0.140   0.143
  0.148   0.152   0.155   0.158   0.160   0.161   0.166   0.167
  0.169   0.171   0.173   0.181   0.181   0.185   0.186   0.193
  0.194   0.196   0.207   0.208   0.214   0.217   0.221   0.226
  0.226   0.233   0.235   0.243   0.250   0.251   0.257   0.260
  0.268   0.274   0.278   0.284   0.289   0.293   0.297   0.302
  0.306   0.312   0.320   0.324   0.329   0.333   0.337   0.340
  0.345   0.348   0.351   0.356   0.363   0.365   0.373   0.374
  0.376   0.382   0.387   0.393   0.395   0.401   0.402   0.412
  0.419   0.432   0.438   0.441   0.447   0.457   0.463   0.477
  0.483   0.495   0.503   0.509   0.515   0.532   0.542   0.544
  0.567   0.569   0.572   0.584   0.596   0.601   0.607   0.618
  0.626   0.633   0.637   0.640   0.648   0.655   0.663   0.674
  0.677   0.681   0.691   0.699   0.701   0.715   0.719   0.724
  0.730   0.732   0.744   0.746   0.752   0.762   0.768   0.772
  0.777   0.785   0.796   0.800   0.805   0.828   0.835   0.851
  0.856   0.888   0.911   0.943   0.958   0.981   1.001   1.013
  1.016   1.046   1.057   1.075   1.083   1.090   1.109   1.124
  1.131   1.145   1.168   1.184   1.204   1.214   1.220   1.238
  1.246   1.260   1.268   1.278   1.287   1.298   1.319   1.331
  1.342   1.348   1.358   1.369   1.377   1.399   1.404   1.424
  1.428   1.443   1.453   1.463   1.481   1.486   1.495   1.502
  1.519   1.536   1.547   1.558   1.562   1.566   1.570   1.588
  1.592   1.603   1.609   1.621   1.633   1.645   1.660   1.662
  1.677   1.693   1.699   1.705   1.709   1.718   1.726   1.730
  1.744   1.751   1.770   1.775   1.786   1.795   1.812   1.817
  1.823   1.841   1.849   1.857   1.872   1.884   1.904   1.914
  1.930   1.944   1.968   1.980   1.994   1.998   2.011   2.030
  2.050   2.055   2.062   2.101   2.105   2.117   2.121   2.137
  2.152   2.174   2.179   2.196   2.211   2.226   2.235   2.257
  2.272   2.299   2.317   2.332   2.416   2.429   2.442   2.446
  2.465   2.474   2.493   2.501   2.509   2.513   2.516   2.525
  2.540   2.544   2.554   2.571   2.593   2.607   2.619   2.631
  2.652   2.658   2.671   2.683   2.710   2.733   2.739   2.767
  2.796   2.798   2.824   2.833   2.852   2.858   2.865   2.867
  2.893   2.896   2.926   2.931   2.956   2.983   3.008   3.022
  3.025   3.046   3.053   3.064   3.083   3.096   3.105   3.115
  3.132   3.149   3.157   3.172   3.201   3.221   3.237   3.255
  3.268   3.315   3.327   3.340   3.396   3.400   3.413   3.446
  3.591   3.603   3.628   3.664   3.672   3.727   3.776   3.796
  3.820   3.834   3.839   3.875   3.933   3.961   4.035   4.048
  4.069   4.096   4.116   4.142   4.166   4.175   4.190   4.269
  4.278   4.420   4.484   5.043   5.077   5.120   5.175   5.227
  5.242   5.303   5.387   5.433   5.518   5.610   5.653   5.670
  5.894   5.903  23.789  23.849  23.858  23.884  23.899  23.929
 23.947  23.956  23.964  23.984  24.042  49.898  49.944  50.002
 50.042  50.044
 --------------------------------------------------------------
 
          Ground-State Mulliken Net Atomic Charges

     Atom                 Charge (a.u.)
  ----------------------------------------
      1 C                     0.131176
      2 C                     0.129837
      3 C                    -0.703151
      4 C                    -0.530671
      5 O                    -0.029769
      6 O                    -0.194562
      7 O                     0.036331
      8 O                    -0.165465
      9 C                    -0.200326
     10 C                    -0.274016
     11 C                     0.314050
     12 C                    -0.601810
     13 C                    -0.275038
     14 C                    -0.195770
     15 O                    -0.061547
     16 H                     0.312313
     17 H                     0.266778
     18 H                     0.186687
     19 H                     0.172368
     20 H                     0.181857
     21 H                     0.131481
     22 H                     0.164653
     23 H                     0.149857
     24 H                     0.157401
     25 H                     0.171090
     26 H                     0.153474
     27 H                     0.183613
     28 H                     0.271777
     29 C                    -0.368570
     30 H                     0.160474
     31 H                     0.158661
     32 H                     0.166819
  ----------------------------------------
  Sum of atomic charges =    -0.000000

 -----------------------------------------------------------------
                    Cartesian Multipole Moments
 -----------------------------------------------------------------
    Charge (ESU x 10^10)
                -0.0000
    Dipole Moment (Debye)
         X       0.6117      Y       1.9152      Z       0.4965
       Tot       2.0709
    Quadrupole Moments (Debye-Ang)
        XX     -85.5562     XY      -3.2020     YY     -88.1735
        XZ       4.8614     YZ       3.5896     ZZ    -101.3136
    Octopole Moments (Debye-Ang^2)
       XXX     -53.8679    XXY      15.3535    XYY      -7.6284
       YYY     -19.9739    XXZ       2.9922    XYZ      -5.9065
       YYZ     -21.8692    XZZ      -0.8033    YZZ       7.1006
       ZZZ      -6.0024
    Hexadecapole Moments (Debye-Ang^3)
      XXXX   -2072.9232   XXXY     -79.9311   XXYY    -638.7321
      XYYY       3.9484   YYYY   -1535.6430   XXXZ     -13.5696
      XXYZ      -5.1977   XYYZ      19.5173   YYYZ      17.9833
      XXZZ    -479.0085   XYZZ     -16.6268   YYZZ    -339.0979
      XZZZ      24.7197   YZZZ      -2.9583   ZZZZ    -458.3106
 -----------------------------------------------------------------
 Calculating analytic gradient of the SCF energy
 Gradient of SCF Energy
            1           2           3           4           5           6
    1   0.0007875  -0.0038803   0.0009275   0.0115253  -0.0002450   0.0007106
    2  -0.0007679   0.0030948   0.0023025  -0.0079561  -0.0003339  -0.0024506
    3   0.0017375  -0.0019479  -0.0020133   0.0083961   0.0007267   0.0014240
            7           8           9          10          11          12
    1  -0.0057471  -0.0036796   0.0000687  -0.0001474  -0.0006978  -0.0001411
    2   0.0029330   0.0032775   0.0003495   0.0001071   0.0002438   0.0003066
    3  -0.0026914  -0.0044966   0.0001297  -0.0000231  -0.0002384   0.0000419
           13          14          15          16          17          18
    1  -0.0000947   0.0004570  -0.0002898   0.0004395  -0.0007668  -0.0003678
    2  -0.0003274  -0.0003841   0.0001732   0.0002519  -0.0008851  -0.0003547
    3  -0.0002283  -0.0005598  -0.0000745  -0.0000580  -0.0000873  -0.0001574
           19          20          21          22          23          24
    1   0.0000377  -0.0000015   0.0002568   0.0001337  -0.0007975  -0.0001533
    2  -0.0000257  -0.0005710   0.0005689   0.0000184  -0.0001178  -0.0000634
    3   0.0000286  -0.0001031  -0.0003003   0.0006581  -0.0001772  -0.0001202
           25          26          27          28          29          30
    1  -0.0000444   0.0000038   0.0000083  -0.0002200   0.0011356   0.0001223
    2   0.0000764  -0.0000312  -0.0000320  -0.0001063  -0.0000277   0.0001217
    3  -0.0000095   0.0000214  -0.0000498   0.0000143  -0.0003744   0.0001386
           31          32
    1   0.0000626   0.0005970
    2  -0.0000590   0.0006686
    3   0.0000289   0.0003646
 Max gradient component =       1.153E-02
 RMS gradient           =       2.093E-03
 Gradient time:  CPU 313.64 s  wall 22.05 s
 Geometry Optimization Parameters
   NAtoms,    NIC,     NZ,  NCons,   NDum,   NFix, NCnnct, MaxDiis
       32     251       0       0       0       0       0       0

 Cartesian Hessian Update
 Hessian Updated using Powell/Murtagh-Sargent Update
  Mixing factors:     0.004523 Powell
                      0.995477 Murtagh-Sargent


** GEOMETRY OPTIMIZATION IN DELOCALIZED INTERNAL COORDINATES **
   Searching for a Transition State

   Optimization Cycle:   4

                       Coordinates (Angstroms)
     ATOM                X               Y               Z
      1  C        -0.1832349763    1.0160481467    0.3603337213
      2  C         0.6518072534   -0.2186650351    0.8637597529
      3  C        -1.5838147753    0.7144210876   -0.1218989150
      4  C        -0.1030715468   -1.5285973563    0.6668527479
      5  O        -2.4853833701    1.4899095380    0.5197450385
      6  O        -1.8855357586   -0.0945443977   -0.9646647252
      7  O         0.1191967244   -2.1289908759   -0.5050808329
      8  O        -0.9509914453   -1.8871646012    1.4527169935
      9  C        -0.7703299642   -3.2081971215   -0.8447422388
     10  C        -3.8644638419    1.2811864380    0.1570195832
     11  C         0.7429794580    1.5542207592   -0.7888624620
     12  C         1.8306889058    2.4265339831   -0.1443870657
     13  C         2.6040641961    1.3374784036    0.6492414619
     14  C         1.9840166627    0.0124360899    0.0885649361
     15  O         1.4886916236    0.4127123059   -1.2060242625
     16  H        -0.2640401494    1.7570300194    1.1537745594
     17  H         0.7938134930   -0.1460775375    1.9422595680
     18  H        -1.7882243348   -2.8270215616   -0.9331018959
     19  H        -4.0168073001    1.4931765655   -0.9022699511
     20  H         2.4561516049    2.8567525454   -0.9281095109
     21  H         1.4399618533    3.2376873589    0.4732796420
     22  H         3.6780056861    1.3752239878    0.4623907398
     23  H         2.4525989233    1.4192036638    1.7279259291
     24  H        -0.4177237382   -3.5792904528   -1.8045612346
     25  H        -0.7332949854   -3.9928247723   -0.0878555384
     26  H        -4.4335017283    1.9729977251    0.7738536966
     27  H        -4.1561241119    0.2506763681    0.3641662656
     28  H         0.2119564422    1.9788143509   -1.6382168398
     29  C         2.9683689138   -1.1322100509   -0.0201648346
     30  H         3.8519377872   -0.8027800376   -0.5712040215
     31  H         3.2874529750   -1.4479315352    0.9776157112
     32  H         2.5292939636   -1.9835905314   -0.5349719181
   Point Group: c1    Number of degrees of freedom:    90


   Energy is   -805.190438236

 Hessian Updated using Powell/Murtagh-Sargent Update
  Mixing factors:     0.510289 Powell
                      0.489711 Murtagh-Sargent

 85 Hessian modes will be used to form the next step
  Hessian Eigenvalues:
[...]
    -0.00006992      0.00000456      0.00001297
    -0.00004711     -0.00001684     -0.00001459
     0.00002173     -0.00002472     -0.00001448
    -0.00005214     -0.00007170      0.00000897
     0.00030651      0.00025969     -0.00000092
     0.00038416      0.00021555      0.00026161
    -0.00068359      0.00202986     -0.00330746
    -0.00708247     -0.04887280      0.00003993
    -0.03001603     -0.00197526     -0.03767599
     0.00024592      0.00102620     -0.00025707
    -0.00003176      0.00013563      0.00022108
     0.00493434     -0.03769507     -0.03762926
    -0.00662324     -0.00779948     -0.05893270
    -0.00512236      0.00189860     -0.00057273
    -0.00193724      0.00309159     -0.00537527
     0.28800096      0.17945403     -0.31654590
    -0.20390352      0.38118219      0.32362184
     0.39735196     -0.02187536     -0.10989698
    -0.05737095      0.05121510      0.54654091
     0.00122828     -0.00125893     -0.00308256
     0.00022332     -0.00354814      0.00371604
    -0.00212394      0.00108780      0.00300411
    -0.00038664     -0.00674199     -0.00085975
     0.01997892     -0.02516806      0.04296609
    -0.00226687      0.00190992     -0.00150877
     0.02685054      0.00628582     -0.01543590
     0.00973767     -0.01415608      0.04314000
    -0.00946987     -0.01692833     -0.01082255
vibration 80
    -0.00162805      0.01167932      0.01220572
    -0.00191053     -0.00275580     -0.01951585
    -0.00026055      0.00022183      0.00039593
     0.00026372      0.00017574     -0.00047542
     0.00000395     -0.00003401     -0.00003932
     0.00001305     -0.00002150     -0.00011715
    -0.00003043     -0.00000486      0.00002207
    -0.00009790     -0.00005567      0.00014649
     0.00007744      0.00004367      0.00006557
     0.00013361      0.00003668      0.00004407
     0.00170706     -0.00125745      0.00165757
     0.03451103     -0.00682408     -0.04359495
    -0.05000180      0.00561327      0.04512985
    -0.00064039      0.00007476      0.00019340
    -0.00002864      0.00001281      0.00011427
     0.01971301     -0.13993229     -0.14198728
     0.02393699      0.03195163      0.23042350
    -0.00125331      0.00037423     -0.00014125
    -0.00052073      0.00081022     -0.00136988
    -0.27857481     -0.18781093      0.30090744
    -0.13194327      0.26979447      0.21741227
     0.56256299     -0.02596842     -0.13257897
     0.02919673     -0.04010492     -0.40632366
     0.00038653     -0.00056280     -0.00117202
    -0.00006349     -0.00043132      0.00028672
    -0.00054323      0.00032629      0.00085783
    -0.00024571     -0.00196796     -0.00026312
    -0.01176667      0.01222134     -0.02243632
     0.00905072      0.00741304     -0.01785508
    -0.13988583     -0.03625581      0.07439447
     0.03722678     -0.04589645      0.14928068
    -0.00244258     -0.00661619     -0.01033331
vibration 81
    -0.00157005      0.01066678      0.01115252
    -0.00133216     -0.00248093     -0.01736721
    -0.00017714      0.00021867      0.00038000
     0.00034381      0.00007603     -0.00030823
     0.00000374     -0.00002671     -0.00005186
    -0.00000205     -0.00002804     -0.00014257
     0.00003564      0.00003638      0.00003004
    -0.00009690     -0.00003535      0.00011422
    -0.00007843      0.00033456     -0.00020119
     0.00012109      0.00011161      0.00000651
     0.00045765     -0.00025534      0.00045705
     0.01119258     -0.00131083     -0.01382698
    -0.00306776      0.00001370     -0.00003879
    -0.00113101     -0.00027132      0.00165507
    -0.00000523      0.00010579     -0.00027055
     0.01871231     -0.12827849     -0.13163628
     0.02099248      0.02752767      0.20229164
     0.00073817     -0.00038703     -0.00002610
    -0.00032239      0.00050454     -0.00079778
    -0.09345396     -0.06302099      0.10127474
    -0.03845862      0.07866986      0.06271535
     0.03849906      0.00000543     -0.00794185
    -0.00015707     -0.00044792      0.00651501
     0.00010301     -0.00032303     -0.00063435
     0.00018407     -0.00319877      0.00328144
    -0.00049504      0.00031611      0.00075743
    -0.00026083     -0.00246631     -0.00032603
    -0.00367269      0.00392008     -0.00681853
    -0.03647727     -0.02303660      0.07498317
     0.61354326      0.15003339     -0.32727936
    -0.14236715      0.17346628     -0.56494530
    -0.03488921     -0.04742863     -0.00873887
vibration 82
    -0.00439320      0.02998419      0.03091607
    -0.00635832     -0.00863571     -0.06212736
    -0.00038879      0.00042939      0.00099775
     0.00075835      0.00009464     -0.00134609
    -0.00001270     -0.00009196     -0.00010881
    -0.00003339     -0.00007044     -0.00036358
    -0.00009758      0.00016630      0.00020173
    -0.00023747     -0.00006927      0.00044073
     0.00006232      0.00014825      0.00023690
     0.00037460     -0.00025922      0.00026207
    -0.00101115      0.00075225     -0.00144916
    -0.01478367      0.00582040      0.01949777
     0.01390556     -0.00221606     -0.01824857
    -0.00008710      0.00005379     -0.00072589
     0.00019625     -0.00025984      0.00034667
     0.05343844     -0.35613100     -0.36640246
     0.07407099      0.10114852      0.73676502
    -0.00198604      0.00046173     -0.00026788
    -0.00198745      0.00312624     -0.00546576
     0.10771065      0.07214187     -0.11652756
     0.07010490     -0.14152173     -0.11561441
    -0.15095391      0.00671124      0.03532725
    -0.01392392      0.02008054      0.18488970
     0.00109798     -0.00145187     -0.00305682
    -0.00008534     -0.00072020      0.00039649
    -0.00107375      0.00062083      0.00170858
    -0.00051524     -0.00158891     -0.00022328
     0.00927726     -0.00925827      0.01950990
     0.00750796      0.00567104     -0.01654316
    -0.12680667     -0.03084655      0.06801100
     0.03387219     -0.04111787      0.13204738
     0.00324406      0.00435978     -0.00146670
vibration 83
     0.00472626     -0.03086963     -0.03154865
    -0.00313124     -0.00412772     -0.03072327
     0.00097196     -0.00055074     -0.00093936
     0.00053886      0.00059750     -0.00070644
    -0.00012201      0.00007578      0.00017273
    -0.00004918      0.00008079      0.00032680
    -0.00002143      0.00001426      0.00006077
    -0.00022463     -0.00011550      0.00027561
     0.00025765      0.00004199      0.00011666
    -0.00025788      0.00008986      0.00004445
    -0.00287504      0.00205152     -0.00363908
    -0.03244519      0.00293891      0.04028269
    -0.03569389      0.00397213      0.03271155
    -0.00115452     -0.00016505      0.00084832
     0.00009386      0.00010090     -0.00006966
    -0.05302353      0.36737872      0.37368398
     0.03847306      0.04971595      0.36172548
    -0.00349314      0.00119218     -0.00042637
     0.00085750     -0.00125778      0.00215288
     0.27692210      0.18870271     -0.30184402
     0.10966091     -0.22432080     -0.17795015
     0.40693926     -0.01980834     -0.09459591
     0.02101338     -0.02729391     -0.29659572
     0.00040267     -0.00071341     -0.00131376
    -0.00004406     -0.00075281      0.00049338
     0.00110489     -0.00070892     -0.00187507
     0.00042021      0.00185531      0.00024602
     0.02533465     -0.02666459      0.04979725
    -0.00411457     -0.00136429      0.00971085
     0.08165399      0.01816096     -0.04346976
    -0.01601139      0.01940021     -0.06311446
    -0.01376914     -0.02129183     -0.01146077
vibration 84
     0.00537171     -0.03616870     -0.03674296
    -0.00401117     -0.00494597     -0.03716326
     0.00084824     -0.00065395     -0.00116884
     0.00051000      0.00044399     -0.00094161
    -0.00009477      0.00009760      0.00022369
     0.00004432      0.00015277      0.00053035
    -0.00005809      0.00013536      0.00018548
    -0.00023478     -0.00009798      0.00035124
     0.00011580      0.00006670      0.00031403
    -0.00045039      0.00028774     -0.00009941
     0.00078912     -0.00117643      0.00004740
     0.02835961     -0.00816087     -0.03653161
     0.02500116     -0.00346181     -0.02919928
    -0.00026286      0.00043616     -0.00112376
    -0.00032160      0.00029312      0.00072960
    -0.06570289      0.42832127      0.43812899
     0.04508111      0.05986646      0.44144873
    -0.00240727      0.00076969     -0.00028959
     0.00186963     -0.00281337      0.00494244
    -0.21884337     -0.14893415      0.23993400
    -0.12213929      0.24649986      0.19885034
    -0.27865832      0.01429829      0.06485986
    -0.02023106      0.02733805      0.28561894
     0.00110034     -0.00128131     -0.00287699
    -0.00011609      0.00006312     -0.00037444
     0.00168920     -0.00099179     -0.00275238
     0.00055188      0.00137906      0.00016899
    -0.00133871      0.00188515     -0.00302321
     0.00235454      0.00153352     -0.00522764
    -0.04100772     -0.00917882      0.02210467
     0.01087481     -0.01305351      0.04030409
     0.00178701      0.00337948      0.00115180
vibration 85
     0.00006410     -0.00044003     -0.00012557
     0.00005377      0.00004860      0.00007081
    -0.00001195      0.00018728     -0.00003967
    -0.00017492     -0.00005309      0.00012841
    -0.00005745      0.00034257     -0.00017945
    -0.00006663      0.00012204     -0.00004160
     0.00001246     -0.00000224     -0.00004342
     0.00012150      0.00001592     -0.00005709
     0.00107007     -0.00104286      0.00056610
     0.01327597     -0.08506262      0.04032630
    -0.00016269      0.00014466     -0.00032031
     0.00016577     -0.00006976     -0.00020621
     0.00001668     -0.00000163      0.00000186
    -0.00000993     -0.00001597      0.00003259
    -0.00001022      0.00002169     -0.00001020
    -0.00054686      0.00255403      0.00253455
    -0.00004733     -0.00017730     -0.00085911
    -0.01170097      0.00450498     -0.00088425
    -0.19493984      0.32140007     -0.58562783
    -0.00116897     -0.00078220      0.00122055
    -0.00080362      0.00162902      0.00133250
    -0.00012063      0.00004752      0.00002639
    -0.00000193     -0.00003140     -0.00007689
    -0.00059065      0.00072371      0.00237227
    -0.00031080      0.00731571     -0.00796074
     0.00576189     -0.01857764      0.00351197
     0.03249038      0.70281196      0.10479589
     0.00186008     -0.00179346      0.00352975
    -0.00004418     -0.00001246      0.00013063
     0.00107715      0.00025768     -0.00055818
    -0.00025510      0.00029290     -0.00092020
    -0.00028177     -0.00034351     -0.00016875
vibration 86
     0.00008448     -0.00013345     -0.00012498
    -0.00018146      0.00012919     -0.00023652
    -0.00006039     -0.00012796     -0.00022639
     0.00018936     -0.00006832      0.00005504
    -0.00001975      0.00001905      0.00004347
     0.00003787      0.00010526      0.00010879
     0.00013119     -0.00024434      0.00015019
     0.00003715     -0.00015745      0.00000411
    -0.05744604      0.05930588     -0.04722283
     0.00012990     -0.00131143      0.00091455
     0.00005915     -0.00008581      0.00019187
    -0.00005143     -0.00002205      0.00005552
    -0.00005005     -0.00000608     -0.00001098
    -0.00003346      0.00000843     -0.00003665
     0.00002436     -0.00001487      0.00001981
    -0.00022221      0.00188460      0.00179154
     0.00022140      0.00004705      0.00162115
     0.67042901     -0.24586969      0.05975555
    -0.00348166      0.00576826     -0.01042844
     0.00058466      0.00035596     -0.00055781
     0.00009302     -0.00020896     -0.00012369
     0.00063481     -0.00006238     -0.00015626
    -0.00003611      0.00005764      0.00040775
    -0.01218842      0.01246240     -0.00715343
     0.02222748     -0.46751166      0.50764320
     0.00163464     -0.00106127     -0.00212675
     0.00046576      0.01086925      0.00160509
    -0.00098719      0.00094975     -0.00202542
     0.00041513      0.00034420     -0.00009067
    -0.00348763     -0.00096048      0.00188244
     0.00042855     -0.00028493      0.00127045
    -0.00163329     -0.00277674     -0.00215756
vibration 87
    -0.00043415      0.00091365      0.00165217
     0.00006317     -0.00029168      0.00280648
    -0.00022666     -0.00022961     -0.00105933
    -0.00005998     -0.00014222      0.00005675
     0.00015083      0.00003313      0.00008634
    -0.00000004      0.00006577      0.00050263
     0.00002970      0.00002604      0.00001704
     0.00005121      0.00005024     -0.00003417
    -0.00027232      0.00012550     -0.00002460
    -0.00023584      0.00047611      0.00013113
    -0.03453030      0.03563079     -0.07035293
     0.00490067      0.00375525     -0.00381322
     0.00189828     -0.00014590      0.00104549
     0.00062032     -0.00105215      0.00082457
    -0.00029946      0.00044349      0.00005297
     0.00274628     -0.01309765     -0.01567296
    -0.00254720     -0.00368879     -0.02772099
     0.00284823     -0.00094018      0.00026975
     0.00085232     -0.00105566      0.00212890
    -0.05422762     -0.03620386      0.05475849
     0.00124930     -0.00633398     -0.00689919
    -0.01510684      0.00055137      0.00383584
     0.00082823     -0.00144361     -0.00960751
     0.00023783     -0.00021152     -0.00070515
     0.00005753     -0.00039438      0.00056348
     0.00260784     -0.00115035     -0.00351339
    -0.00013826     -0.00361465     -0.00049128
     0.39878415     -0.40788401      0.81127655
     0.00002282     -0.00008420     -0.00008955
    -0.00123567     -0.00011163      0.00059880
    -0.00026070      0.00031094     -0.00021615
     0.00079375      0.00161463      0.00093875
vibration 88
     0.00006802     -0.00017324     -0.00014303
     0.00008511     -0.00024124     -0.00098984
    -0.00000895     -0.00002925     -0.00003848
     0.00018635      0.00001750     -0.00020216
     0.00000295      0.00000524      0.00000560
     0.00000527      0.00001750      0.00002075
    -0.00075152     -0.00001104      0.00000648
    -0.00002606     -0.00001391      0.00005871
     0.00147091     -0.00029837     -0.00307343
    -0.00003517      0.00000614      0.00009672
     0.00007660     -0.00012345      0.00006310
    -0.00005243      0.00000173     -0.00006849
    -0.00129813      0.00058672      0.00128774
    -0.00129338     -0.00067215     -0.00068401
     0.00015432      0.00002792      0.00014844
    -0.00040126      0.00210270      0.00204414
     0.00073886      0.00178597      0.01185418
    -0.00834766      0.00294707     -0.00176939
    -0.00013045      0.00022935     -0.00038188
     0.00064015      0.00022043     -0.00043952
     0.00005426      0.00039773      0.00071981
     0.01749836      0.00078763     -0.00373497
     0.00090761     -0.00122422     -0.01004302
    -0.01102618      0.01162819      0.02757517
     0.00104696     -0.01080302      0.01088624
     0.00054296     -0.00028471     -0.00077316
     0.00001022     -0.00002604      0.00001365
    -0.00025271      0.00033115     -0.00052443
    -0.05645206     -0.05632378     -0.04276030
     0.21428131      0.04748304     -0.13247245
     0.03892189     -0.07358797      0.20524529
     0.43697683      0.69925991      0.44180158
vibration 89
     0.00000395     -0.00001086      0.00003258
    -0.00000713     -0.00000958     -0.00008165
    -0.00086864     -0.00039611     -0.00076002
     0.00001724      0.00001750     -0.00006268
    -0.00008232      0.00012036      0.00033080
     0.00025431      0.00019643      0.00040207
    -0.00000216      0.00000369      0.00002812
    -0.00001161     -0.00001485      0.00003195
     0.00040033     -0.00005386     -0.00114942
     0.03276120     -0.03375650     -0.08191076
    -0.00016670      0.00016161     -0.00031784
     0.00002030     -0.00002300     -0.00001889
    -0.00001057     -0.00000028     -0.00002201
    -0.00000810     -0.00000769     -0.00000040
     0.00001079      0.00000319      0.00000877
     0.00026535      0.00047230      0.00048584
     0.00018535      0.00011841      0.00103636
    -0.00140836      0.00077219     -0.00040636
     0.08975629     -0.15388149      0.23757699
    -0.00001480     -0.00003192      0.00003191
    -0.00014166      0.00024411      0.00020591
     0.00024470     -0.00001652     -0.00005604
    -0.00003327      0.00002880      0.00037429
    -0.00385516      0.00412895      0.00975112
     0.00048521     -0.00416154      0.00425901
    -0.48986912      0.25866159      0.71217535
     0.01722347      0.29642076      0.02178023
     0.00173757     -0.00189996      0.00370041
    -0.00004341     -0.00002273     -0.00002875
     0.00031093      0.00006559     -0.00017945
     0.00006973     -0.00010719      0.00032432
     0.00017247      0.00032348      0.00019316
vibration 90
    -0.00002161     -0.00000675     -0.00000496
    -0.00008544     -0.00005426     -0.00012968
     0.00002894      0.00001973     -0.00004047
     0.00086574      0.00081144     -0.00025249
    -0.00001138     -0.00000323      0.00001510
    -0.00000391     -0.00001015      0.00002553
    -0.00014939      0.00004195      0.00029747
    -0.00036494     -0.00025626      0.00021692
     0.04637601     -0.01878656     -0.08004380
    -0.00044747      0.00066577      0.00091870
    -0.00002654      0.00003886     -0.00011567
     0.00005528      0.00000125     -0.00006099
     0.00010999     -0.00002851     -0.00011512
     0.00008298      0.00001144     -0.00001294
    -0.00001650     -0.00000004      0.00001974
     0.00000625      0.00000956      0.00007628
     0.00025622      0.00035792      0.00238700
    -0.27243627      0.10558348     -0.04616361
    -0.00059842      0.00096112     -0.00137856
    -0.00053498     -0.00034824      0.00053167
    -0.00015487      0.00033787      0.00023709
    -0.00150826     -0.00004291      0.00033049
    -0.00005352      0.00014432      0.00108175
    -0.30667478      0.32699715      0.78042493
     0.02624233     -0.21439095      0.21300338
     0.00613661     -0.00320226     -0.00896266
    -0.00034754     -0.00557102     -0.00063420
     0.00051922     -0.00058768      0.00114685
     0.00203025      0.00210974      0.00143528
    -0.00805115     -0.00177678      0.00490048
    -0.00099322      0.00222557     -0.00582156
    -0.01619245     -0.02588772     -0.01652686
[INT]
    0.239442
    0.451043
    5.596275
    2.446013
    0.802281
    0.341540
    0.050111
    2.189645
    0.660234
    0.545474
    0.686439
    1.677928
    7.383168
    2.014932
   13.587069
    0.411678
   11.310460
    4.285175
   10.105522
    3.538247
   19.253046
    4.007404
    0.894765
    3.141735
    6.340422
    2.202864
    9.891417
   21.567431
    4.095523
    4.741304
    2.565592
    6.219410
    7.239570
    0.524420
   18.892307
    8.799870
    0.141789
   16.348521
   39.122181
   18.776802
   56.689839
   23.268881
   21.187766
    0.566289
    0.976719
    8.289167
   19.461701
  235.669199
   10.275586
   11.268942
   30.349348
  107.384103
    8.087174
    4.150485
  170.432367
   68.981271
    4.337816
    7.362797
   56.069992
    1.765625
    3.223077
   86.457732
   14.853906
   21.108205
   14.676404
    0.110858
    4.691812
    1.497373
    2.503332
   12.256386
    7.738888
    9.918069
  227.420866
  259.409928
   17.320340
   28.621230
   37.252452
   30.974760
   33.606585
    2.096917
   10.510075
    7.025945
   19.781569
   36.022214
   18.031907
   16.198802
   15.687275
    7.390446
   13.631077
   10.644448

======= END OF MOLDEN-FORMATTED INPUT FILE =======


        *************************************************************
        *                                                           *
        *  Thank you very much for using Q-Chem.  Have a nice day.  *
        *                                                           *
        *************************************************************


