r0012.ten.osc.edu 10.25.151
Q-Chem Developer Version! Running on 10.25.151.*
                  Welcome to Q-Chem
     A Quantum Leap Into The Future Of Chemistry


 Q-Chem 5.0, Q-Chem, Inc., Pleasanton, CA (2017)

 Yihan Shao,  Zhengting Gan,  E. Epifanovsky,  A. T. B. Gilbert,  M. Wormit,  
 J. Kussmann,  A. W. Lange,  A. Behn,  Jia Deng,  Xintian Feng,  D. Ghosh,  
 M. Goldey,  P. R. Horn,  L. D. Jacobson,  I. Kaliman,  T. Kus,  A. Landau,  
 Jie Liu,  E. I. Proynov,  R. M. Richard,  R. P. Steele,  E. J. Sundstrom,  
 H. L. Woodcock III,  P. M. Zimmerman,  D. Zuev,  B. Albrecht,  E. Alguire,  
 S. A. Baeppler,  D. Barton,  Z. Benda,  Y. A. Bernard,  E. J. Berquist,  
 K. B. Bravaya,  H. Burton,  D. Casanova,  Chun-Min Chang,  Yunqing Chen,  
 A. Chien,  K. D. Closser,  M. P. Coons,  S. Dasgupta,  A. L. Dempwolff,  
 M. Diedenhofen,  Hainam Do,  R. G. Edgar,  Po-Tung Fang,  S. Fatehi,  
 Qingguo Feng,  J. Fosso-Tande,  Qinghui Ge,  A. Ghysels,  G. Gidofalvi,  
 J. Gomes,  J. Gonthier,  A. Gunina,  M. W. D. Hanson-Heine,  
 P. H. P. Harbach,  A. W. Hauser,  J. E. Herr,  E. G. Hohenstein,  
 Z. C. Holden,  Kerwin Hui,  T.-C. Jagau,  Hyunjun Ji,  B. Kaduk,  
 K. Khistyaev,  Jaehoon Kim,  P. Klunzinger,  K. Koh,  D. Kosenkov,  
 L. Koulias,  T. Kowalczyk,  C. M. Krauter,  A. Kunitsa,  Ka Un Lao,  
 A. Laurent,  K. V. Lawler,  Joonho Lee,  D. Lefrancois,  S. Lehtola,  
 D. S. Levine,  Yi-Pei Li,  You-Sheng Lin,  Fenglai Liu,  E. Livshits,  
 A. Luenser,  P. Manohar,  E. Mansoor,  S. F. Manzer,  Shan-Ping Mao,  
 Yuezhi Mao,  N. Mardirossian,  A. V. Marenich,  T. Markovich,  
 L. A. Martinez-Martinez,  S. A. Maurer,  N. J. Mayhall,  S. C. McKenzie,  
 J.-M. Mewes,  A. F. Morrison,  J. W. Mullinax,  K. Nanda,  
 T. S. Nguyen-Beck,  R. Olivares-Amaya,  J. A. Parkhill,  T. M. Perrine,  
 F. Plasser,  S. Prager,  A. Prociuk,  E. Ramos,  D. R. Rehn,  F. Rob,  
 M. Schneider,  N. Sergueev,  S. M. Sharada,  S. Sharma,  D. W. Small,  
 T. Stauch,  T. Stein,  Yu-Chuan Su,  A. J. W. Thom,  A. Tkatchenko,  
 T. Tsuchimochi,  L. Vogt,  O. Vydrov,  M. A. Watson,  J. Wenzel,  
 M. de Wergifosse,  T. A. Wesolowski,  A. White,  J. Witte,  A. Yamada,  
 Jun Yang,  K. Yao,  S. Yeganeh,  S. R. Yost,  Zhi-Qiang You,  A. Zech,  
 Igor Ying Zhang,  Xing Zhang,  Yan Zhao,  Ying Zhu,  B. R. Brooks,  
 G. K. L. Chan,  C. J. Cramer,  M. S. Gordon,  W. J. Hehre,  A. Klamt,  
 M. W. Schmidt,  C. D. Sherrill,  D. G. Truhlar,  A. Aspuru-Guzik,  R. Baer,  
 A. T. Bell,  N. A. Besley,  Jeng-Da Chai,  R. A. DiStasio Jr.,  A. Dreuw,  
 B. D. Dunietz,  T. R. Furlani,  Chao-Ping Hsu,  Yousung Jung,  Jing Kong,  
 D. S. Lambrecht,  WanZhen Liang,  C. Ochsenfeld,  V. A. Rassolov,  
 L. V. Slipchenko,  J. E. Subotnik,  T. Van Voorhis,  J. M. Herbert,  
 A. I. Krylov,  P. M. W. Gill,  M. Head-Gordon

 Contributors to earlier versions of Q-Chem not listed above: 
 R. D. Adamson,  B. Austin,  J. Baker,  G. J. O. Beran,  K. Brandhorst,  
 S. T. Brown,  E. F. C. Byrd,  A. K. Chakraborty,  C.-L. Cheng,  
 Siu Hung Chien,  D. M. Chipman,  D. L. Crittenden,  H. Dachsel,  
 R. J. Doerksen,  A. D. Dutoi,  L. Fusti-Molnar,  W. A. Goddard III,  
 A. Golubeva-Zadorozhnaya,  S. R. Gwaltney,  G. Hawkins,  A. Heyden,  
 S. Hirata,  G. Kedziora,  F. J. Keil,  C. Kelley,  Jihan Kim,  R. A. King,  
 R. Z. Khaliullin,  P. P. Korambath,  W. Kurlancheek,  A. M. Lee,  M. S. Lee,  
 S. V. Levchenko,  Ching Yeh Lin,  D. Liotard,  R. C. Lochan,  I. Lotan,  
 P. E. Maslen,  N. Nair,  D. P. O'Neill,  D. Neuhauser,  E. Neuscamman,  
 C. M. Oana,  R. Olson,  B. Peters,  R. Peverati,  P. A. Pieniazek,  
 Y. M. Rhee,  J. Ritchie,  M. A. Rohrdanz,  E. Rosta,  N. J. Russ,  
 H. F. Schaefer III,  N. E. Schultz,  N. Shenvi,  A. C. Simmonett,  A. Sodt,  
 D. Stuck,  K. S. Thanthiriwatte,  V. Vanovschi,  Tao Wang,  A. Warshel,  
 C. F. Williams,  Q. Wu,  X. Xu,  W. Zhang

 Please cite Q-Chem as follows:
 Y. Shao et al., Mol. Phys. 113, 184-215 (2015)
 DOI: 10.1080/00268976.2014.952696

 Q-Chem 5.0.2 for Intel X86 EM64T Linux

 Parts of Q-Chem use Armadillo 5.200.1 (Boston Tea Smuggler).
 http://arma.sourceforge.net/

 Q-Chem begins on Mon Dec 18 23:20:05 2017  

Host: r0012.ten.osc.edu
0

     Scratch files written to /tmp/pbstmp.1350845/16//
Processing $rem in /users/PAS0291/osu6415/.qchemrc.
molden_format             true

Checking the input file for inconsistencies... 	...done.

--------------------------------------------------------------
User input:
--------------------------------------------------------------
$molecule
0 1
C 0.28456454 1.13524300 0.55713849
C 0.57601790 -0.38599610 0.83006154
C -1.08559763 1.66802236 0.17899017
C -0.61781804 -1.32545579 0.73574191
O -1.99013035 0.74294275 -0.16529921
O -1.31533735 2.85574469 0.17487381
O -0.85298106 -1.79364290 -0.49932532
O -1.27189345 -1.63862047 1.70321033
C -2.01224221 -2.62841196 -0.64592829
C -3.29430276 1.23103667 -0.53500342
C 1.31833021 1.43828936 -0.58190155
C 2.70995857 1.59909023 0.05233197
C 3.01021418 0.12554600 0.44087162
C 1.78006919 -0.63265631 -0.14636509
O 1.42132565 0.19400254 -1.27405936
H 0.54658687 1.71860804 1.44020706
H 0.90209486 -0.49356512 1.86469481
H -2.90838649 -2.08375997 -0.34506180
H -3.74045833 1.78358937 0.29254227
H 3.41924610 1.96585932 -0.69133373
H 2.71209153 2.28897924 0.89797114
H 3.92425763 -0.23351652 -0.03394869
H 3.11133657 -0.02677709 1.51722917
H -2.05387416 -2.88304878 -1.70277936
H -1.92093358 -3.52842027 -0.03563713
H -3.87987790 0.34388914 -0.76455034
H -3.22171157 1.88069786 -1.40795064
H 1.01161677 2.22587769 -1.26604878
C 2.08500539 -2.05265720 -0.57313673
H 2.97816012 -2.06243904 -1.20162169
H 2.28151623 -2.67409202 0.30570003
H 1.25739730 -2.48535651 -1.12968543
$end

$rem
sym_ignore      true
jobtype         ts
method          b3lyp
basis           6-311++G(d,p)
dft_d           d3_op
mem_total       62000
MEM_STATIC      4000
ao2mo_disk      350000
max_scf_cycles  200
geom_opt_max_cycles 1000
geom_opt_tol_displacement 1
geom_opt_tol_gradient     1
geom_opt_tol_energy       1
$end

--------------------------------------------------------------
 Adding empirical dispersion correction 
 ----------------------------------------------------------------
 Doing -D3(op) with
 s6 =   1.00000
 s8 =   0.78311
 a1 =   0.30000
 a2 =   4.25000
 n  =  10.00000
 -D3 energy without 3body term =     -0.0362083430 hartrees
 ----------------------------------------------------------------
             Standard Nuclear Orientation (Angstroms)
    I     Atom           X                Y                Z
 ----------------------------------------------------------------
    1      C       0.2845645400     1.1352430000     0.5571384900
    2      C       0.5760179000    -0.3859961000     0.8300615400
    3      C      -1.0855976300     1.6680223600     0.1789901700
    4      C      -0.6178180400    -1.3254557900     0.7357419100
    5      O      -1.9901303500     0.7429427500    -0.1652992100
    6      O      -1.3153373500     2.8557446900     0.1748738100
    7      O      -0.8529810600    -1.7936429000    -0.4993253200
    8      O      -1.2718934500    -1.6386204700     1.7032103300
    9      C      -2.0122422100    -2.6284119600    -0.6459282900
   10      C      -3.2943027600     1.2310366700    -0.5350034200
   11      C       1.3183302100     1.4382893600    -0.5819015500
   12      C       2.7099585700     1.5990902300     0.0523319700
   13      C       3.0102141800     0.1255460000     0.4408716200
   14      C       1.7800691900    -0.6326563100    -0.1463650900
   15      O       1.4213256500     0.1940025400    -1.2740593600
   16      H       0.5465868700     1.7186080400     1.4402070600
   17      H       0.9020948600    -0.4935651200     1.8646948100
   18      H      -2.9083864900    -2.0837599700    -0.3450618000
   19      H      -3.7404583300     1.7835893700     0.2925422700
   20      H       3.4192461000     1.9658593200    -0.6913337300
   21      H       2.7120915300     2.2889792400     0.8979711400
   22      H       3.9242576300    -0.2335165200    -0.0339486900
   23      H       3.1113365700    -0.0267770900     1.5172291700
   24      H      -2.0538741600    -2.8830487800    -1.7027793600
   25      H      -1.9209335800    -3.5284202700    -0.0356371300
   26      H      -3.8798779000     0.3438891400    -0.7645503400
   27      H      -3.2217115700     1.8806978600    -1.4079506400
   28      H       1.0116167700     2.2258776900    -1.2660487800
   29      C       2.0850053900    -2.0526572000    -0.5731367300
   30      H       2.9781601200    -2.0624390400    -1.2016216900
   31      H       2.2815162300    -2.6740920200     0.3057000300
   32      H       1.2573973000    -2.4853565100    -1.1296854300
 ----------------------------------------------------------------
 Nuclear Repulsion Energy =  1256.9112885355 hartrees
 There are       61 alpha and       61 beta electrons
 Requested basis set is 6-311++G(d,p)
 There are 176 shells and 464 basis functions

 Total QAlloc Memory Limit  62000 MB
 Mega-Array Size      3911 MB
 MEM_STATIC part      4000 MB
 A cutoff of  1.0D-11 yielded  12816 shell pairs
 There are     90782 function pairs (     96869 Cartesian)
 
 -------------------------------------------------------
 OpenMP Integral Computing Module                       
 Release: version 1.0, May 2013, Q-Chem Inc. Pittsburgh 
 -------------------------------------------------------
 Integral Job Info:
 Integral job number is                      11
 Integral operator is                         1
 short-range coefficients                     0
 long-range coefficients              100000000
 Omega coefficients                           0
 if combine SR and LR in K                    0
 Integral screening is                        0
 Integral computing path is                   2
 max size of driver memory is            800000
 size of driver memory is                593474
 size of scratch memory is              2361544
 max col of scratch BK array               1296
 max len of scratch array in speh3          155
 max len of scratch index in speh4           18
 max int batch size is                      520
 min int batch size is                       52
 fixed nKL is                                52
 max L of basis functions is                  2
 order of int derivative is                   0
 number of shells is                        176
 number of basis is                         480
 number of cartesian basis is               480
 number of contracted shell pairs         12816
 number of primitive shell pairs          28537
 maxK2 (contraction) of shell pair           36
 max number of K2 of shell pair               1
 max number of CS2 of shell pair           2401
 max number of PS2 of shell pair           4110
 mem total for path MDJ                  660524
 -------------------------------------------------------
 Smallest overlap matrix eigenvalue = 1.07E-06

 Q-Chem warning in module /fs/scratch/osu6415/qchem-trunk-18Dec2017/stvman/mkSTV.C, line 295:

 Overlap eigenvalue is smaller than square root of threshold


 Scale SEOQF with 1.000000e-01/1.000000e-01/1.000000e-01

 Standard Electronic Orientation quadrupole field applied
 Nucleus-field energy     =     0.0000000312 hartrees
 Guess from superposition of atomic densities
 Warning:  Energy on first SCF cycle will be non-variational
 SAD guess density has 122.000000 electrons
 A restricted hybrid HF-DFT SCF calculation will be
 performed using Pulay DIIS extrapolation
 Exchange:     0.2000 Hartree-Fock + 0.0800 Slater + 0.7200 B88
 Correlation:  0.1900 VWN1RPA + 0.8100 LYP
 Using SG-1 standard quadrature grid
 Dispersion:   Grimme D3
 SCF converges when DIIS error is below 1.0E-08
 using 20 threads for integral computing
 -------------------------------------------------------
 OpenMP Integral computing Module                
 Release: version 1.0, May 2013, Q-Chem Inc. Pittsburgh 
 -------------------------------------------------------
 -------------------------------------------------------
 OpenMP BLAS3 based DFT computing Module                
 Release: version 1.0, May 2013, Q-Chem Inc. Pittsburgh 
 -------------------------------------------------------
 ---------------------------------------
  Cycle       Energy         DIIS Error
 ---------------------------------------
    1    -808.4379590350      2.93E-02
    2    -804.8633064812      3.83E-03
    3    -804.3667672078      6.36E-03
    4    -805.1410883264      1.49E-03
    5    -805.1865573063      3.96E-04
    6    -805.1891343677      1.60E-04
    7    -805.1896358749      3.54E-05
    8    -805.1896587026      1.24E-05
    9    -805.1896619452      2.69E-06
   10    -805.1896620609      1.27E-06
   11    -805.1896620905      4.08E-07
   12    -805.1896620933      1.80E-07
   13    -805.1896620933      4.08E-08
   14    -805.1896620935      1.33E-08
   15    -805.1896620971      3.24E-09 Convergence criterion met
 ---------------------------------------
 SCF time:  CPU 944.50 s  wall 51.51 s
 SCF   energy in the final basis set = -805.18966210
 Total energy in the final basis set = -805.18966210
 
 --------------------------------------------------------------
 
                    Orbital Energies (a.u.)
 --------------------------------------------------------------
 
 Alpha MOs
 -- Occupied --
-19.180 -19.170 -19.132 -19.117 -19.112 -10.311 -10.305 -10.244
-10.237 -10.234 -10.229 -10.209 -10.204 -10.180 -10.180 -10.166
 -1.123  -1.113  -1.064  -1.031  -1.024  -0.831  -0.795  -0.784
 -0.745  -0.731  -0.697  -0.655  -0.605  -0.594  -0.574  -0.568
 -0.531  -0.512  -0.509  -0.494  -0.491  -0.485  -0.476  -0.472
 -0.465  -0.441  -0.425  -0.424  -0.416  -0.412  -0.399  -0.386
 -0.379  -0.370  -0.366  -0.359  -0.358  -0.352  -0.339  -0.330
 -0.321  -0.308  -0.290  -0.282  -0.273
 -- Virtual --
 -0.017  -0.012  -0.006  -0.004   0.002   0.009   0.013   0.020
  0.028   0.031   0.033   0.039   0.044   0.045   0.049   0.055
  0.065   0.068   0.070   0.078   0.081   0.086   0.092   0.093
  0.101   0.103   0.104   0.109   0.110   0.112   0.118   0.122
  0.124   0.127   0.129   0.133   0.136   0.139   0.141   0.145
  0.148   0.151   0.155   0.156   0.157   0.159   0.163   0.166
  0.167   0.171   0.175   0.178   0.179   0.181   0.186   0.192
  0.194   0.198   0.204   0.206   0.207   0.212   0.216   0.220
  0.229   0.229   0.238   0.240   0.242   0.248   0.251   0.254
  0.267   0.271   0.273   0.278   0.285   0.287   0.292   0.294
  0.303   0.310   0.316   0.319   0.325   0.330   0.332   0.335
  0.337   0.345   0.347   0.354   0.359   0.361   0.364   0.366
  0.371   0.375   0.380   0.387   0.388   0.398   0.405   0.409
  0.413   0.421   0.431   0.434   0.441   0.445   0.458   0.473
  0.485   0.491   0.503   0.511   0.518   0.525   0.531   0.539
  0.548   0.551   0.563   0.584   0.587   0.591   0.597   0.615
  0.619   0.623   0.631   0.643   0.644   0.645   0.654   0.661
  0.665   0.677   0.683   0.692   0.700   0.707   0.712   0.720
  0.727   0.730   0.732   0.740   0.745   0.750   0.766   0.770
  0.779   0.780   0.786   0.790   0.810   0.817   0.822   0.837
  0.858   0.863   0.886   0.915   0.951   0.954   0.990   1.002
  1.012   1.021   1.042   1.051   1.057   1.079   1.102   1.122
  1.125   1.132   1.155   1.168   1.181   1.204   1.209   1.219
  1.236   1.242   1.251   1.264   1.272   1.280   1.293   1.304
  1.319   1.333   1.352   1.374   1.390   1.391   1.396   1.411
  1.418   1.434   1.441   1.453   1.467   1.485   1.493   1.501
  1.516   1.522   1.530   1.541   1.551   1.559   1.560   1.574
  1.582   1.595   1.598   1.608   1.621   1.640   1.656   1.667
  1.669   1.685   1.688   1.693   1.699   1.703   1.716   1.721
  1.724   1.741   1.742   1.757   1.763   1.793   1.799   1.813
  1.816   1.829   1.843   1.859   1.867   1.879   1.885   1.914
  1.930   1.936   1.940   1.964   1.987   1.987   2.002   2.018
  2.034   2.052   2.057   2.085   2.094   2.105   2.121   2.128
  2.132   2.158   2.163   2.188   2.199   2.206   2.227   2.243
  2.267   2.278   2.297   2.329   2.361   2.406   2.419   2.445
  2.452   2.464   2.475   2.490   2.493   2.500   2.516   2.521
  2.536   2.540   2.548   2.562   2.582   2.586   2.595   2.624
  2.634   2.643   2.664   2.671   2.685   2.708   2.734   2.759
  2.766   2.787   2.801   2.813   2.831   2.850   2.852   2.864
  2.871   2.883   2.895   2.910   2.947   2.954   2.963   3.009
  3.009   3.032   3.045   3.050   3.059   3.084   3.089   3.108
  3.130   3.135   3.147   3.171   3.175   3.199   3.228   3.242
  3.246   3.265   3.297   3.322   3.349   3.366   3.379   3.398
  3.443   3.575   3.605   3.618   3.654   3.682   3.741   3.773
  3.781   3.820   3.837   3.859   3.871   3.941   3.946   4.028
  4.037   4.050   4.080   4.122   4.156   4.164   4.168   4.188
  4.254   4.317   4.425   4.492   5.032   5.080   5.084   5.161
  5.228   5.245   5.252   5.436   5.452   5.510   5.623   5.643
  5.665   5.882   5.891  23.783  23.842  23.854  23.868  23.895
 23.932  23.951  23.953  23.963  23.989  24.042  49.916  49.945
 49.992  50.027  50.041
 --------------------------------------------------------------
 
          Ground-State Mulliken Net Atomic Charges

     Atom                 Charge (a.u.)
  ----------------------------------------
      1 C                    -0.694055
      2 C                     1.253237
      3 C                    -0.548144
      4 C                    -0.806483
      5 O                    -0.086724
      6 O                    -0.223790
      7 O                     0.040445
      8 O                    -0.158731
      9 C                    -0.209813
     10 C                    -0.180690
     11 C                     0.629818
     12 C                    -0.514288
     13 C                    -0.383046
     14 C                    -0.578242
     15 O                    -0.057719
     16 H                     0.234787
     17 H                     0.289485
     18 H                     0.176458
     19 H                     0.191991
     20 H                     0.186409
     21 H                     0.129060
     22 H                     0.159342
     23 H                     0.145553
     24 H                     0.161512
     25 H                     0.182044
     26 H                     0.126671
     27 H                     0.182678
     28 H                     0.287203
     29 C                    -0.426171
     30 H                     0.161310
     31 H                     0.154901
     32 H                     0.174988
  ----------------------------------------
  Sum of atomic charges =    -0.000000

 -----------------------------------------------------------------
                    Cartesian Multipole Moments
 -----------------------------------------------------------------
    Charge (ESU x 10^10)
                -0.0000
    Dipole Moment (Debye)
         X       0.5735      Y      -1.2598      Z      -0.8836
       Tot       1.6422
    Quadrupole Moments (Debye-Ang)
        XX     -82.6967     XY       2.8554     YY     -99.6575
        XZ       9.0722     YZ       3.5707     ZZ    -100.6710
    Octopole Moments (Debye-Ang^2)
       XXX     -49.8132    XXY       1.7173    XYY       3.7973
       YYY     -50.2093    XXZ     -13.7888    XYZ      -7.9577
       YYZ     -16.8438    XZZ      -3.2090    YZZ      12.5787
       ZZZ      -5.7321
    Hexadecapole Moments (Debye-Ang^3)
      XXXX   -2078.8279   XXXY     -32.6857   XXYY    -619.9098
      XYYY      77.0857   YYYY   -1699.9311   XXXZ      15.7253
      XXYZ       8.9864   XYYZ      23.2504   YYYZ      -0.2128
      XXZZ    -452.2979   XYZZ     -16.7045   YYZZ    -338.0963
      XZZZ      30.1627   YZZZ      17.7745   ZZZZ    -464.3840
 -----------------------------------------------------------------
 Calculating analytic gradient of the SCF energy
 Gradient of SCF Energy
            1           2           3           4           5           6
    1   0.0000823  -0.0000533   0.0000739  -0.0000828   0.0000245  -0.0000741
    2  -0.0000845   0.0000139  -0.0000098   0.0001366  -0.0000170   0.0000091
    3  -0.0002977   0.0003412  -0.0002459  -0.0000726   0.0000153   0.0002254
            7           8           9          10          11          12
    1   0.0000108   0.0000591  -0.0000154  -0.0000326  -0.0000112  -0.0000099
    2   0.0000104  -0.0001023  -0.0000187   0.0000100   0.0000222  -0.0000120
    3  -0.0000022   0.0000312  -0.0000096  -0.0000162   0.0000222   0.0000356
           13          14          15          16          17          18
    1   0.0000044   0.0000004   0.0000122  -0.0000426   0.0000160   0.0000054
    2   0.0000095   0.0000082  -0.0000141   0.0000061   0.0000089  -0.0000014
    3   0.0000360  -0.0000952   0.0000291   0.0000180  -0.0000054  -0.0000111
           19          20          21          22          23          24
    1  -0.0000002  -0.0000102   0.0000043   0.0000067  -0.0000126   0.0000107
    2  -0.0000102  -0.0000176   0.0000160   0.0000149  -0.0000082   0.0000007
    3  -0.0000036  -0.0000082   0.0000005   0.0000080   0.0000045  -0.0000090
           25          26          27          28          29          30
    1   0.0000068   0.0000054   0.0000039   0.0000025  -0.0000048   0.0000139
    2  -0.0000001  -0.0000079  -0.0000035   0.0000201   0.0000258   0.0000026
    3  -0.0000087  -0.0000094  -0.0000009   0.0000234  -0.0000320   0.0000170
           31          32
    1   0.0000029   0.0000040
    2  -0.0000042  -0.0000036
    3   0.0000048   0.0000154
 Max gradient component =       3.412E-04
 RMS gradient           =       6.584E-05
 Gradient time:  CPU 313.91 s  wall 29.03 s
 Geometry Optimization Parameters
   NAtoms,    NIC,     NZ,  NCons,   NDum,   NFix, NCnnct, MaxDiis
       32     251       0       0       0       0       0       0


** GEOMETRY OPTIMIZATION IN DELOCALIZED INTERNAL COORDINATES **
   Searching for a Transition State

   Optimization Cycle:   1

                       Coordinates (Angstroms)
     ATOM                X               Y               Z
      1  C         0.2845645400    1.1352430000    0.5571384900
      2  C         0.5760179000   -0.3859961000    0.8300615400
      3  C        -1.0855976300    1.6680223600    0.1789901700
      4  C        -0.6178180400   -1.3254557900    0.7357419100
      5  O        -1.9901303500    0.7429427500   -0.1652992100
      6  O        -1.3153373500    2.8557446900    0.1748738100
      7  O        -0.8529810600   -1.7936429000   -0.4993253200
      8  O        -1.2718934500   -1.6386204700    1.7032103300
      9  C        -2.0122422100   -2.6284119600   -0.6459282900
     10  C        -3.2943027600    1.2310366700   -0.5350034200
     11  C         1.3183302100    1.4382893600   -0.5819015500
     12  C         2.7099585700    1.5990902300    0.0523319700
     13  C         3.0102141800    0.1255460000    0.4408716200
     14  C         1.7800691900   -0.6326563100   -0.1463650900
     15  O         1.4213256500    0.1940025400   -1.2740593600
     16  H         0.5465868700    1.7186080400    1.4402070600
     17  H         0.9020948600   -0.4935651200    1.8646948100
     18  H        -2.9083864900   -2.0837599700   -0.3450618000
     19  H        -3.7404583300    1.7835893700    0.2925422700
     20  H         3.4192461000    1.9658593200   -0.6913337300
     21  H         2.7120915300    2.2889792400    0.8979711400
     22  H         3.9242576300   -0.2335165200   -0.0339486900
     23  H         3.1113365700   -0.0267770900    1.5172291700
     24  H        -2.0538741600   -2.8830487800   -1.7027793600
     25  H        -1.9209335800   -3.5284202700   -0.0356371300
     26  H        -3.8798779000    0.3438891400   -0.7645503400
     27  H        -3.2217115700    1.8806978600   -1.4079506400
     28  H         1.0116167700    2.2258776900   -1.2660487800
     29  C         2.0850053900   -2.0526572000   -0.5731367300
     30  H         2.9781601200   -2.0624390400   -1.2016216900
     31  H         2.2815162300   -2.6740920200    0.3057000300
     32  H         1.2573973000   -2.4853565100   -1.1296854300
   Point Group: c1    Number of degrees of freedom:    90


   Energy is   -805.189662097


 Attempting to Generate Delocalized Internal Coordinates

 90 Hessian modes will be used to form the next step
  Hessian Eigenvalues:
     0.003047    0.006258    0.006803    0.007103    0.007356    0.010254
     0.010645    0.010878    0.011205    0.022647    0.023371    0.023736
     0.025299    0.032462    0.035866    0.036374    0.040899    0.042981
     0.047768    0.049112    0.051955    0.054027    0.056728    0.057839
     0.058826    0.059937    0.063660    0.064771    0.066386    0.073926
     0.080897    0.093034    0.098483    0.101350    0.101381    0.106054
     0.106063    0.106711    0.121470    0.123788    0.156022    0.160000
     0.160000    0.160000    0.160000    0.160000    0.160000    0.160000
     0.160000    0.160000    0.173820    0.233477    0.235292    0.249945
     0.249970    0.250000    0.250000    0.250000    0.250000    0.250353
     0.253885    0.260928    0.279763    0.301672    0.305642    0.309739
     0.333293    0.343381    0.345642    0.346083    0.346565    0.346696
     0.346780    0.346994    0.347198    0.347456    0.347543    0.347766
     0.347987    0.350575    0.351051    0.351155    0.351433    0.351602
     0.394817    0.401332    0.568478    0.574662    1.000754    1.003884
**WARNING** Hessian does not have the Desired Local Structure

 Transition State Search - Taking P-RFO Step
 Searching for Lamda that Maximizes Along the Lowest mode
 Value Taken    Lamda =   0.00304671
 Searching for Lamda that Minimizes Along All other modes
 Value Taken    Lamda =  -0.00001043
 Calculated Step too Large.  Step scaled by  0.002168
 Step Taken.  Stepsize is  0.300000

                             Maximum     Tolerance    Cnvgd?
         Gradient           0.000128      0.000001      NO
         Displacement       0.112324      0.000001      NO
         Energy change     *********      0.000000      NO


 New Cartesian Coordinates Obtained by Inverse Iteration

 Displacement from previous Coordinates is:  0.781655
 Adding empirical dispersion correction 
 ----------------------------------------------------------------
 Doing -D3(op) with
 s6 =   1.00000
 s8 =   0.78311
 a1 =   0.30000
 a2 =   4.25000
 n  =  10.00000
 -D3 energy without 3body term =     -0.0362500318 hartrees
 ----------------------------------------------------------------
             Standard Nuclear Orientation (Angstroms)
    I     Atom           X                Y                Z
 ----------------------------------------------------------------
    1      C       0.2792581780     1.1481289685     0.5667175512
    2      C       0.5862524675    -0.3709961834     0.8337240676
    3      C      -1.0888958671     1.6634797123     0.1583517603
    4      C      -0.6039007912    -1.3178490536     0.7726516277
    5      O      -1.9709900340     0.7277045972    -0.2141019129
    6      O      -1.3359105390     2.8477350749     0.1562214541
    7      O      -0.8667835184    -1.7923372474    -0.4543958507
    8      O      -1.2319209001    -1.6309961592     1.7572385843
    9      C      -2.0242998729    -2.6345015798    -0.5689960950
   10      C      -3.2727262134     1.1992794731    -0.6127024962
   11      C       1.3340292913     1.4712697857    -0.5456811392
   12      C       2.7196439794     1.5945088506     0.1124944377
   13      C       3.0225869383     0.1021235005     0.4187250061
   14      C       1.7704567736    -0.6165028993    -0.1686249152
   15      O       1.4214958219     0.2458886998    -1.2725840666
   16      H       0.5113110951     1.7291003918     1.4596924494
   17      H       0.9376647309    -0.4734429641     1.8605528600
   18      H      -2.9159610628    -2.0939443722    -0.2480923172
   19      H      -3.7471573312     1.7396343119     0.2071346352
   20      H       3.4363707922     2.0055768973    -0.6002276540
   21      H       2.7110392297     2.2344215360     0.9965163284
   22      H       3.9185440704    -0.2371872604    -0.1027964742
   23      H       3.1564693891    -0.1052208287     1.4822368617
   24      H      -2.0905783362    -2.8935930297    -1.6235036127
   25      H      -1.9125086987    -3.5315146264     0.0422958688
   26      H      -3.8393707866     0.3052904455    -0.8623388721
   27      H      -3.1882777510     1.8558578156    -1.4793854537
   28      H       1.0474557971     2.2838466198    -1.2090215230
   29      C       2.0411054132    -2.0314125585    -0.6337084271
   30      H       2.9260262076    -2.0436508623    -1.2736926614
   31      H       2.2357857705    -2.6780815062     0.2271461337
   32      H       1.1980304867    -2.4336133393    -1.1899183950
 ----------------------------------------------------------------
 Nuclear Repulsion Energy =  1257.2733383966 hartrees
 There are       61 alpha and       61 beta electrons
 Applying Cartesian multipole field
    Component          Value
    ---------          -----
     (2,0,0)        1.00000E-11
     (0,2,0)        2.00000E-11
     (0,0,2)       -3.00000E-11
 Nucleus-field energy     =     0.0000000309 hartrees
 Requested basis set is 6-311++G(d,p)
 There are 176 shells and 464 basis functions
 A cutoff of  1.0D-11 yielded  12824 shell pairs
 There are     90795 function pairs (     96887 Cartesian)
 Smallest overlap matrix eigenvalue = 1.07E-06

 Q-Chem warning in module /fs/scratch/osu6415/qchem-trunk-18Dec2017/stvman/mkSTV.C, line 295:

 Overlap eigenvalue is smaller than square root of threshold

 Guess MOs from SCF MO coefficient file
 Reading MOs from coefficient file
 Reading MOs from coefficient file
 A restricted hybrid HF-DFT SCF calculation will be
 performed using Pulay DIIS extrapolation
 Exchange:     0.2000 Hartree-Fock + 0.0800 Slater + 0.7200 B88
 Correlation:  0.1900 VWN1RPA + 0.8100 LYP
 Using SG-1 standard quadrature grid
 Dispersion:   Grimme D3
 SCF converges when DIIS error is below 1.0E-08
 Geometry optimization detected.  Setting ReadMinima to 0
 Setting SaveMinima to 0
 using 20 threads for integral computing
 -------------------------------------------------------
 OpenMP Integral computing Module                
 Release: version 1.0, May 2013, Q-Chem Inc. Pittsburgh 
 -------------------------------------------------------
 -------------------------------------------------------
 OpenMP BLAS3 based DFT computing Module                
 Release: version 1.0, May 2013, Q-Chem Inc. Pittsburgh 
 -------------------------------------------------------
 ---------------------------------------
  Cycle       Energy         DIIS Error
 ---------------------------------------
    1    -805.2047491154      1.03E-03
    2    -805.1886196212      1.82E-04
    3    -805.1878063617      2.72E-04
    4    -805.1894524966      5.11E-05
    5    -805.1894911091      2.38E-05
    6    -805.1895016212      5.44E-06
    7    -805.1895021175      2.20E-06
    8    -805.1895022157      5.57E-07
    9    -805.1895022226      1.59E-07
   10    -805.1895022224      4.94E-08
   11    -805.1895022232      1.76E-08
   12    -805.1895022240      5.87E-09 Convergence criterion met
 ---------------------------------------
 SCF time:  CPU 774.33 s  wall 41.72 s
 SCF   energy in the final basis set = -805.18950222
 Total energy in the final basis set = -805.18950222
 
 --------------------------------------------------------------
 
                    Orbital Energies (a.u.)
 --------------------------------------------------------------
 
 Alpha MOs
 -- Occupied --
-19.180 -19.170 -19.132 -19.117 -19.112 -10.311 -10.305 -10.243
-10.237 -10.234 -10.229 -10.209 -10.205 -10.180 -10.180 -10.166
 -1.123  -1.113  -1.064  -1.031  -1.025  -0.831  -0.795  -0.783
 -0.745  -0.731  -0.697  -0.655  -0.605  -0.595  -0.574  -0.568
 -0.531  -0.512  -0.509  -0.494  -0.491  -0.486  -0.476  -0.472
 -0.465  -0.441  -0.425  -0.424  -0.417  -0.412  -0.399  -0.386
 -0.379  -0.370  -0.366  -0.359  -0.358  -0.352  -0.340  -0.330
 -0.321  -0.308  -0.290  -0.282  -0.273
 -- Virtual --
 -0.017  -0.012  -0.006  -0.004   0.002   0.009   0.013   0.020
  0.027   0.031   0.033   0.039   0.044   0.045   0.049   0.055
  0.065   0.068   0.070   0.078   0.082   0.086   0.092   0.093
  0.101   0.102   0.104   0.108   0.110   0.112   0.119   0.122
  0.124   0.127   0.129   0.133   0.136   0.140   0.141   0.145
  0.148   0.151   0.155   0.156   0.157   0.159   0.163   0.166
  0.168   0.171   0.175   0.178   0.180   0.182   0.185   0.192
  0.194   0.199   0.203   0.205   0.208   0.213   0.216   0.221
  0.228   0.229   0.237   0.240   0.242   0.249   0.251   0.254
  0.268   0.269   0.273   0.277   0.285   0.288   0.294   0.295
  0.304   0.310   0.317   0.319   0.325   0.329   0.332   0.335
  0.337   0.346   0.347   0.353   0.358   0.361   0.364   0.367
  0.371   0.375   0.379   0.386   0.388   0.398   0.402   0.406
  0.413   0.421   0.431   0.433   0.442   0.446   0.458   0.477
  0.486   0.491   0.504   0.513   0.517   0.527   0.531   0.537
  0.548   0.550   0.564   0.585   0.586   0.590   0.597   0.615
  0.617   0.623   0.631   0.644   0.645   0.646   0.654   0.661
  0.664   0.679   0.682   0.691   0.698   0.707   0.712   0.718
  0.728   0.729   0.732   0.740   0.746   0.752   0.768   0.771
  0.778   0.780   0.789   0.790   0.810   0.815   0.822   0.837
  0.858   0.862   0.887   0.917   0.952   0.955   0.990   0.999
  1.010   1.022   1.040   1.053   1.060   1.081   1.102   1.122
  1.124   1.134   1.154   1.168   1.178   1.204   1.206   1.218
  1.237   1.241   1.251   1.263   1.272   1.280   1.294   1.307
  1.317   1.333   1.353   1.374   1.386   1.390   1.394   1.410
  1.421   1.435   1.444   1.455   1.472   1.490   1.495   1.503
  1.514   1.525   1.532   1.547   1.549   1.559   1.560   1.575
  1.583   1.596   1.599   1.609   1.621   1.638   1.653   1.664
  1.671   1.686   1.689   1.694   1.699   1.702   1.716   1.721
  1.726   1.737   1.741   1.756   1.767   1.789   1.800   1.813
  1.815   1.829   1.849   1.856   1.867   1.878   1.887   1.915
  1.927   1.933   1.942   1.964   1.985   1.992   2.002   2.016
  2.034   2.051   2.058   2.079   2.092   2.106   2.122   2.129
  2.134   2.156   2.160   2.182   2.200   2.206   2.227   2.244
  2.269   2.275   2.297   2.332   2.360   2.405   2.420   2.445
  2.452   2.464   2.472   2.489   2.494   2.500   2.517   2.521
  2.536   2.543   2.549   2.560   2.584   2.587   2.597   2.625
  2.635   2.644   2.665   2.672   2.685   2.708   2.735   2.761
  2.763   2.785   2.804   2.811   2.833   2.845   2.851   2.862
  2.873   2.886   2.895   2.910   2.947   2.959   2.962   3.010
  3.012   3.029   3.046   3.048   3.059   3.085   3.089   3.106
  3.125   3.142   3.147   3.171   3.179   3.191   3.226   3.243
  3.248   3.265   3.296   3.321   3.349   3.362   3.379   3.397
  3.445   3.575   3.604   3.615   3.654   3.684   3.734   3.774
  3.780   3.820   3.838   3.858   3.871   3.941   3.948   4.029
  4.034   4.047   4.080   4.119   4.155   4.163   4.169   4.188
  4.254   4.316   4.426   4.492   5.034   5.080   5.085   5.161
  5.226   5.244   5.251   5.435   5.454   5.508   5.622   5.644
  5.665   5.881   5.891  23.784  23.843  23.854  23.868  23.894
 23.933  23.950  23.951  23.965  23.991  24.043  49.916  49.942
 49.992  50.025  50.042
 --------------------------------------------------------------
 
          Ground-State Mulliken Net Atomic Charges

     Atom                 Charge (a.u.)
  ----------------------------------------
      1 C                    -0.629554
      2 C                     1.231357
      3 C                    -0.622781
      4 C                    -0.744071
      5 O                    -0.090413
      6 O                    -0.224310
      7 O                     0.050450
      8 O                    -0.158757
      9 C                    -0.217232
     10 C                    -0.183467
     11 C                     0.621301
     12 C                    -0.472173
     13 C                    -0.436376
     14 C                    -0.587202
     15 O                    -0.056365
     16 H                     0.234375
     17 H                     0.292632
     18 H                     0.175352
     19 H                     0.192069
     20 H                     0.187909
     21 H                     0.127778
     22 H                     0.161000
     23 H                     0.141341
     24 H                     0.160767
     25 H                     0.183186
     26 H                     0.126753
     27 H                     0.182159
     28 H                     0.285877
     29 C                    -0.425789
     30 H                     0.160968
     31 H                     0.154840
     32 H                     0.178378
  ----------------------------------------
  Sum of atomic charges =    -0.000000

 -----------------------------------------------------------------
                    Cartesian Multipole Moments
 -----------------------------------------------------------------
    Charge (ESU x 10^10)
                -0.0000
    Dipole Moment (Debye)
         X       0.5626      Y      -1.3184      Z      -0.9124
       Tot       1.6992
    Quadrupole Moments (Debye-Ang)
        XX     -82.7129     XY       3.2563     YY     -99.5329
        XZ       9.0958     YZ       3.6741     ZZ    -100.9668
    Octopole Moments (Debye-Ang^2)
       XXX     -50.0513    XXY       0.2717    XYY       3.9338
       YYY     -50.6933    XXZ     -14.1442    XYZ      -7.2190
       YYZ     -16.6935    XZZ      -3.2874    YZZ      12.6264
       ZZZ      -7.4028
    Hexadecapole Moments (Debye-Ang^3)
      XXXX   -2073.0859   XXXY     -34.9355   XXYY    -618.0912
      XYYY      73.0781   YYYY   -1690.5172   XXXZ      13.3275
      XXYZ       9.4940   XYYZ      20.9198   YYYZ       4.7200
      XXZZ    -450.9554   XYZZ     -20.4057   YYZZ    -339.6470
      XZZZ      27.9334   YZZZ      26.3674   ZZZZ    -476.5480
 -----------------------------------------------------------------
 Calculating analytic gradient of the SCF energy
 Gradient of SCF Energy
            1           2           3           4           5           6
    1  -0.0007669   0.0007950   0.0002227  -0.0002552   0.0002700  -0.0001366
    2  -0.0006220   0.0004151  -0.0000886  -0.0001172  -0.0003202   0.0000368
    3  -0.0011106   0.0015193   0.0001069   0.0002033  -0.0003900   0.0002144
            7           8           9          10          11          12
    1   0.0000713   0.0004641  -0.0001132  -0.0001218   0.0011785  -0.0005994
    2   0.0006308  -0.0003204  -0.0001114  -0.0000821   0.0002073   0.0001707
    3  -0.0003882  -0.0000252  -0.0000183  -0.0000674  -0.0005724   0.0009267
           13          14          15          16          17          18
    1   0.0006926  -0.0014065   0.0000448   0.0000611  -0.0000393   0.0000163
    2   0.0000238   0.0004034   0.0002129  -0.0000179  -0.0000673  -0.0000336
    3  -0.0007796   0.0000415  -0.0001037  -0.0001176   0.0001585  -0.0000208
           19          20          21          22          23          24
    1   0.0000398  -0.0001193   0.0000058   0.0001322   0.0001615   0.0000191
    2  -0.0000372  -0.0002227   0.0000094   0.0000283  -0.0001360   0.0000280
    3  -0.0000144  -0.0001906   0.0001996   0.0002169  -0.0000639   0.0000025
           25          26          27          28          29          30
    1   0.0000543  -0.0000048   0.0000381  -0.0000588  -0.0002966  -0.0000993
    2   0.0000184   0.0000058   0.0000110   0.0000033   0.0000154  -0.0000511
    3   0.0000084   0.0000569  -0.0000133  -0.0000144   0.0003801  -0.0000836
           31          32
    1   0.0000682  -0.0003178
    2   0.0000431  -0.0000358
    3   0.0000181  -0.0000789
 Max gradient component =       1.519E-03
 RMS gradient           =       3.793E-04
 Gradient time:  CPU 312.11 s  wall 24.26 s
 Geometry Optimization Parameters
   NAtoms,    NIC,     NZ,  NCons,   NDum,   NFix, NCnnct, MaxDiis
       32     251       0       0       0       0       0       0

 Cartesian Hessian Update
 Hessian Updated using Powell/Murtagh-Sargent Update
  Mixing factors:     0.000020 Powell
                      0.999980 Murtagh-Sargent


** GEOMETRY OPTIMIZATION IN DELOCALIZED INTERNAL COORDINATES **
   Searching for a Transition State

   Optimization Cycle:   2

                       Coordinates (Angstroms)
     ATOM                X               Y               Z
      1  C         0.2792581780    1.1481289685    0.5667175512
      2  C         0.5862524675   -0.3709961834    0.8337240676
      3  C        -1.0888958671    1.6634797123    0.1583517603
      4  C        -0.6039007912   -1.3178490536    0.7726516277
      5  O        -1.9709900340    0.7277045972   -0.2141019129
      6  O        -1.3359105390    2.8477350749    0.1562214541
      7  O        -0.8667835184   -1.7923372474   -0.4543958507
      8  O        -1.2319209001   -1.6309961592    1.7572385843
      9  C        -2.0242998729   -2.6345015798   -0.5689960950
     10  C        -3.2727262134    1.1992794731   -0.6127024962
     11  C         1.3340292913    1.4712697857   -0.5456811392
     12  C         2.7196439794    1.5945088506    0.1124944377
     13  C         3.0225869383    0.1021235005    0.4187250061
     14  C         1.7704567736   -0.6165028993   -0.1686249152
     15  O         1.4214958219    0.2458886998   -1.2725840666
     16  H         0.5113110951    1.7291003918    1.4596924494
     17  H         0.9376647309   -0.4734429641    1.8605528600
     18  H        -2.9159610628   -2.0939443722   -0.2480923172
     19  H        -3.7471573312    1.7396343119    0.2071346352
     20  H         3.4363707922    2.0055768973   -0.6002276540
     21  H         2.7110392297    2.2344215360    0.9965163284
     22  H         3.9185440704   -0.2371872604   -0.1027964742
     23  H         3.1564693891   -0.1052208287    1.4822368617
     24  H        -2.0905783362   -2.8935930297   -1.6235036127
     25  H        -1.9125086987   -3.5315146264    0.0422958688
     26  H        -3.8393707866    0.3052904455   -0.8623388721
     27  H        -3.1882777510    1.8558578156   -1.4793854537
     28  H         1.0474557971    2.2838466198   -1.2090215230
     29  C         2.0411054132   -2.0314125585   -0.6337084271
     30  H         2.9260262076   -2.0436508623   -1.2736926614
     31  H         2.2357857705   -2.6780815062    0.2271461337
     32  H         1.1980304867   -2.4336133393   -1.1899183950
   Point Group: c1    Number of degrees of freedom:    90


   Energy is   -805.189502224

 Hessian Updated using Powell/Murtagh-Sargent Update
  Mixing factors:     0.999923 Powell
                      0.000077 Murtagh-Sargent

 81 Hessian modes will be used to form the next step
  Hessian Eigenvalues:
     0.000148    0.006643    0.007054    0.007300    0.007869    0.010259
     0.010646    0.010878    0.011389    0.022739    0.023383    0.023738
     0.025388    0.032466    0.035918    0.036586    0.040942    0.043012
     0.047798    0.049147    0.051961    0.054037    0.056733    0.057839
     0.058997    0.059939    0.063663    0.064772    0.066387    0.073969
     0.080973    0.093050    0.098491    0.101350    0.101381    0.106054
     0.106063    0.106714    0.121477    0.123795    0.156025    0.160000
     0.160005    0.173899    0.233498    0.235301    0.249946    0.249970
     0.250000    0.250059    0.250363    0.253897    0.260929    0.279763
     0.301674    0.305646    0.309739    0.333293    0.343381    0.345642
     0.346083    0.346565    0.346696    0.346780    0.346994    0.347198
     0.347456    0.347543    0.347766    0.347987    0.350575    0.351051
     0.351155    0.351435    0.351606    0.394817    0.401332    0.568478
     0.574662    1.000754    1.003884
**WARNING** Hessian does not have the Desired Local Structure

 Transition State Search - Taking P-RFO Step
 Searching for Lamda that Maximizes Along the Lowest mode
 Value Taken    Lamda =   0.00014776
 Searching for Lamda that Minimizes Along All other modes
 Value Taken    Lamda =  -0.00029296
 Calculated Step too Large.  Step scaled by  0.004087
 Step Taken.  Stepsize is  0.300000

                             Maximum     Tolerance    Cnvgd?
         Gradient           0.001691      0.000001      NO
         Displacement       0.111657      0.000001      NO
         Energy change      0.000160      0.000000      NO


 New Cartesian Coordinates Obtained by Inverse Iteration

 Displacement from previous Coordinates is:  0.671757
 Adding empirical dispersion correction 
 ----------------------------------------------------------------
 Doing -D3(op) with
 s6 =   1.00000
 s8 =   0.78311
 a1 =   0.30000
 a2 =   4.25000
 n  =  10.00000
 -D3 energy without 3body term =     -0.0364271645 hartrees
 ----------------------------------------------------------------
             Standard Nuclear Orientation (Angstroms)
    I     Atom           X                Y                Z
 ----------------------------------------------------------------
    1      C       0.2865667554     1.1357721556     0.5708716022
    2      C       0.5871833016    -0.3822080942     0.8475485790
    3      C      -1.0881193747     1.6532289003     0.1903527388
    4      C      -0.6042418453    -1.3244494735     0.7565888893
    5      O      -1.9694739040     0.7182644569    -0.1865729052
    6      O      -1.3343958143     2.8376590107     0.1918525085
    7      O      -0.8766524294    -1.7429564572    -0.4887598158
    8      O      -1.2251460934    -1.6788454691     1.7315449977
    9      C      -2.0333607835    -2.5819384338    -0.6322421769
   10      C      -3.2745360324     1.1889804681    -0.5751845874
   11      C       1.3170528227     1.4441929141    -0.5706483797
   12      C       2.7128584942     1.6004542178     0.0558761778
   13      C       3.0171010482     0.1243303979     0.4319319744
   14      C       1.7772726984    -0.6276437945    -0.1439077517
   15      O       1.4116774855     0.2022756848    -1.2671682042
   16      H       0.5462377292     1.7225926048     1.4521758544
   17      H       0.9218763324    -0.4923538820     1.8793606414
   18      H      -2.9234841851    -2.0594613037    -0.2788910591
   19      H      -3.7454787409     1.7231581717     0.2506117227
   20      H       3.4148762493     1.9675809373    -0.6944138738
   21      H       2.7251296310     2.2871071810     0.9043364938
   22      H       3.9270955449    -0.2339195942    -0.0511950777
   23      H       3.1275289559    -0.0334178716     1.5065715158
   24      H      -2.1082061186    -2.7919373455    -1.6970249958
   25      H      -1.9137446988    -3.5059360216    -0.0641611678
   26      H      -3.8405408900     0.2951967490    -0.8268719094
   27      H      -3.1962347737     1.8511014022    -1.4382683010
   28      H       1.0062594132     2.2339077854    -1.2505431960
   29      C       2.0674716826    -2.0491024319    -0.5753061556
   30      H       2.9486490280    -2.0645374492    -1.2202862173
   31      H       2.2762619120    -2.6711097125     0.3002848778
   32      H       1.2267613296    -2.4769834932    -1.1165350390
 ----------------------------------------------------------------
 Nuclear Repulsion Energy =  1259.1787627802 hartrees
 There are       61 alpha and       61 beta electrons
 Applying Cartesian multipole field
    Component          Value
    ---------          -----
     (2,0,0)        1.00000E-11
     (0,2,0)        2.00000E-11
     (0,0,2)       -3.00000E-11
 Nucleus-field energy     =     0.0000000307 hartrees
 Requested basis set is 6-311++G(d,p)
 There are 176 shells and 464 basis functions
 A cutoff of  1.0D-11 yielded  12837 shell pairs
 There are     90977 function pairs (     97086 Cartesian)
 Smallest overlap matrix eigenvalue = 1.07E-06

 Q-Chem warning in module /fs/scratch/osu6415/qchem-trunk-18Dec2017/stvman/mkSTV.C, line 295:

 Overlap eigenvalue is smaller than square root of threshold

 Guess MOs from SCF MO coefficient file
 Reading MOs from coefficient file
 Reading MOs from coefficient file
 A restricted hybrid HF-DFT SCF calculation will be
 performed using Pulay DIIS extrapolation
 Exchange:     0.2000 Hartree-Fock + 0.0800 Slater + 0.7200 B88
 Correlation:  0.1900 VWN1RPA + 0.8100 LYP
 Using SG-1 standard quadrature grid
 Dispersion:   Grimme D3
 SCF converges when DIIS error is below 1.0E-08
 Geometry optimization detected.  Setting ReadMinima to 0
 Setting SaveMinima to 0
 using 20 threads for integral computing
 -------------------------------------------------------
 OpenMP Integral computing Module                
 Release: version 1.0, May 2013, Q-Chem Inc. Pittsburgh 
 -------------------------------------------------------
 -------------------------------------------------------
 OpenMP BLAS3 based DFT computing Module                
 Release: version 1.0, May 2013, Q-Chem Inc. Pittsburgh 
 -------------------------------------------------------
 ---------------------------------------
  Cycle       Energy         DIIS Error
 ---------------------------------------
    1    -805.1663466833      9.13E-04
    2    -805.1887527607      1.48E-04
    3    -805.1882506609      2.18E-04
    4    -805.1893052830      4.96E-05
    5    -805.1893457266      1.80E-05
    6    -805.1893516467      5.15E-06
    7    -805.1893521181      1.88E-06
    8    -805.1893521866      6.01E-07
    9    -805.1893521943      1.26E-07
   10    -805.1893521953      4.98E-08
   11    -805.1893521960      2.11E-08
   12    -805.1893521936      8.81E-09 Convergence criterion met
 ---------------------------------------
 SCF time:  CPU 775.98 s  wall 41.24 s
 SCF   energy in the final basis set = -805.18935219
 Total energy in the final basis set = -805.18935219
 
 --------------------------------------------------------------
 
                    Orbital Energies (a.u.)
 --------------------------------------------------------------
 
 Alpha MOs
 -- Occupied --
-19.180 -19.169 -19.132 -19.117 -19.112 -10.311 -10.305 -10.244
-10.238 -10.234 -10.228 -10.209 -10.204 -10.181 -10.180 -10.167
 -1.123  -1.112  -1.065  -1.031  -1.024  -0.831  -0.795  -0.784
 -0.745  -0.731  -0.697  -0.655  -0.605  -0.595  -0.574  -0.568
 -0.531  -0.512  -0.509  -0.494  -0.490  -0.485  -0.476  -0.472
 -0.465  -0.441  -0.425  -0.424  -0.416  -0.413  -0.399  -0.386
 -0.380  -0.369  -0.366  -0.360  -0.358  -0.352  -0.339  -0.330
 -0.321  -0.307  -0.290  -0.282  -0.273
 -- Virtual --
 -0.017  -0.012  -0.006  -0.004   0.002   0.009   0.013   0.020
  0.027   0.031   0.033   0.039   0.044   0.046   0.049   0.054
  0.065   0.068   0.070   0.078   0.081   0.086   0.093   0.093
  0.101   0.103   0.104   0.108   0.110   0.112   0.118   0.122
  0.124   0.127   0.129   0.132   0.136   0.139   0.141   0.145
  0.148   0.151   0.155   0.156   0.157   0.159   0.163   0.166
  0.167   0.171   0.175   0.177   0.180   0.181   0.186   0.192
  0.195   0.198   0.203   0.205   0.208   0.213   0.217   0.220
  0.229   0.229   0.237   0.239   0.243   0.248   0.251   0.254
  0.268   0.270   0.273   0.279   0.284   0.288   0.293   0.294
  0.303   0.310   0.317   0.319   0.325   0.329   0.333   0.335
  0.337   0.346   0.347   0.354   0.360   0.361   0.365   0.366
  0.371   0.375   0.379   0.387   0.389   0.398   0.404   0.410
  0.413   0.421   0.430   0.433   0.443   0.446   0.459   0.478
  0.487   0.493   0.504   0.513   0.517   0.525   0.531   0.538
  0.548   0.552   0.561   0.585   0.587   0.591   0.597   0.617
  0.618   0.623   0.631   0.643   0.645   0.647   0.654   0.661
  0.665   0.678   0.682   0.691   0.699   0.708   0.713   0.720
  0.728   0.729   0.733   0.740   0.746   0.750   0.765   0.768
  0.779   0.781   0.788   0.791   0.810   0.816   0.822   0.838
  0.859   0.861   0.886   0.915   0.950   0.954   0.994   1.001
  1.014   1.020   1.042   1.051   1.062   1.080   1.104   1.121
  1.126   1.135   1.155   1.168   1.179   1.206   1.211   1.218
  1.236   1.239   1.251   1.261   1.273   1.282   1.292   1.303
  1.320   1.332   1.353   1.374   1.387   1.389   1.399   1.411
  1.419   1.435   1.448   1.460   1.475   1.490   1.495   1.503
  1.517   1.522   1.530   1.543   1.550   1.559   1.561   1.574
  1.584   1.595   1.599   1.608   1.622   1.640   1.655   1.668
  1.671   1.686   1.689   1.695   1.700   1.703   1.716   1.720
  1.727   1.742   1.743   1.756   1.767   1.791   1.801   1.812
  1.816   1.829   1.844   1.858   1.867   1.880   1.886   1.917
  1.930   1.940   1.941   1.963   1.986   1.988   2.002   2.018
  2.033   2.053   2.058   2.085   2.095   2.105   2.122   2.126
  2.133   2.158   2.161   2.188   2.198   2.207   2.227   2.243
  2.267   2.276   2.296   2.328   2.363   2.407   2.418   2.444
  2.453   2.465   2.474   2.490   2.494   2.500   2.517   2.521
  2.537   2.542   2.549   2.564   2.584   2.588   2.594   2.624
  2.634   2.644   2.664   2.672   2.687   2.709   2.735   2.760
  2.763   2.786   2.803   2.813   2.832   2.848   2.854   2.863
  2.871   2.883   2.895   2.907   2.948   2.954   2.963   3.008
  3.010   3.031   3.048   3.052   3.060   3.081   3.091   3.109
  3.129   3.136   3.146   3.171   3.175   3.199   3.226   3.243
  3.247   3.267   3.297   3.324   3.349   3.368   3.381   3.397
  3.443   3.575   3.605   3.617   3.656   3.683   3.738   3.774
  3.780   3.820   3.838   3.858   3.874   3.941   3.950   4.030
  4.038   4.048   4.082   4.121   4.157   4.165   4.170   4.186
  4.253   4.315   4.425   4.491   5.034   5.082   5.085   5.165
  5.229   5.244   5.251   5.438   5.459   5.512   5.623   5.643
  5.665   5.881   5.893  23.783  23.844  23.855  23.870  23.897
 23.934  23.950  23.953  23.964  23.988  24.041  49.917  49.946
 49.992  50.027  50.043
 --------------------------------------------------------------
 
          Ground-State Mulliken Net Atomic Charges

     Atom                 Charge (a.u.)
  ----------------------------------------
      1 C                    -0.665562
      2 C                     1.217704
      3 C                    -0.556477
      4 C                    -0.782679
      5 O                    -0.093833
      6 O                    -0.224238
      7 O                     0.055101
      8 O                    -0.158193
      9 C                    -0.220541
     10 C                    -0.178604
     11 C                     0.620293
     12 C                    -0.511523
     13 C                    -0.389776
     14 C                    -0.584239
     15 O                    -0.056652
     16 H                     0.236778
     17 H                     0.292233
     18 H                     0.176102
     19 H                     0.192106
     20 H                     0.186139
     21 H                     0.129879
     22 H                     0.160012
     23 H                     0.143834
     24 H                     0.163203
     25 H                     0.181790
     26 H                     0.126327
     27 H                     0.181818
     28 H                     0.286797
     29 C                    -0.419284
     30 H                     0.163556
     31 H                     0.153935
     32 H                     0.173994
  ----------------------------------------
  Sum of atomic charges =    -0.000000

 -----------------------------------------------------------------
                    Cartesian Multipole Moments
 -----------------------------------------------------------------
    Charge (ESU x 10^10)
                -0.0000
    Dipole Moment (Debye)
         X       0.5884      Y      -1.2010      Z      -0.9538
       Tot       1.6427
    Quadrupole Moments (Debye-Ang)
        XX     -82.5714     XY       3.0513     YY    -100.0092
        XZ       9.0532     YZ       3.6845     ZZ    -100.7603
    Octopole Moments (Debye-Ang^2)
       XXX     -49.6742    XXY       0.7113    XYY       4.9182
       YYY     -48.0015    XXZ     -14.1454    XYZ      -7.6389
       YYZ     -18.1112    XZZ      -3.4318    YZZ      13.3349
       ZZZ      -7.5929
    Hexadecapole Moments (Debye-Ang^3)
      XXXX   -2074.0615   XXXY     -33.2033   XXYY    -617.6141
      XYYY      71.5375   YYYY   -1678.5159   XXXZ      11.7259
      XXYZ       9.5234   XYYZ      22.7462   YYYZ       3.4657
      XXZZ    -450.2827   XYZZ     -18.4484   YYZZ    -338.0506
      XZZZ      26.3619   YZZZ      22.9597   ZZZZ    -471.7059
 -----------------------------------------------------------------
 Calculating analytic gradient of the SCF energy
 Gradient of SCF Energy
            1           2           3           4           5           6
    1  -0.0005295   0.0011487  -0.0005825  -0.0005515   0.0011739   0.0002919
    2  -0.0007851  -0.0002852  -0.0004187   0.0004451  -0.0016357   0.0000932
    3  -0.0018445   0.0014801   0.0020234   0.0008572  -0.0012063  -0.0006374
            7           8           9          10          11          12
    1  -0.0007426   0.0006554  -0.0004418  -0.0002582   0.0012060  -0.0003591
    2   0.0022252  -0.0001320  -0.0002944  -0.0002337   0.0003167   0.0002676
    3  -0.0005931  -0.0001544  -0.0000538  -0.0001740  -0.0002389   0.0007754
           13          14          15          16          17          18
    1   0.0006911  -0.0015659  -0.0002827   0.0000967  -0.0001008   0.0000272
    2   0.0000765   0.0008079   0.0003534  -0.0002115  -0.0003548   0.0000140
    3  -0.0007274   0.0001595  -0.0003357  -0.0000566   0.0003735  -0.0000987
           19          20          21          22          23          24
    1   0.0001327  -0.0001312   0.0001944   0.0002322  -0.0000335   0.0000192
    2  -0.0000705  -0.0003676   0.0001992  -0.0000185  -0.0000164   0.0000395
    3  -0.0000031  -0.0001733   0.0001248   0.0003793  -0.0000778   0.0000206
           25          26          27          28          29          30
    1   0.0001394   0.0000024   0.0000491  -0.0001450  -0.0001114  -0.0000180
    2   0.0000424  -0.0000391   0.0000257  -0.0001182   0.0000595   0.0000311
    3  -0.0000026   0.0000961  -0.0000179  -0.0000698   0.0001091   0.0000311
           31          32
    1  -0.0000098  -0.0001968
    2  -0.0000115  -0.0000041
    3   0.0000119   0.0000232
 Max gradient component =       2.225E-03
 RMS gradient           =       5.984E-04
 Gradient time:  CPU 316.42 s  wall 23.01 s
 Geometry Optimization Parameters
   NAtoms,    NIC,     NZ,  NCons,   NDum,   NFix, NCnnct, MaxDiis
       32     251       0       0       0       0       0       0

 Cartesian Hessian Update
 Hessian Updated using Powell/Murtagh-Sargent Update
  Mixing factors:     0.666050 Powell
                      0.333950 Murtagh-Sargent


** GEOMETRY OPTIMIZATION IN DELOCALIZED INTERNAL COORDINATES **
   Searching for a Transition State

   Optimization Cycle:   3

                       Coordinates (Angstroms)
     ATOM                X               Y               Z
      1  C         0.2865667554    1.1357721556    0.5708716022
      2  C         0.5871833016   -0.3822080942    0.8475485790
      3  C        -1.0881193747    1.6532289003    0.1903527388
      4  C        -0.6042418453   -1.3244494735    0.7565888893
      5  O        -1.9694739040    0.7182644569   -0.1865729052
      6  O        -1.3343958143    2.8376590107    0.1918525085
      7  O        -0.8766524294   -1.7429564572   -0.4887598158
      8  O        -1.2251460934   -1.6788454691    1.7315449977
      9  C        -2.0333607835   -2.5819384338   -0.6322421769
     10  C        -3.2745360324    1.1889804681   -0.5751845874
     11  C         1.3170528227    1.4441929141   -0.5706483797
     12  C         2.7128584942    1.6004542178    0.0558761778
     13  C         3.0171010482    0.1243303979    0.4319319744
     14  C         1.7772726984   -0.6276437945   -0.1439077517
     15  O         1.4116774855    0.2022756848   -1.2671682042
     16  H         0.5462377292    1.7225926048    1.4521758544
     17  H         0.9218763324   -0.4923538820    1.8793606414
     18  H        -2.9234841851   -2.0594613037   -0.2788910591
     19  H        -3.7454787409    1.7231581717    0.2506117227
     20  H         3.4148762493    1.9675809373   -0.6944138738
     21  H         2.7251296310    2.2871071810    0.9043364938
     22  H         3.9270955449   -0.2339195942   -0.0511950777
     23  H         3.1275289559   -0.0334178716    1.5065715158
     24  H        -2.1082061186   -2.7919373455   -1.6970249958
     25  H        -1.9137446988   -3.5059360216   -0.0641611678
     26  H        -3.8405408900    0.2951967490   -0.8268719094
     27  H        -3.1962347737    1.8511014022   -1.4382683010
     28  H         1.0062594132    2.2339077854   -1.2505431960
     29  C         2.0674716826   -2.0491024319   -0.5753061556
     30  H         2.9486490280   -2.0645374492   -1.2202862173
     31  H         2.2762619120   -2.6711097125    0.3002848778
     32  H         1.2267613296   -2.4769834932   -1.1165350390
   Point Group: c1    Number of degrees of freedom:    90


   Energy is   -805.189352194

 Hessian Updated using Powell/Murtagh-Sargent Update
  Mixing factors:     0.986000 Powell
                      0.014000 Murtagh-Sargent

 85 Hessian modes will be used to form the next step
  Hessian Eigenvalues:
    -0.006512    0.006837    0.007074    0.007430    0.008250    0.010259
     0.010877    0.011008    0.013835    0.023154    0.023384    0.023742
     0.026738    0.032804    0.035994    0.036586    0.041324    0.043014
     0.048034    0.049413    0.052065    0.054040    0.056742    0.057839
     0.059298    0.059939    0.063664    0.064778    0.066391    0.073973
     0.081022    0.093122    0.098541    0.101350    0.101381    0.106054
     0.106064    0.106858    0.121619    0.125260    0.158299    0.160000
     0.160000    0.160005    0.160025    0.173921    0.233553    0.235659
     0.249946    0.249971    0.250000    0.250000    0.250026    0.250326
     0.251411    0.253945    0.260947    0.279772    0.301695    0.305757
     0.309739    0.333294    0.343381    0.345642    0.346083    0.346565
     0.346696    0.346781    0.346994    0.347198    0.347456    0.347544
     0.347766    0.347991    0.350575    0.351051    0.351155    0.351436
     0.351693    0.394817    0.401337    0.568478    0.574698    1.000754
     1.003888

 Transition State Search - Taking P-RFO Step
 Searching for Lamda that Maximizes Along the Lowest mode
 Value Taken    Lamda =   0.00067263
 Searching for Lamda that Minimizes Along All other modes
 Value Taken    Lamda =  -0.00121874
 Calculated Step too Large.  Step scaled by  0.805464
 Step Taken.  Stepsize is  0.300000

                             Maximum     Tolerance    Cnvgd?
         Gradient           0.008379      0.000001      NO
         Displacement       0.119944      0.000001      NO
         Energy change      0.000150      0.000000      NO


 New Cartesian Coordinates Obtained by Inverse Iteration

 Displacement from previous Coordinates is:  0.599992
 Adding empirical dispersion correction 
 ----------------------------------------------------------------
 Doing -D3(op) with
 s6 =   1.00000
 s8 =   0.78311
 a1 =   0.30000
 a2 =   4.25000
 n  =  10.00000
 -D3 energy without 3body term =     -0.0362481834 hartrees
 ----------------------------------------------------------------
             Standard Nuclear Orientation (Angstroms)
    I     Atom           X                Y                Z
 ----------------------------------------------------------------
    1      C       0.2813284980     1.1416030411     0.5648525839
    2      C       0.5862826554    -0.3789819247     0.8269396581
    3      C      -1.0875004014     1.6578960622     0.1592727582
    4      C      -0.6072107900    -1.3216894139     0.7632736293
    5      O      -1.9772965189     0.7214382066    -0.1924075762
    6      O      -1.3252874397     2.8437131551     0.1326071069
    7      O      -0.8682860755    -1.8001554070    -0.4625138623
    8      O      -1.2540797756    -1.6115292669     1.7428309325
    9      C      -2.0391928386    -2.6230418643    -0.5807250024
   10      C      -3.2783440350     1.1943313439    -0.5915864680
   11      C       1.3325253212     1.4641988576    -0.5507148868
   12      C       2.7179498687     1.5967592345     0.1055934047
   13      C       3.0222647596     0.1078527174     0.4259982671
   14      C       1.7790998524    -0.6210075060    -0.1673355889
   15      O       1.4279134744     0.2368972771    -1.2740043018
   16      H       0.5148703698     1.7220163575     1.4579016001
   17      H       0.9331770641    -0.4817661808     1.8551709372
   18      H      -2.9239355954    -2.0644888457    -0.2716192589
   19      H      -3.7454932954     1.7500753838     0.2221701254
   20      H       3.4354190643     2.0055792257    -0.6077120493
   21      H       2.7051289436     2.2430705061     0.9847118495
   22      H       3.9225475307    -0.2317645951    -0.0878373454
   23      H       3.1494497740    -0.0911076238     1.4919325490
   24      H      -2.1011342895    -2.8891136214    -1.6337672953
   25      H      -1.9484165469    -3.5171917102     0.0382018855
   26      H      -3.8512803304     0.2998055275    -0.8244956366
   27      H      -3.1948947463     1.8368453318    -1.4688138486
   28      H       1.0424704683     2.2732070746    -1.2168484302
   29      C       2.0664352517    -2.0338523094    -0.6292016041
   30      H       2.9592779973    -2.0381359058    -1.2582533084
   31      H       2.2563831454    -2.6790912131     0.2337748408
   32      H       1.2340733695    -2.4433697041    -1.1954679052
 ----------------------------------------------------------------
 Nuclear Repulsion Energy =  1257.2216758272 hartrees
 There are       61 alpha and       61 beta electrons
 Applying Cartesian multipole field
    Component          Value
    ---------          -----
     (2,0,0)        1.00000E-11
     (0,2,0)        2.00000E-11
     (0,0,2)       -3.00000E-11
 Nucleus-field energy     =     0.0000000309 hartrees
 Requested basis set is 6-311++G(d,p)
 There are 176 shells and 464 basis functions
 A cutoff of  1.0D-11 yielded  12820 shell pairs
 There are     90784 function pairs (     96871 Cartesian)
 Smallest overlap matrix eigenvalue = 1.07E-06

 Q-Chem warning in module /fs/scratch/osu6415/qchem-trunk-18Dec2017/stvman/mkSTV.C, line 295:

 Overlap eigenvalue is smaller than square root of threshold

 Guess MOs from SCF MO coefficient file
 Reading MOs from coefficient file
 Reading MOs from coefficient file
 A restricted hybrid HF-DFT SCF calculation will be
 performed using Pulay DIIS extrapolation
 Exchange:     0.2000 Hartree-Fock + 0.0800 Slater + 0.7200 B88
 Correlation:  0.1900 VWN1RPA + 0.8100 LYP
 Using SG-1 standard quadrature grid
 Dispersion:   Grimme D3
 SCF converges when DIIS error is below 1.0E-08
 Geometry optimization detected.  Setting ReadMinima to 0
 Setting SaveMinima to 0
 using 20 threads for integral computing
 -------------------------------------------------------
 OpenMP Integral computing Module                
 Release: version 1.0, May 2013, Q-Chem Inc. Pittsburgh 
 -------------------------------------------------------
 -------------------------------------------------------
 OpenMP BLAS3 based DFT computing Module                
 Release: version 1.0, May 2013, Q-Chem Inc. Pittsburgh 
 -------------------------------------------------------
 ---------------------------------------
  Cycle       Energy         DIIS Error
 ---------------------------------------
    1    -805.1909715892      9.11E-04
    2    -805.1892708638      1.04E-04
    3    -805.1889753749      1.70E-04
    4    -805.1895501678      3.66E-05
    5    -805.1895704665      1.65E-05
    6    -805.1895756127      4.08E-06
    7    -805.1895758676      1.92E-06
    8    -805.1895759447      4.88E-07
    9    -805.1895759491      1.97E-07
   10    -805.1895759496      6.51E-08
   11    -805.1895759498      2.30E-08
   12    -805.1895759515      7.03E-09 Convergence criterion met
 ---------------------------------------
 SCF time:  CPU 779.18 s  wall 40.92 s
 SCF   energy in the final basis set = -805.18957595
 Total energy in the final basis set = -805.18957595
 
 --------------------------------------------------------------
 
                    Orbital Energies (a.u.)
 --------------------------------------------------------------
 
 Alpha MOs
 -- Occupied --
-19.180 -19.170 -19.132 -19.117 -19.112 -10.311 -10.305 -10.244
-10.237 -10.234 -10.229 -10.209 -10.205 -10.180 -10.180 -10.166
 -1.123  -1.113  -1.064  -1.031  -1.024  -0.831  -0.795  -0.783
 -0.745  -0.731  -0.697  -0.655  -0.605  -0.595  -0.574  -0.568
 -0.531  -0.512  -0.509  -0.494  -0.490  -0.485  -0.476  -0.472
 -0.465  -0.441  -0.425  -0.424  -0.417  -0.412  -0.399  -0.386
 -0.379  -0.370  -0.366  -0.359  -0.358  -0.352  -0.340  -0.330
 -0.321  -0.308  -0.290  -0.282  -0.273
 -- Virtual --
 -0.017  -0.012  -0.006  -0.004   0.002   0.009   0.013   0.020
  0.027   0.031   0.033   0.039   0.044   0.046   0.049   0.055
  0.065   0.068   0.070   0.078   0.082   0.086   0.092   0.093
  0.101   0.103   0.104   0.108   0.110   0.112   0.119   0.122
  0.124   0.127   0.129   0.133   0.136   0.140   0.141   0.145
  0.148   0.151   0.155   0.156   0.157   0.159   0.163   0.166
  0.168   0.171   0.175   0.178   0.180   0.182   0.185   0.192
  0.194   0.198   0.204   0.205   0.208   0.213   0.216   0.221
  0.228   0.229   0.238   0.240   0.243   0.249   0.251   0.254
  0.267   0.269   0.273   0.277   0.285   0.288   0.294   0.295
  0.304   0.310   0.316   0.319   0.326   0.330   0.332   0.335
  0.337   0.346   0.347   0.353   0.358   0.361   0.363   0.367
  0.371   0.375   0.380   0.387   0.389   0.398   0.403   0.406
  0.413   0.422   0.430   0.433   0.441   0.445   0.457   0.475
  0.486   0.489   0.504   0.513   0.517   0.526   0.530   0.539
  0.549   0.550   0.564   0.585   0.586   0.591   0.597   0.614
  0.618   0.623   0.631   0.643   0.644   0.646   0.654   0.661
  0.665   0.678   0.683   0.691   0.701   0.707   0.712   0.718
  0.728   0.729   0.733   0.740   0.746   0.752   0.767   0.772
  0.778   0.780   0.788   0.790   0.810   0.815   0.822   0.837
  0.860   0.862   0.886   0.917   0.952   0.954   0.987   1.001
  1.011   1.022   1.041   1.052   1.057   1.082   1.103   1.121
  1.124   1.134   1.156   1.166   1.180   1.205   1.206   1.218
  1.237   1.242   1.249   1.264   1.273   1.280   1.293   1.308
  1.316   1.333   1.352   1.374   1.388   1.390   1.396   1.411
  1.420   1.435   1.445   1.454   1.471   1.489   1.495   1.502
  1.512   1.523   1.532   1.545   1.549   1.559   1.559   1.575
  1.583   1.597   1.599   1.609   1.622   1.638   1.653   1.664
  1.670   1.686   1.689   1.695   1.698   1.702   1.715   1.722
  1.725   1.737   1.741   1.758   1.765   1.791   1.800   1.814
  1.816   1.830   1.847   1.857   1.866   1.877   1.888   1.913
  1.927   1.933   1.941   1.965   1.985   1.991   2.003   2.015
  2.035   2.051   2.058   2.079   2.093   2.106   2.122   2.129
  2.134   2.157   2.160   2.184   2.199   2.206   2.227   2.244
  2.268   2.276   2.297   2.332   2.359   2.405   2.420   2.446
  2.453   2.465   2.472   2.489   2.494   2.500   2.517   2.522
  2.535   2.542   2.549   2.561   2.582   2.586   2.596   2.625
  2.634   2.644   2.665   2.672   2.685   2.709   2.735   2.762
  2.763   2.785   2.803   2.811   2.832   2.846   2.851   2.863
  2.874   2.886   2.896   2.912   2.946   2.958   2.963   3.009
  3.012   3.030   3.044   3.046   3.059   3.085   3.089   3.107
  3.126   3.141   3.147   3.171   3.179   3.191   3.228   3.243
  3.248   3.266   3.296   3.320   3.350   3.364   3.379   3.398
  3.445   3.575   3.604   3.616   3.653   3.682   3.737   3.773
  3.780   3.820   3.836   3.859   3.872   3.942   3.946   4.028
  4.033   4.047   4.080   4.120   4.155   4.162   4.169   4.190
  4.255   4.318   4.425   4.492   5.033   5.081   5.084   5.159
  5.226   5.244   5.251   5.435   5.455   5.507   5.622   5.644
  5.665   5.882   5.890  23.784  23.842  23.854  23.868  23.893
 23.933  23.950  23.951  23.965  23.991  24.043  49.916  49.943
 49.992  50.026  50.041
 --------------------------------------------------------------
 
          Ground-State Mulliken Net Atomic Charges

     Atom                 Charge (a.u.)
  ----------------------------------------
      1 C                    -0.649694
      2 C                     1.234409
      3 C                    -0.608311
      4 C                    -0.745603
      5 O                    -0.091932
      6 O                    -0.224748
      7 O                     0.050491
      8 O                    -0.160068
      9 C                    -0.213571
     10 C                    -0.182862
     11 C                     0.623233
     12 C                    -0.476123
     13 C                    -0.428790
     14 C                    -0.575048
     15 O                    -0.056773
     16 H                     0.232890
     17 H                     0.290823
     18 H                     0.175825
     19 H                     0.191973
     20 H                     0.187898
     21 H                     0.127255
     22 H                     0.160100
     23 H                     0.142637
     24 H                     0.160789
     25 H                     0.182535
     26 H                     0.125786
     27 H                     0.182433
     28 H                     0.286662
     29 C                    -0.435409
     30 H                     0.159837
     31 H                     0.155490
     32 H                     0.177862
  ----------------------------------------
  Sum of atomic charges =    -0.000000

 -----------------------------------------------------------------
                    Cartesian Multipole Moments
 -----------------------------------------------------------------
    Charge (ESU x 10^10)
                -0.0000
    Dipole Moment (Debye)
         X       0.5616      Y      -1.3267      Z      -0.8578
       Tot       1.6767
    Quadrupole Moments (Debye-Ang)
        XX     -82.6781     XY       3.1532     YY     -99.4851
        XZ       9.0743     YZ       3.7305     ZZ    -100.8955
    Octopole Moments (Debye-Ang^2)
       XXX     -50.1484    XXY       0.5074    XYY       3.7055
       YYY     -50.3006    XXZ     -14.0387    XYZ      -7.5619
       YYZ     -15.6521    XZZ      -3.2745    YZZ      12.5293
       ZZZ      -6.6598
    Hexadecapole Moments (Debye-Ang^3)
      XXXX   -2083.7376   XXXY     -35.9899   XXYY    -618.0804
      XYYY      71.9989   YYYY   -1684.0137   XXXZ      14.4220
      XXYZ       9.9478   XYYZ      20.2538   YYYZ       4.5169
      XXZZ    -453.1371   XYZZ     -20.2814   YYZZ    -337.1087
      XZZZ      29.2511   YZZZ      24.3974   ZZZZ    -472.6215
 -----------------------------------------------------------------
 Calculating analytic gradient of the SCF energy
 Gradient of SCF Energy
            1           2           3           4           5           6
    1   0.0000330  -0.0004587  -0.0002341   0.0015887   0.0004061   0.0000936
    2   0.0000756   0.0011463  -0.0001763  -0.0019439  -0.0005418   0.0000333
    3  -0.0004256   0.0001652   0.0016758   0.0005732  -0.0006249  -0.0004370
            7           8           9          10          11          12
    1  -0.0011684  -0.0005976  -0.0000900  -0.0000697   0.0002709  -0.0001105
    2   0.0011122   0.0005458  -0.0000020  -0.0000389  -0.0001682   0.0000222
    3  -0.0001093  -0.0002460  -0.0000196  -0.0000263  -0.0000947   0.0001626
           13          14          15          16          17          18
    1   0.0000383  -0.0002168   0.0001064  -0.0001800  -0.0000527  -0.0000738
    2  -0.0000301  -0.0002370   0.0000050   0.0001843   0.0001963   0.0000152
    3  -0.0001195  -0.0002848   0.0000531  -0.0001216  -0.0000569  -0.0000559
           19          20          21          22          23          24
    1   0.0000164   0.0000260  -0.0001307  -0.0000499   0.0001747  -0.0000120
    2  -0.0000041   0.0000314  -0.0001037   0.0000310  -0.0000961   0.0000128
    3   0.0000063  -0.0000067   0.0000653  -0.0000598   0.0000086  -0.0000022
           25          26          27          28          29          30
    1   0.0000328   0.0000304  -0.0000070   0.0000877   0.0001503   0.0000408
    2  -0.0000092  -0.0000597  -0.0000050   0.0000785  -0.0001561   0.0000007
    3   0.0000222   0.0000047   0.0000039  -0.0000211  -0.0000758  -0.0000076
           31          32
    1   0.0000693   0.0002864
    2   0.0000273   0.0000539
    3   0.0000225   0.0000319
 Max gradient component =       1.944E-03
 RMS gradient           =       4.134E-04
 Gradient time:  CPU 313.89 s  wall 22.35 s
 Geometry Optimization Parameters
   NAtoms,    NIC,     NZ,  NCons,   NDum,   NFix, NCnnct, MaxDiis
       32     251       0       0       0       0       0       0

 Cartesian Hessian Update
 Hessian Updated using Powell/Murtagh-Sargent Update
  Mixing factors:     0.891204 Powell
                      0.108796 Murtagh-Sargent


** GEOMETRY OPTIMIZATION IN DELOCALIZED INTERNAL COORDINATES **
   Searching for a Transition State

   Optimization Cycle:   4

                       Coordinates (Angstroms)
     ATOM                X               Y               Z
      1  C         0.2813284980    1.1416030411    0.5648525839
      2  C         0.5862826554   -0.3789819247    0.8269396581
      3  C        -1.0875004014    1.6578960622    0.1592727582
      4  C        -0.6072107900   -1.3216894139    0.7632736293
      5  O        -1.9772965189    0.7214382066   -0.1924075762
      6  O        -1.3252874397    2.8437131551    0.1326071069
      7  O        -0.8682860755   -1.8001554070   -0.4625138623
      8  O        -1.2540797756   -1.6115292669    1.7428309325
      9  C        -2.0391928386   -2.6230418643   -0.5807250024
     10  C        -3.2783440350    1.1943313439   -0.5915864680
     11  C         1.3325253212    1.4641988576   -0.5507148868
     12  C         2.7179498687    1.5967592345    0.1055934047
     13  C         3.0222647596    0.1078527174    0.4259982671
     14  C         1.7790998524   -0.6210075060   -0.1673355889
     15  O         1.4279134744    0.2368972771   -1.2740043018
     16  H         0.5148703698    1.7220163575    1.4579016001
     17  H         0.9331770641   -0.4817661808    1.8551709372
     18  H        -2.9239355954   -2.0644888457   -0.2716192589
     19  H        -3.7454932954    1.7500753838    0.2221701254
     20  H         3.4354190643    2.0055792257   -0.6077120493
     21  H         2.7051289436    2.2430705061    0.9847118495
     22  H         3.9225475307   -0.2317645951   -0.0878373454
     23  H         3.1494497740   -0.0911076238    1.4919325490
     24  H        -2.1011342895   -2.8891136214   -1.6337672953
     25  H        -1.9484165469   -3.5171917102    0.0382018855
     26  H        -3.8512803304    0.2998055275   -0.8244956366
     27  H        -3.1948947463    1.8368453318   -1.4688138486
     28  H         1.0424704683    2.2732070746   -1.2168484302
     29  C         2.0664352517   -2.0338523094   -0.6292016041
     30  H         2.9592779973   -2.0381359058   -1.2582533084
     31  H         2.2563831454   -2.6790912131    0.2337748408
     32  H         1.2340733695   -2.4433697041   -1.1954679052
   Point Group: c1    Number of degrees of freedom:    90


   Energy is   -805.189575952

 Hessian Updated using Powell/Murtagh-Sargent Update
  Mixing factors:     0.993672 Powell
                      0.006328 Murtagh-Sargent

 85 Hessian modes will be used to form the next step
  Hessian Eigenvalues:
    -0.004279    0.006626    0.006844    0.007397    0.008385    0.010257
     0.010877    0.011890    0.012636    0.023057    0.023425    0.023742
     0.026536    0.032738    0.035988    0.036639    0.041459    0.043011
     0.047985    0.049367    0.052061    0.054064    0.056743    0.057843
[...]
    -0.00004694     -0.00000300     -0.00001146
    -0.00004392      0.00004674     -0.00000733
     0.00000116     -0.00003622     -0.00003654
    -0.00005377     -0.00004438     -0.00001927
     0.00020393      0.00011313     -0.00004203
     0.00025382     -0.00023026      0.00011215
    -0.00051572      0.00388587     -0.00314139
    -0.03318435     -0.04464960      0.00095970
    -0.02828484      0.01595616     -0.02334053
     0.00054827      0.00080783      0.00004452
     0.00004687      0.00006540      0.00015992
    -0.00925834     -0.02108663     -0.03254857
    -0.02843744      0.00836295     -0.08476881
    -0.00259509      0.00166539      0.00086303
    -0.00173230      0.00204833      0.00323507
     0.39827901      0.19875513     -0.42601269
    -0.01275638      0.31095662      0.41666675
     0.29299166     -0.11224841     -0.17137234
     0.03080890     -0.06304309      0.44271286
    -0.00003252     -0.00045189     -0.00188725
     0.00025715     -0.00239101      0.00168948
    -0.00149102     -0.00230570     -0.00063499
     0.00040987      0.00298905     -0.00399367
     0.01560233     -0.05044775      0.03944784
    -0.00090692      0.00248004     -0.00129588
     0.01409038     -0.00009414     -0.01076712
     0.00697380     -0.02450729      0.03343772
    -0.01086666     -0.00635739     -0.00852417
vibration 80
     0.01290558      0.02649650      0.04160962
    -0.01846273      0.00499453     -0.05582704
     0.00019060      0.00089338      0.00079460
     0.00030271      0.00015070     -0.00168101
    -0.00013772     -0.00015741      0.00000009
    -0.00006216     -0.00024791     -0.00019733
    -0.00001516      0.00008826      0.00019892
    -0.00008006     -0.00010013      0.00053911
     0.00019777      0.00023212      0.00015513
    -0.00009752     -0.00011267      0.00011464
     0.00040383     -0.00017987      0.00029787
     0.00785138     -0.00336450     -0.01747049
    -0.01878870      0.00614804      0.01947718
    -0.00047338      0.00017904      0.00001881
     0.00006987     -0.00026635      0.00012976
    -0.15384001     -0.31727103     -0.49505375
     0.21965349     -0.06007404      0.66203813
    -0.00240408      0.00124610      0.00065886
     0.00042766     -0.00028066     -0.00044406
    -0.09210741     -0.04924993      0.09335857
    -0.00049484      0.08771762      0.11220556
     0.23272949     -0.08888472     -0.12447300
    -0.01149576      0.01649080     -0.10536993
    -0.00036110     -0.00118374     -0.00417401
     0.00005791     -0.00279262      0.00174582
     0.00076073      0.00090059      0.00031149
     0.00022179      0.00071467     -0.00085776
    -0.00103126      0.00188834     -0.00078806
     0.00205629      0.00322555     -0.00436018
    -0.02325156     -0.00088921      0.01499936
     0.01064685     -0.03301330      0.04453439
    -0.01026466     -0.00481997     -0.00845623
vibration 81
     0.00610995      0.01272812      0.01973338
    -0.00370514      0.00091260     -0.01172791
     0.00008282      0.00045322      0.00031704
     0.00006260     -0.00023733     -0.00033707
    -0.00008493     -0.00007420     -0.00000264
    -0.00003009     -0.00014493     -0.00007762
     0.00006657      0.00006910      0.00005952
     0.00000957      0.00000367      0.00009286
    -0.00011436      0.00037835     -0.00006309
    -0.00003014     -0.00004251     -0.00000811
    -0.00072787      0.00139644     -0.00037057
    -0.01078990      0.00969887      0.03148382
     0.02651193     -0.00637922     -0.05134079
     0.00001436     -0.00032720      0.00040253
     0.00002700     -0.00009960     -0.00016508
    -0.07337373     -0.15107560     -0.23702922
     0.04453673     -0.01227158      0.13725862
     0.00118752     -0.00085040     -0.00052584
     0.00003497      0.00008714      0.00011328
     0.13329556      0.06999265     -0.13467546
    -0.00101674     -0.18602841     -0.24093193
    -0.35714970      0.13728936      0.18982804
     0.04184199     -0.06349359      0.42057554
    -0.00010319     -0.00018644     -0.00087717
     0.00039306     -0.00326826      0.00228845
     0.00033704      0.00039476      0.00013748
     0.00006089     -0.00005383      0.00013312
     0.00463878     -0.01142268      0.00994510
    -0.02456113     -0.01701197      0.04904964
     0.40076878      0.00042294     -0.27099727
    -0.07488356      0.22451087     -0.30896505
    -0.03528363     -0.01882940     -0.00700657
vibration 82
     0.00173108      0.00364891      0.00578594
     0.00847525     -0.00258925      0.02464006
    -0.00004599      0.00023826      0.00007347
    -0.00002858     -0.00015144      0.00072797
     0.00001576     -0.00000397      0.00000295
     0.00000441     -0.00001830     -0.00002611
     0.00005022     -0.00007149     -0.00014046
     0.00002173      0.00004836     -0.00024364
    -0.00023341      0.00038965     -0.00028424
     0.00000974      0.00007411     -0.00012951
     0.00141141     -0.00199017      0.00135252
     0.01728169     -0.01060572     -0.04340244
    -0.01688360      0.00415615      0.03190732
    -0.00066739     -0.00039148      0.00178875
    -0.00006521      0.00031226     -0.00037106
    -0.02192889     -0.04469082     -0.06853668
    -0.09801788      0.02750633     -0.29795324
     0.00250169     -0.00151184     -0.00087548
    -0.00005194      0.00015291      0.00023396
    -0.20889624     -0.11013497      0.21258125
     0.00063237      0.23550944      0.30273409
     0.22836088     -0.08613426     -0.12034128
    -0.02671867      0.03760670     -0.26342617
     0.00001925      0.00052695      0.00171351
     0.00050931     -0.00366963      0.00273942
     0.00010907      0.00002119      0.00003224
    -0.00010509     -0.00098563      0.00130543
    -0.00968170      0.02424586     -0.02029091
    -0.02621729     -0.01854728      0.05587360
     0.44945385     -0.00148724     -0.30568355
    -0.08449201      0.25316307     -0.34636090
    -0.05152990     -0.02753646     -0.01821751
vibration 83
    -0.01467767     -0.03096807     -0.04759415
    -0.01494611      0.00473925     -0.04568111
     0.00003119     -0.00142871     -0.00069022
     0.00060147      0.00064089     -0.00146026
     0.00012646      0.00020300     -0.00000749
    -0.00000771      0.00043731      0.00016409
     0.00002802      0.00003999      0.00015919
    -0.00021715     -0.00014289      0.00055424
     0.00016021      0.00045093      0.00003221
     0.00029973     -0.00005123      0.00010567
    -0.00133509      0.00156862     -0.00203965
    -0.00718408     -0.00072831      0.01124876
    -0.01332877      0.00415346      0.01477753
    -0.00107108      0.00024632      0.00071322
     0.00007989      0.00023053      0.00027557
     0.17796656      0.36616588      0.56924618
     0.18204868     -0.05250357      0.54363842
    -0.00154405      0.00074534      0.00030122
    -0.00141316      0.00133939      0.00196438
     0.08458664      0.04552404     -0.08695716
     0.00049422     -0.03626474     -0.04440120
     0.16876871     -0.06436674     -0.08904909
    -0.00879404      0.01353643     -0.08665295
    -0.00034151     -0.00102251     -0.00376521
     0.00026751     -0.00493235      0.00322420
    -0.00204343     -0.00282028     -0.00084958
     0.00002810      0.00209929     -0.00281189
     0.01038974     -0.02620074      0.02149320
    -0.01183884     -0.00737338      0.02545800
     0.21174684     -0.00137837     -0.14426089
    -0.03590210      0.10712823     -0.14771223
    -0.03284186     -0.01691463     -0.01423654
vibration 84
    -0.00451584     -0.00913983     -0.01386424
    -0.00503035      0.00162803     -0.01494479
    -0.00010080     -0.00039589     -0.00013518
     0.00003587      0.00007929     -0.00048909
     0.00011864      0.00006724      0.00002668
     0.00004135      0.00013074      0.00005067
     0.00001290      0.00007848      0.00014660
    -0.00002730     -0.00002399      0.00019894
    -0.00029620      0.00048766      0.00013553
    -0.00012213      0.00011437      0.00048867
     0.00183365     -0.00374266      0.00125623
     0.02634664     -0.01449546     -0.06385425
     0.02530465     -0.00560412     -0.05030470
     0.00043548      0.00067388     -0.00132372
    -0.00009320      0.00017545      0.00074308
     0.05138504      0.10770094      0.16851459
     0.05903083     -0.01754361      0.18121918
     0.00341485     -0.00225236     -0.00120014
     0.00176288     -0.00224866     -0.00337612
    -0.32029601     -0.17130720      0.32916792
     0.00068232      0.34208824      0.43546884
    -0.34672167      0.13484168      0.18323408
     0.04166190     -0.06526786      0.41892535
    -0.00010423     -0.00045795     -0.00220059
     0.00023351     -0.00298429      0.00215305
    -0.00060170     -0.00090471     -0.00016269
     0.00021087      0.00189718     -0.00244411
    -0.01233988      0.03258578     -0.02688560
     0.00301578      0.00208747     -0.00795453
    -0.06241710      0.00146540      0.04333049
     0.01146543     -0.03446926      0.04583118
     0.01329344      0.00711349      0.00772394
vibration 85
     0.00009136      0.00008372      0.00009433
    -0.00008093      0.00017776      0.00010477
    -0.00020456     -0.00010566     -0.00007499
     0.00011649     -0.00006695      0.00016832
     0.00010190      0.00002516      0.00003455
     0.00004253      0.00004717      0.00001091
     0.00003075     -0.00033127      0.00001890
     0.00009076     -0.00015012     -0.00001002
    -0.05253155      0.07601930     -0.02055202
     0.00019879      0.00246791      0.00172448
     0.00004152     -0.00014769      0.00017956
    -0.00019698      0.00010282      0.00045165
    -0.00015375      0.00003873      0.00024514
    -0.00003411      0.00003016     -0.00002880
     0.00001668     -0.00003861      0.00000239
    -0.00026577     -0.00072084     -0.00114456
    -0.00058828      0.00002240     -0.00169817
     0.57319803     -0.36325369     -0.20289025
     0.00941655     -0.01042247     -0.01705795
     0.00239941      0.00121928     -0.00239037
    -0.00001536     -0.00249964     -0.00315214
     0.00201096     -0.00081044     -0.00108856
    -0.00016731      0.00030217     -0.00173670
    -0.00888524      0.02507590      0.03650646
     0.05835660     -0.56125739      0.40966992
    -0.01141100     -0.01809096     -0.00501143
    -0.00001694     -0.00021535      0.00150382
    -0.00075219      0.00187135     -0.00165286
     0.00038067      0.00021070     -0.00044417
    -0.00455726     -0.00012147      0.00297439
     0.00091121     -0.00220751      0.00316391
    -0.00052498     -0.00016834     -0.00100576
vibration 86
     0.00007000     -0.00002673     -0.00025851
    -0.00008374      0.00002795     -0.00020450
    -0.00008164      0.00000687      0.00017736
     0.00006546      0.00000956     -0.00016295
    -0.00012098     -0.00002759      0.00038282
    -0.00002915     -0.00001545      0.00012210
     0.00000602     -0.00000317      0.00005197
    -0.00006163     -0.00000819      0.00006734
    -0.00087522      0.00115626      0.00014737
     0.02886405      0.00622912     -0.09042046
     0.00020858     -0.00047247      0.00040032
     0.00006011     -0.00011470     -0.00026359
     0.00009332     -0.00000682     -0.00027368
     0.00000120      0.00002961     -0.00004144
     0.00000409     -0.00000663      0.00002631
    -0.00002481      0.00034144      0.00065392
     0.00086383     -0.00024189      0.00253546
     0.01023227     -0.00657503     -0.00372025
    -0.28426656      0.35856619      0.53760319
    -0.00076584     -0.00044981      0.00085693
     0.00002098      0.00177557      0.00229642
    -0.00146054      0.00054370      0.00075666
     0.00027942     -0.00039565      0.00259880
    -0.00036984     -0.00044620     -0.00329575
     0.00067226     -0.00660313      0.00499675
     0.00478532     -0.00033252     -0.01780679
    -0.06179031     -0.43195371      0.54907746
    -0.00217579      0.00533818     -0.00458353
     0.00007107      0.00004934     -0.00011025
    -0.00099932      0.00001914      0.00067516
     0.00022413     -0.00060606      0.00080898
    -0.00009600     -0.00002544     -0.00013879
vibration 87
    -0.00010028     -0.00030230     -0.00107325
    -0.00019370      0.00075119     -0.00190048
     0.00027403     -0.00099401      0.00042280
     0.00008334      0.00012207     -0.00002762
    -0.00010709      0.00008639     -0.00005816
    -0.00001747      0.00056882     -0.00019821
    -0.00003663     -0.00002091     -0.00001834
    -0.00005069     -0.00003964      0.00003589
     0.00026417     -0.00021031     -0.00010136
    -0.00002976      0.00034270      0.00071495
     0.02432533     -0.06276059      0.05383434
    -0.00589714     -0.00259046      0.00481341
    -0.00193664      0.00114973     -0.00039884
    -0.00026797      0.00130731     -0.00039476
     0.00000737     -0.00031176     -0.00027599
     0.00253514      0.00537208      0.00971976
     0.00577226     -0.00176098      0.01820934
    -0.00295147      0.00178632      0.00098703
     0.00243947     -0.00303340     -0.00473163
     0.06259237      0.03130470     -0.06056138
     0.00175397     -0.00074686      0.00166757
     0.01515852     -0.00567470     -0.00830038
     0.00084955     -0.00079936      0.00875188
     0.00004315      0.00012655      0.00089558
    -0.00010974      0.00061820     -0.00054152
    -0.00258219     -0.00377703     -0.00096671
     0.00009811      0.00249833     -0.00305946
    -0.27909490      0.72256555     -0.61880481
    -0.00010869      0.00002887      0.00016066
     0.00220742     -0.00024020     -0.00154595
     0.00002024     -0.00006756     -0.00025124
    -0.00090817     -0.00067974     -0.00067035
vibration 88
    -0.00002474     -0.00001995     -0.00002773
    -0.00014182     -0.00000262     -0.00023743
     0.00006964     -0.00001809      0.00001462
     0.00097924      0.00063294     -0.00060851
    -0.00000488      0.00001044      0.00002619
    -0.00001609      0.00000149     -0.00000121
    -0.00008394      0.00005229      0.00042437
    -0.00039281     -0.00021826      0.00033213
     0.01689685     -0.01286765     -0.09120604
    -0.00178580     -0.00556358     -0.00143285
    -0.00001589      0.00005851     -0.00010107
     0.00004553     -0.00000253     -0.00010544
    -0.00001737      0.00006467      0.00007860
    -0.00017148     -0.00001116     -0.00011854
     0.00001480      0.00000011      0.00004537
     0.00012240      0.00026452      0.00044804
     0.00123809     -0.00028044      0.00384636
    -0.26684375      0.17601327      0.07306050
    -0.00992601      0.01062101      0.01835167
    -0.00059376     -0.00032560      0.00059386
     0.00005500      0.00051598      0.00070945
     0.00074360     -0.00014705     -0.00032450
     0.00002815      0.00001330     -0.00020129
     0.02658013      0.21268060      0.85780853
     0.03459539     -0.23893906      0.14955739
     0.02925125      0.04592886      0.01227750
     0.00136515      0.00899711     -0.01395854
     0.00036334     -0.00101043      0.00089751
    -0.01020557     -0.00270390     -0.00549181
     0.02562466     -0.00000846     -0.01990861
     0.00322488     -0.01647737      0.02173142
     0.09481740      0.04789214      0.06357068
vibration 89
     0.00001698     -0.00007783     -0.00008311
    -0.00002627     -0.00007606     -0.00049262
    -0.00005622     -0.00002265     -0.00002165
    -0.00000068     -0.00013858     -0.00018510
     0.00001232      0.00000984      0.00000303
     0.00001291      0.00000456      0.00000637
    -0.00083777      0.00021991      0.00017990
     0.00004645      0.00000842      0.00000822
    -0.00222948      0.00184863      0.01192100
     0.00075319      0.00218210      0.00042967
     0.00002434     -0.00012216     -0.00000124
    -0.00003842      0.00004536     -0.00007723
    -0.00058357      0.00055754      0.00146763
    -0.00148259      0.00008684     -0.00054351
     0.00016295     -0.00003791      0.00012069
     0.00026349      0.00074055      0.00108705
     0.00151712     -0.00020429      0.00588406
     0.03460143     -0.02311448     -0.00976391
     0.00340013     -0.00353235     -0.00623875
     0.00040294     -0.00004996     -0.00025367
     0.00027701      0.00022039      0.00086073
     0.01313333     -0.00358061     -0.00620766
    -0.00086325      0.00118740     -0.00926321
    -0.00367433     -0.02783583     -0.11233295
    -0.00428118      0.02991110     -0.01871418
    -0.01152633     -0.01820674     -0.00492488
    -0.00061473     -0.00410652      0.00614579
    -0.00001569      0.00020934     -0.00008318
    -0.07659172     -0.02113114     -0.04049806
     0.19330030     -0.00038571     -0.15006029
     0.02113913     -0.11582285      0.15189414
     0.71760770      0.36192470      0.48131281
vibration 90
    -0.00006304     -0.00003522     -0.00012225
    -0.00000434      0.00002801     -0.00000759
     0.00088501     -0.00091756      0.00022258
    -0.00015092     -0.00014539     -0.00001223
     0.00006576      0.00035014      0.00002786
    -0.00027201      0.00046592     -0.00005900
     0.00002233      0.00004441      0.00002222
     0.00006423      0.00003834     -0.00001567
    -0.00286700      0.00266924      0.00555900
    -0.03056821     -0.08786824     -0.01585756
     0.00012399     -0.00033692      0.00024942
    -0.00000090     -0.00001846     -0.00003851
     0.00001465      0.00000045      0.00000782
    -0.00002344      0.00000439     -0.00000398
    -0.00000580      0.00002284      0.00000531
     0.00048362      0.00117322      0.00165627
    -0.00000962      0.00007195     -0.00003204
     0.03698671     -0.02370048     -0.01146104
    -0.13314011      0.13687550      0.24302491
    -0.00010124     -0.00003509      0.00007179
     0.00004718      0.00033721      0.00045072
    -0.00010184      0.00009556      0.00007386
    -0.00001539      0.00002896     -0.00019941
    -0.00189559     -0.01257251     -0.05290811
    -0.00073963      0.00411296     -0.00140750
     0.46449187      0.73381815      0.19948002
     0.02580393      0.17285422     -0.25612470
    -0.00131917      0.00372416     -0.00327337
    -0.00127341     -0.00036954     -0.00065413
     0.00325320      0.00001683     -0.00249122
     0.00028220     -0.00173085      0.00227285
     0.01193376      0.00606400      0.00806858
[INT]
    3.057579
    0.920417
    3.854479
    1.266713
    0.071076
    1.800254
    0.468151
    0.384190
    0.343365
    0.626498
    0.955475
    4.227171
    2.038282
    9.855650
    2.044505
    1.527538
   14.390534
    4.931248
    2.825145
    6.828659
   19.807508
    5.703276
    4.966056
    2.343844
    2.838305
    2.025805
    9.898584
   19.746370
   14.668338
   11.342090
    2.454417
    1.360456
    8.626627
   21.965740
   15.832221
    2.706574
    2.620644
   16.654473
   50.365078
   11.191268
   21.210315
   79.124483
   24.289124
   18.258694
    1.598459
    0.941116
   16.063355
   16.178537
    8.150948
   18.486079
   14.134918
   74.358656
   43.647886
   59.383623
   75.126382
  299.833072
   17.059244
   22.105477
   43.916951
   45.840734
    5.635426
   15.058450
    8.003412
   29.833062
    6.578792
    7.480880
    0.108764
   11.342274
    1.231826
    5.857842
    9.496697
   13.411966
  307.460307
  280.050409
   15.707406
   31.533315
   35.808387
   28.150606
   31.989359
    6.112144
    3.137329
   12.533970
    8.437754
   42.448426
   22.144837
   14.004289
   14.331389
   15.004688
    4.750882
   12.663448

======= END OF MOLDEN-FORMATTED INPUT FILE =======


        *************************************************************
        *                                                           *
        *  Thank you very much for using Q-Chem.  Have a nice day.  *
        *                                                           *
        *************************************************************


