
    -----------------------------------------------------------------------
          Psi4: An Open-Source Ab Initio Electronic Structure Package
                               Psi4 1.1 release

                         Git: Rev {HEAD} add49b9 


    R. M. Parrish, L. A. Burns, D. G. A. Smith, A. C. Simmonett,
    A. E. DePrince III, E. G. Hohenstein, U. Bozkaya, A. Yu. Sokolov,
    R. Di Remigio, R. M. Richard, J. F. Gonthier, A. M. James,
    H. R. McAlexander, A. Kumar, M. Saitow, X. Wang, B. P. Pritchard,
    P. Verma, H. F. Schaefer III, K. Patkowski, R. A. King, E. F. Valeev,
    F. A. Evangelista, J. M. Turney, T. D. Crawford, and C. D. Sherrill,
    J. Chem. Theory Comput. in press (2017).
    (doi: 10.1021/acs.jctc.7b00174)

    -----------------------------------------------------------------------


    Psi4 started on: Tuesday, 12 December 2017 11:10AM

    Process ID:  14863
    PSIDATADIR: /home/junteng/Softwares/psi4conda/share/psi4
    Memory:     500.0 MiB
    Threads:    1
    
  ==> Input File <==

--------------------------------------------------------------------------
memory 750000 mb

molecule mol {
0 1
C         -0.93256        1.21620       -0.27123
O         -1.22711        1.72316       -1.32432
O         -0.82809        1.87798        0.89302
C         -0.90313        3.31363        0.80447
H         -1.85300        3.62249        0.36564
H         -0.07924        3.68605        0.19416
H         -0.81675        3.67112        1.82804
--
0 1
C          1.73790        0.00516       -0.09870
O          1.72605        1.19282       -0.32983
O          2.87820       -0.69687        0.07094
C          4.10114        0.04916       -0.05920
H          4.16549        0.50520       -1.04813
H          4.89777       -0.67789        0.08191
H          4.15401        0.83005        0.70091
--
0 1
C         -3.28435       -0.44985       -0.11159
H         -4.05494       -1.20225        0.06389
H         -3.44468       -0.02014       -1.10364
H         -3.42515        0.35288        0.61764
H          1.62267       -2.68116        0.24959
C          0.52342       -0.85140        0.01899
C         -0.74989       -0.26484       -0.07041
C          0.63920       -2.23704        0.18636
C         -0.50036       -3.02574        0.26541
C         -1.75889       -2.43773        0.17149
C         -1.90684       -1.05914       -0.00101
H         -2.64746       -3.05726        0.23328
H         -0.41097       -4.09793        0.39739

symmetry c1
no_reorient
no_com
}

set {
basis jun-cc-pvdz
scf_type df
guess sad
freeze_core true
}

energy('fisapt0')
--------------------------------------------------------------------------

  Memory set to 698.492 GiB by Python driver.

*** tstart() called on ThinkPad-P50
*** at Tue Dec 12 11:10:25 2017

   => Loading Basis Set <=

    Name: JUN-CC-PVDZ
    Role: ORBITAL
    Keyword: BASIS
    atoms 1, 4, 8, 11, 15, 20-25   entry C          line   157 file /home/junteng/Softwares/psi4conda/share/psi4/basis/jun-cc-pvdz.gbs 
    atoms 2-3, 9-10                entry O          line   225 file /home/junteng/Softwares/psi4conda/share/psi4/basis/jun-cc-pvdz.gbs 
    atoms 5-7, 12-14, 16-19, 26-27 entry H          line    35 file /home/junteng/Softwares/psi4conda/share/psi4/basis/jun-cc-pvdz.gbs 


         ---------------------------------------------------------
                                   SCF
            by Justin Turney, Rob Parrish, and Andy Simmonett
                              RHF Reference
                        1 Threads, 715255 MiB Core
         ---------------------------------------------------------

  ==> Geometry <==

    Molecular point group: c1
    Full point group: C1

    Geometry (in Angstrom), charge = 0, multiplicity = 1:

       Center              X                  Y                   Z               Mass       
    ------------   -----------------  -----------------  -----------------  -----------------
           C         -0.932560000000     1.216200000000    -0.271230000000    12.000000000000
           O         -1.227110000000     1.723160000000    -1.324320000000    15.994914619560
           O         -0.828090000000     1.877980000000     0.893020000000    15.994914619560
           C         -0.903130000000     3.313630000000     0.804470000000    12.000000000000
           H         -1.853000000000     3.622490000000     0.365640000000     1.007825032070
           H         -0.079240000000     3.686050000000     0.194160000000     1.007825032070
           H         -0.816750000000     3.671120000000     1.828040000000     1.007825032070
           C          1.737900000000     0.005160000000    -0.098700000000    12.000000000000
           O          1.726050000000     1.192820000000    -0.329830000000    15.994914619560
           O          2.878200000000    -0.696870000000     0.070940000000    15.994914619560
           C          4.101140000000     0.049160000000    -0.059200000000    12.000000000000
           H          4.165490000000     0.505200000000    -1.048130000000     1.007825032070
           H          4.897770000000    -0.677890000000     0.081910000000     1.007825032070
           H          4.154010000000     0.830050000000     0.700910000000     1.007825032070
           C         -3.284350000000    -0.449850000000    -0.111590000000    12.000000000000
           H         -4.054940000000    -1.202250000000     0.063890000000     1.007825032070
           H         -3.444680000000    -0.020140000000    -1.103640000000     1.007825032070
           H         -3.425150000000     0.352880000000     0.617640000000     1.007825032070
           H          1.622670000000    -2.681160000000     0.249590000000     1.007825032070
           C          0.523420000000    -0.851400000000     0.018990000000    12.000000000000
           C         -0.749890000000    -0.264840000000    -0.070410000000    12.000000000000
           C          0.639200000000    -2.237040000000     0.186360000000    12.000000000000
           C         -0.500360000000    -3.025740000000     0.265410000000    12.000000000000
           C         -1.758890000000    -2.437730000000     0.171490000000    12.000000000000
           C         -1.906840000000    -1.059140000000    -0.001010000000    12.000000000000
           H         -2.647460000000    -3.057260000000     0.233280000000     1.007825032070
           H         -0.410970000000    -4.097930000000     0.397390000000     1.007825032070

  Running in c1 symmetry.

  Rotational constants: A =      0.02453  B =      0.01924  C =      0.01168 [cm^-1]
  Rotational constants: A =    735.36987  B =    576.81962  C =    350.27254 [MHz]
  Nuclear repulsion = 1007.094564243047103

  Charge       = 0
  Multiplicity = 1
  Electrons    = 110
  Nalpha       = 55
  Nbeta        = 55

  ==> Algorithm <==

  SCF Algorithm Type is DF.
  DIIS enabled.
  MOM disabled.
  Fractional occupation disabled.
  Guess Type is SAD.
  Energy threshold   = 1.00e-08
  Density threshold  = 1.00e-08
  Integral threshold = 0.00e+00

  ==> Primary Basis <==

  Basis Set: JUN-CC-PVDZ
    Blend: JUN-CC-PVDZ
    Number of shells: 156
    Number of basis function: 330
    Number of Cartesian functions: 345
    Spherical Harmonics?: true
    Max angular momentum: 2

   => Loading Basis Set <=

    Name: (JUN-CC-PVDZ AUX)
    Role: JKFIT
    Keyword: DF_BASIS_SCF
    atoms 1, 4, 8, 11, 15, 20-25   entry C          line   145 file /home/junteng/Softwares/psi4conda/share/psi4/basis/jun-cc-pvdz-jkfit.gbs 
    atoms 2-3, 9-10                entry O          line   257 file /home/junteng/Softwares/psi4conda/share/psi4/basis/jun-cc-pvdz-jkfit.gbs 
    atoms 5-7, 12-14, 16-19, 26-27 entry H          line    69 file /home/junteng/Softwares/psi4conda/share/psi4/basis/jun-cc-pvdz-jkfit.gbs 

  ==> Pre-Iterations <==

   -------------------------------------------------------
    Irrep   Nso     Nmo     Nalpha   Nbeta   Ndocc  Nsocc
   -------------------------------------------------------
     A        330     330       0       0       0       0
   -------------------------------------------------------
    Total     330     330      55      55      55       0
   -------------------------------------------------------

  ==> Integral Setup <==

  ==> DFJK: Density-Fitted J/K Matrices <==

    J tasked:                  Yes
    K tasked:                  Yes
    wK tasked:                  No
    OpenMP threads:              1
    Integrals threads:           1
    Memory (MB):            536441
    Algorithm:                Core
    Integral Cache:           NONE
    Schwarz Cutoff:          1E-12
    Fitting Condition:       1E-12

   => Auxiliary Basis Set <=

  Basis Set: (JUN-CC-PVDZ AUX)
    Blend: JUN-CC-PVDZ-JKFIT
    Number of shells: 513
    Number of basis function: 1461
    Number of Cartesian functions: 1665
    Spherical Harmonics?: true
    Max angular momentum: 3

  Minimum eigenvalue in the overlap matrix is 3.6702691255E-06.
  Using Symmetric Orthogonalization.

  SCF Guess: Superposition of Atomic Densities via on-the-fly atomic UHF.

  ==> Iterations <==

                           Total Energy        Delta E     RMS |[F,P]|

   @DF-RHF iter   0:  -729.04273516182036   -7.29043e+02   2.18621e-02 
   @DF-RHF iter   1:  -722.62361678884110    6.41912e+00   2.55295e-03 
   @DF-RHF iter   2:  -722.97147276949136   -3.47856e-01   1.48494e-03 DIIS
   @DF-RHF iter   3:  -723.06916799292674   -9.76952e-02   4.64938e-04 DIIS
   @DF-RHF iter   4:  -723.08469503683204   -1.55270e-02   1.47891e-04 DIIS
   @DF-RHF iter   5:  -723.08637609601453   -1.68106e-03   4.44438e-05 DIIS
   @DF-RHF iter   6:  -723.08664672980751   -2.70634e-04   1.97873e-05 DIIS
   @DF-RHF iter   7:  -723.08670154446497   -5.48147e-05   7.29388e-06 DIIS
   @DF-RHF iter   8:  -723.08671073132405   -9.18686e-06   2.95846e-06 DIIS
   @DF-RHF iter   9:  -723.08671240132617   -1.67000e-06   1.47277e-06 DIIS
   @DF-RHF iter  10:  -723.08671281241880   -4.11093e-07   5.87243e-07 DIIS
   @DF-RHF iter  11:  -723.08671288512551   -7.27067e-08   2.45805e-07 DIIS
   @DF-RHF iter  12:  -723.08671289778681   -1.26613e-08   1.05618e-07 DIIS
   @DF-RHF iter  13:  -723.08671289997460   -2.18779e-09   4.66776e-08 DIIS
   @DF-RHF iter  14:  -723.08671290043515   -4.60545e-10   2.04261e-08 DIIS
   @DF-RHF iter  15:  -723.08671290052541   -9.02673e-11   6.62441e-09 DIIS

  ==> Post-Iterations <==

    Orbital Energies (a.u.)
    -----------------------

    Doubly Occupied:                                                      

       1A    -20.615792     2A    -20.604424     3A    -20.560014  
       4A    -20.550059     5A    -11.399525     6A    -11.391180  
       7A    -11.299331     8A    -11.287261     9A    -11.274603  
      10A    -11.271535    11A    -11.267347    12A    -11.260672  
      13A    -11.260199    14A    -11.256436    15A    -11.238515  
      16A     -1.472557    17A     -1.460838    18A     -1.370578  
      19A     -1.361103    20A     -1.183877    21A     -1.076052  
      22A     -1.062082    23A     -0.994280    24A     -0.969270  
      25A     -0.946100    26A     -0.882751    27A     -0.844478  
      28A     -0.784951    29A     -0.778207    30A     -0.736334  
      31A     -0.712306    32A     -0.687421    33A     -0.678592  
      34A     -0.674094    35A     -0.671707    36A     -0.654735  
      37A     -0.637064    38A     -0.611470    39A     -0.592037  
      40A     -0.584959    41A     -0.579182    42A     -0.563676  
      43A     -0.556608    44A     -0.541107    45A     -0.537061  
      46A     -0.530047    47A     -0.521166    48A     -0.510261  
      49A     -0.500699    50A     -0.471388    51A     -0.457265  
      52A     -0.453105    53A     -0.445704    54A     -0.356522  
      55A     -0.342234  

    Virtual:                                                              

      56A      0.053787    57A      0.054565    58A      0.063986  
      59A      0.067440    60A      0.072002    61A      0.079328  
      62A      0.087769    63A      0.093527    64A      0.094526  
      65A      0.098269    66A      0.104372    67A      0.113413  
      68A      0.115767    69A      0.117179    70A      0.127765  
      71A      0.129462    72A      0.134641    73A      0.143412  
      74A      0.150744    75A      0.153556    76A      0.166094  
      77A      0.172616    78A      0.177570    79A      0.181361  
      80A      0.186252    81A      0.192787    82A      0.196175  
      83A      0.203118    84A      0.206053    85A      0.215280  
      86A      0.218723    87A      0.223711    88A      0.230962  
      89A      0.236366    90A      0.236573    91A      0.242457  
      92A      0.250439    93A      0.258983    94A      0.263146  
      95A      0.267022    96A      0.271594    97A      0.278335  
      98A      0.287639    99A      0.291522   100A      0.298593  
     101A      0.303559   102A      0.305329   103A      0.314231  
     104A      0.324907   105A      0.330901   106A      0.332030  
     107A      0.334342   108A      0.341106   109A      0.350851  
     110A      0.353098   111A      0.359943   112A      0.366771  
     113A      0.370266   114A      0.375647   115A      0.380940  
     116A      0.388910   117A      0.392738   118A      0.405711  
     119A      0.413153   120A      0.416349   121A      0.421969  
     122A      0.423851   123A      0.425831   124A      0.430130  
     125A      0.445510   126A      0.447555   127A      0.458061  
     128A      0.463388   129A      0.474102   130A      0.480761  
     131A      0.484634   132A      0.489962   133A      0.504705  
     134A      0.514350   135A      0.531355   136A      0.537854  
     137A      0.542319   138A      0.561949   139A      0.592454  
     140A      0.606573   141A      0.618899   142A      0.624259  
     143A      0.660211   144A      0.709801   145A      0.721933  
     146A      0.743889   147A      0.754742   148A      0.767711  
     149A      0.777731   150A      0.794125   151A      0.804050  
     152A      0.821614   153A      0.844190   154A      0.847424  
     155A      0.857015   156A      0.859805   157A      0.864805  
     158A      0.873854   159A      0.893775   160A      0.906098  
     161A      0.911856   162A      0.917783   163A      0.920142  
     164A      0.925421   165A      0.932167   166A      0.936619  
     167A      0.939847   168A      0.944562   169A      0.947966  
     170A      0.960640   171A      0.967097   172A      0.971313  
     173A      0.975553   174A      0.986983   175A      0.993710  
     176A      1.005403   177A      1.014902   178A      1.023009  
     179A      1.030323   180A      1.047746   181A      1.064190  
     182A      1.074021   183A      1.088691   184A      1.112091  
     185A      1.117731   186A      1.136866   187A      1.142656  
     188A      1.164185   189A      1.176491   190A      1.187919  
     191A      1.210808   192A      1.218298   193A      1.235742  
     194A      1.246329   195A      1.248840   196A      1.259271  
     197A      1.280932   198A      1.287597   199A      1.306249  
     200A      1.313150   201A      1.327491   202A      1.355275  
     203A      1.360683   204A      1.371689   205A      1.405101  
     206A      1.425065   207A      1.448585   208A      1.457308  
     209A      1.475667   210A      1.486515   211A      1.517472  
     212A      1.522766   213A      1.544893   214A      1.556620  
     215A      1.562669   216A      1.572560   217A      1.583430  
     218A      1.614590   219A      1.623144   220A      1.638984  
     221A      1.656663   222A      1.660416   223A      1.672558  
     224A      1.676980   225A      1.687697   226A      1.692200  
     227A      1.711027   228A      1.712199   229A      1.740507  
     230A      1.753053   231A      1.765779   232A      1.784708  
     233A      1.805257   234A      1.810674   235A      1.824839  
     236A      1.843701   237A      1.860334   238A      1.877718  
     239A      1.892684   240A      1.910652   241A      1.911424  
     242A      1.921063   243A      1.925366   244A      1.952518  
     245A      1.953995   246A      1.962864   247A      1.981720  
     248A      1.987267   249A      1.998678   250A      2.001978  
     251A      2.012524   252A      2.017434   253A      2.027806  
     254A      2.039523   255A      2.044026   256A      2.052126  
     257A      2.069882   258A      2.072926   259A      2.084979  
     260A      2.105577   261A      2.135057   262A      2.144532  
     263A      2.150768   264A      2.159514   265A      2.175118  
     266A      2.180535   267A      2.208414   268A      2.221578  
     269A      2.243535   270A      2.249998   271A      2.280228  
     272A      2.296359   273A      2.358325   274A      2.372095  
     275A      2.378325   276A      2.383079   277A      2.393576  
     278A      2.406073   279A      2.406705   280A      2.429337  
     281A      2.436539   282A      2.439698   283A      2.484794  
     284A      2.503939   285A      2.520958   286A      2.544858  
     287A      2.587763   288A      2.605477   289A      2.646201  
     290A      2.714204   291A      2.737198   292A      2.754204  
     293A      2.780066   294A      2.787129   295A      2.789126  
     296A      2.807321   297A      2.828899   298A      2.842079  
     299A      2.854139   300A      2.871376   301A      2.878879  
     302A      2.884174   303A      2.920338   304A      2.932265  
     305A      2.986385   306A      3.012736   307A      3.017919  
     308A      3.052442   309A      3.109885   310A      3.115237  
     311A      3.123275   312A      3.152766   313A      3.173360  
     314A      3.245829   315A      3.282231   316A      3.284631  
     317A      3.330244   318A      3.380374   319A      3.440245  
     320A      3.550674   321A      3.581812   322A      3.662959  
     323A      3.679433   324A      3.768972   325A      3.784726  
     326A      3.851370   327A      3.945585   328A      3.998012  
     329A      4.069325   330A      4.093566  

    Final Occupation by Irrep:
              A 
    DOCC [    55 ]

  Energy converged.

  @DF-RHF Final Energy:  -723.08671290052541

   => Energetics <=

    Nuclear Repulsion Energy =           1007.0945642430471025
    One-Electron Energy =               -2987.7010349054517064
    Two-Electron Energy =                1257.5197577618791911
    DFT Exchange-Correlation Energy =       0.0000000000000000
    Empirical Dispersion Energy =           0.0000000000000000
    PCM Polarization Energy =               0.0000000000000000
    EFP Energy =                            0.0000000000000000
    Total Energy =                       -723.0867129005255265



Properties will be evaluated at   0.000000,   0.000000,   0.000000 Bohr

Properties computed using the SCF density matrix

  Nuclear Dipole Moment: (a.u.)
     X:     0.5556      Y:    -1.4015      Z:     3.9054

  Electronic Dipole Moment: (a.u.)
     X:    -0.3317      Y:     0.5732      Z:    -3.0714

  Dipole Moment: (a.u.)
     X:     0.2239      Y:    -0.8284      Z:     0.8340     Total:     1.1966

  Dipole Moment: (Debye)
     X:     0.5690      Y:    -2.1055      Z:     2.1198     Total:     3.0415


*** tstop() called on ThinkPad-P50 at Tue Dec 12 11:13:24 2017
Module time:
	user time   =     174.79 seconds =       2.91 minutes
	system time =       1.59 seconds =       0.03 minutes
	total time  =        179 seconds =       2.98 minutes
Total time:
	user time   =     174.79 seconds =       2.91 minutes
	system time =       1.59 seconds =       0.03 minutes
	total time  =        179 seconds =       2.98 minutes
   => Loading Basis Set <=

    Name: (JUN-CC-PVDZ AUX)
    Role: JKFIT
    Keyword: DF_BASIS_SCF
    atoms 1, 4, 8, 11, 15, 20-25   entry C          line   145 file /home/junteng/Softwares/psi4conda/share/psi4/basis/jun-cc-pvdz-jkfit.gbs 
    atoms 2-3, 9-10                entry O          line   257 file /home/junteng/Softwares/psi4conda/share/psi4/basis/jun-cc-pvdz-jkfit.gbs 
    atoms 5-7, 12-14, 16-19, 26-27 entry H          line    69 file /home/junteng/Softwares/psi4conda/share/psi4/basis/jun-cc-pvdz-jkfit.gbs 

   => Loading Basis Set <=

    Name: (JUN-CC-PVDZ AUX)
    Role: RIFIT
    Keyword: DF_BASIS_SAPT
    atoms 1, 4, 8, 11, 15, 20-25   entry C          line    99 file /home/junteng/Softwares/psi4conda/share/psi4/basis/jun-cc-pvdz-ri.gbs 
    atoms 2-3, 9-10                entry O          line   187 file /home/junteng/Softwares/psi4conda/share/psi4/basis/jun-cc-pvdz-ri.gbs 
    atoms 5-7, 12-14, 16-19, 26-27 entry H          line    29 file /home/junteng/Softwares/psi4conda/share/psi4/basis/jun-cc-pvdz-ri.gbs 

   => Loading Basis Set <=

    Name: CC-PVTZ-MINAO
    Role: ORBITAL
    Keyword: BASIS
    atoms 1, 4, 8, 11, 15, 20-25   entry C          line   130 file /home/junteng/Softwares/psi4conda/share/psi4/basis/cc-pvtz-minao.gbs 
    atoms 2-3, 9-10                entry O          line   190 file /home/junteng/Softwares/psi4conda/share/psi4/basis/cc-pvtz-minao.gbs 
    atoms 5-7, 12-14, 16-19, 26-27 entry H          line    19 file /home/junteng/Softwares/psi4conda/share/psi4/basis/cc-pvtz-minao.gbs 


*** tstart() called on ThinkPad-P50
*** at Tue Dec 12 11:13:26 2017

	 --------------------------------------------
	                    FISAPT0                  
	                  Rob Parrish                
	 --------------------------------------------

    Do F-SAPT =         Yes
    Do Plot   =          No
    Memory    =      78.580 [GD]

  ==> Localization (IBO) <==

  ==> IBO Localizer 2 <==

    MinAO Basis = CC-PVTZ-MINAO
    Use Ghosts  =       FALSE
    Use Stars   =       FALSE
    Condition   =   1.000E-07
    Power       =           4
    Convergence =   1.000E-12
    Maxiter     =        1000

    @IBO Iter:                   Metric       Gradient
    @IBO    1:   1.9445830932496462E+00   3.390737E+00
    @IBO    2:   2.1860299278342730E+00   1.847560E+00
    @IBO    3:   2.2520813110901630E+00   9.441802E-01
    @IBO    4:   2.2593065729961510E+00   5.058472E-02
    @IBO    5:   2.2593358014764942E+00   1.377971E-03
    @IBO    6:   2.2593358312011889E+00   1.358753E-04
    @IBO    7:   2.2593358321232260E+00   2.936327E-05
    @IBO    8:   2.2593358321684902E+00   6.567204E-06
    @IBO    9:   2.2593358321707910E+00   1.484170E-06
    @IBO   10:   2.2593358321709105E+00   3.385775E-07
    @IBO   11:   2.2593358321709167E+00   7.796223E-08
    @IBO   12:   2.2593358321709167E+00   1.811684E-08
    @IBO   13:   2.2593358321709172E+00   4.245879E-09
    @IBO   14:   2.2593358321709172E+00   1.002512E-09
    @IBO   15:   2.2593358321709176E+00   2.381866E-10
    @IBO   16:   2.2593358321709172E+00   5.687449E-11
    @IBO   17:   2.2593358321709172E+00   1.363346E-11
    @IBO   18:   2.2593358321709176E+00   3.277754E-12
    @IBO   19:   2.2593358321709172E+00   7.897607E-13

    IBO Localizer 2 converged.

  ==> Partitioning <==

   => Atomic Partitioning <= 

    Monomer A:   7 atoms
    Monomer B:   7 atoms
    Monomer C:  13 atoms

   => Link Bond Identification <=

    Link Bond Selection = AUTOMATIC

    Charge Completeness = 0.800

    Total Link Bonds = 2

    --------------------------
    N     Orb Type Aind1 Aind2
    --------------------------
    1      18   AC     1    21
    2      30   BC     8    20
    --------------------------

   => Link Bond Assignment <=

    Link Bond Assignment      = C

   => Partition Summary <=

    Monomer A:  0 charge,  30 protons,  30 electrons,  15 docc
    Monomer B:  0 charge,  30 protons,  30 electrons,  15 docc
    Monomer C:  0 charge,  50 protons,  50 electrons,  25 docc

  ==> Overlap Integrals <==

  ==> Kinetic Integrals <==

  ==> Nuclear Integrals <==

    Nuclear Repulsion Tot:   1.0070945642430464E+03 [Eh]

  ==> Coulomb Integrals <==

  ==> DFJK: Density-Fitted J/K Matrices <==

    J tasked:                  Yes
    K tasked:                  Yes
    wK tasked:                  No
    OpenMP threads:              1
    Integrals threads:           1
    Memory (MB):            643730
    Algorithm:                Core
    Integral Cache:           NONE
    Schwarz Cutoff:          1E-12
    Fitting Condition:       1E-12

   => Auxiliary Basis Set <=

  Basis Set: (JUN-CC-PVDZ AUX)
    Blend: JUN-CC-PVDZ-JKFIT
    Number of shells: 513
    Number of basis function: 1461
    Number of Cartesian functions: 1665
    Spherical Harmonics?: true
    Max angular momentum: 3

  ==> Relaxed SCF Equations <==

  ==> SCF A: <==

    Maxiter =          50
    E Tol   =   1.000E-06
    D Tol   =   1.000E-08

    Max DIIS Vectors = 5

    Iter   N:                        E          dE         |D|
    Iter   1:  -2.2443112000344362E+02  -2.244E+02   7.316E-04 
    Iter   2:  -2.2444047484917201E+02  -9.355E-03   4.854E-05 DIIS
    Iter   3:  -2.2444065458922165E+02  -1.797E-04   1.606E-05 DIIS
    Iter   4:  -2.2444066839373141E+02  -1.380E-05   7.541E-06 DIIS
    Iter   5:  -2.2444067166274857E+02  -3.269E-06   2.100E-06 DIIS
    Iter   6:  -2.2444067199330840E+02  -3.306E-07   7.111E-07 DIIS
    Iter   7:  -2.2444067204583763E+02  -5.253E-08   2.810E-07 DIIS
    Iter   8:  -2.2444067205389067E+02  -8.053E-09   1.157E-07 DIIS
    Iter   9:  -2.2444067205525658E+02  -1.366E-09   4.594E-08 DIIS
    Iter  10:  -2.2444067205554083E+02  -2.842E-10   1.805E-08 DIIS
    Iter  11:  -2.2444067205557758E+02  -3.675E-11   1.168E-08 DIIS
    Iter  12:  -2.2444067205559233E+02  -1.475E-11   4.776E-09 DIIS

    FISAPTSCF Converged.

    Final SCF Energy:  -2.2444067205559233E+02 [Eh]

   => Occupied Orbital Energies <=

       1  -20.614414     2  -20.558407     3  -11.398046  
       4  -11.298577     5   -1.445938     6   -1.366459  
       7   -0.967621     8   -0.773104     9   -0.677713  
      10   -0.670385    11   -0.626094    12   -0.550702  
      13   -0.540896    14   -0.481915    15   -0.466061  

   => Virtual Orbital Energies <=

      16    0.031735    17    0.056302    18    0.058919  
      19    0.069735    20    0.073171    21    0.078494  
      22    0.081870    23    0.093932    24    0.096381  
      25    0.104680    26    0.106408    27    0.117288  
      28    0.120631    29    0.122765    30    0.127333  
      31    0.130961    32    0.135952    33    0.141607  
      34    0.144069    35    0.151746    36    0.155549  
      37    0.161505    38    0.170640    39    0.176437  
      40    0.178562    41    0.185941    42    0.197169  
      43    0.197707    44    0.203594    45    0.206121  
      46    0.210564    47    0.217402    48    0.224704  
      49    0.231232    50    0.239342    51    0.250391  
      52    0.254744    53    0.258746    54    0.264454  
      55    0.265089    56    0.269430    57    0.274960  
      58    0.281663    59    0.289998    60    0.292507  
      61    0.295393    62    0.303661    63    0.313162  
      64    0.316491    65    0.324059    66    0.327966  
      67    0.333467    68    0.337265    69    0.346120  
      70    0.349189    71    0.357041    72    0.358730  
      73    0.362892    74    0.371923    75    0.376247  
      76    0.384780    77    0.396765    78    0.400875  
      79    0.406573    80    0.414835    81    0.419461  
      82    0.428343    83    0.433968    84    0.439481  
      85    0.444762    86    0.449332    87    0.461699  
      88    0.466635    89    0.473711    90    0.494676  
      91    0.503434    92    0.515386    93    0.520847  
      94    0.535772    95    0.559627    96    0.569561  
      97    0.578361    98    0.584483    99    0.607689  
     100    0.613436   101    0.627238   102    0.633169  
     103    0.637763   104    0.643067   105    0.682319  
     106    0.715937   107    0.726173   108    0.747752  
     109    0.766159   110    0.778099   111    0.795315  
     112    0.801782   113    0.818557   114    0.838806  
     115    0.850038   116    0.857887   117    0.869455  
     118    0.879401   119    0.888162   120    0.904677  
     121    0.915491   122    0.920942   123    0.924312  
     124    0.933646   125    0.939317   126    0.940686  
     127    0.947951   128    0.954201   129    0.965210  
     130    0.970744   131    0.980890   132    0.985219  
     133    0.992496   134    1.004503   135    1.012107  
     136    1.016622   137    1.035570   138    1.040833  
     139    1.069947   140    1.074890   141    1.081938  
     142    1.096063   143    1.115277   144    1.145615  
     145    1.152528   146    1.170260   147    1.181665  
     148    1.200731   149    1.205692   150    1.231864  
     151    1.247050   152    1.271824   153    1.282686  
     154    1.289895   155    1.301318   156    1.324268  
     157    1.327875   158    1.344897   159    1.355752  
     160    1.367709   161    1.384137   162    1.419862  
     163    1.428130   164    1.459298   165    1.484949  
     166    1.488211   167    1.510663   168    1.521891  
     169    1.543556   170    1.552882   171    1.557412  
     172    1.574776   173    1.585295   174    1.608661  
     175    1.631028   176    1.639588   177    1.652950  
     178    1.658581   179    1.673715   180    1.693997  
     181    1.709996   182    1.729406   183    1.739908  
     184    1.753536   185    1.775026   186    1.805290  
     187    1.812526   188    1.820835   189    1.827849  
     190    1.856700   191    1.871964   192    1.887397  
     193    1.909843   194    1.916378   195    1.925416  
     196    1.940957   197    1.946642   198    1.966015  
     199    1.970154   200    1.984954   201    1.992410  
     202    2.004116   203    2.010855   204    2.021156  
     205    2.024929   206    2.029516   207    2.044235  
     208    2.048872   209    2.062523   210    2.075365  
     211    2.093687   212    2.108200   213    2.129978  
     214    2.141529   215    2.149279   216    2.160483  
     217    2.165975   218    2.182334   219    2.185523  
     220    2.211747   221    2.255978   222    2.259143  
     223    2.264264   224    2.278441   225    2.293541  
     226    2.319946   227    2.327433   228    2.339390  
     229    2.352560   230    2.367173   231    2.386897  
     232    2.397172   233    2.399106   234    2.409639  
     235    2.429291   236    2.447170   237    2.470882  
     238    2.501376   239    2.540622   240    2.552368  
     241    2.570434   242    2.595612   243    2.643541  
     244    2.660292   245    2.666482   246    2.677743  
     247    2.691910   248    2.709646   249    2.757679  
     250    2.772904   251    2.796189   252    2.797016  
     253    2.815318   254    2.832274   255    2.850239  
     256    2.860548   257    2.872778   258    2.879396  
     259    2.885647   260    2.892213   261    2.906444  
     262    2.955963   263    2.975438   264    3.037581  
     265    3.054842   266    3.082338   267    3.108253  
     268    3.115837   269    3.178460   270    3.212123  
     271    3.276773   272    3.322955   273    3.380305  
     274    3.424993   275    3.576263   276    3.613114  
     277    3.670437   278    3.762677   279    3.814387  
     280    3.923135   281    3.957769   282    3.997311  
     283    4.055339   284    4.147016   285    4.259395  
     286    4.431313   287    4.505113   288    4.580491  
     289    4.744046   290    4.952137   291    5.039130  
     292    5.063669   293    5.209699   294    5.328036  
     295    5.540381   296    5.556084   297    5.623078  
     298    5.895912   299    6.064746   300    6.358777  
     301    6.733795   302   13.403193   303   18.427128  
     304   33.422617   305   33.477644  

  ==> SCF B: <==

    Maxiter =          50
    E Tol   =   1.000E-06
    D Tol   =   1.000E-08

    Max DIIS Vectors = 5

    Iter   N:                        E          dE         |D|
    Iter   1:  -2.2389229618629994E+02  -2.239E+02   1.062E-03 
    Iter   2:  -2.2391005429683776E+02  -1.776E-02   5.971E-05 DIIS
    Iter   3:  -2.2391032950345445E+02  -2.752E-04   2.043E-05 DIIS
    Iter   4:  -2.2391035124894964E+02  -2.175E-05   9.515E-06 DIIS
    Iter   5:  -2.2391035630051567E+02  -5.052E-06   1.722E-06 DIIS
    Iter   6:  -2.2391035659030879E+02  -2.898E-07   7.971E-07 DIIS
    Iter   7:  -2.2391035663620102E+02  -4.589E-08   2.523E-07 DIIS
    Iter   8:  -2.2391035664259351E+02  -6.392E-09   1.031E-07 DIIS
    Iter   9:  -2.2391035664361502E+02  -1.022E-09   3.983E-08 DIIS
    Iter  10:  -2.2391035664382457E+02  -2.096E-10   1.646E-08 DIIS
    Iter  11:  -2.2391035664385564E+02  -3.106E-11   6.818E-09 DIIS

    FISAPTSCF Converged.

    Final SCF Energy:  -2.2391035664385564E+02 [Eh]

   => Occupied Orbital Energies <=

       1  -20.603506     2  -20.540378     3  -11.383050  
       4  -11.290907     5   -1.433963     6   -1.348620  
       7   -0.958437     8   -0.762236     9   -0.663686  
      10   -0.656460    11   -0.618264    12   -0.531834  
      13   -0.531182    14   -0.466445    15   -0.455405  

   => Virtual Orbital Energies <=

      16    0.040549    17    0.056083    18    0.058195  
      19    0.068364    20    0.073698    21    0.082132  
      22    0.089811    23    0.090924    24    0.094376  
      25    0.097776    26    0.102791    27    0.109364  
      28    0.119356    29    0.124140    30    0.125674  
      31    0.129276    32    0.133834    33    0.140542  
      34    0.143765    35    0.151746    36    0.158770  
      37    0.161245    38    0.177132    39    0.178586  
      40    0.182010    41    0.186304    42    0.198428  
      43    0.202795    44    0.207126    45    0.215335  
      46    0.217933    47    0.222587    48    0.227800  
      49    0.236181    50    0.240132    51    0.249295  
      52    0.256263    53    0.257202    54    0.264651  
      55    0.265505    56    0.272441    57    0.277429  
      58    0.281550    59    0.289922    60    0.294362  
      61    0.303176    62    0.304024    63    0.310197  
      64    0.326099    65    0.328078    66    0.330430  
      67    0.335449    68    0.341483    69    0.344516  
      70    0.347754    71    0.353290    72    0.361991  
      73    0.369096    74    0.377143    75    0.380264  
      76    0.382716    77    0.396770    78    0.406014  
      79    0.409113    80    0.417397    81    0.422289  
      82    0.427638    83    0.431516    84    0.441548  
      85    0.446285    86    0.461779    87    0.469095  
      88    0.478710    89    0.490691    90    0.495358  
      91    0.498476    92    0.509529    93    0.520781  
      94    0.527483    95    0.540488    96    0.545151  
      97    0.566275    98    0.572721    99    0.601824  
     100    0.631866   101    0.636961   102    0.647233  
     103    0.657586   104    0.666289   105    0.689255  
     106    0.705669   107    0.745556   108    0.760236  
     109    0.769892   110    0.793275   111    0.805575  
     112    0.819150   113    0.838493   114    0.841635  
     115    0.871468   116    0.877847   117    0.881443  
     118    0.896164   119    0.899129   120    0.918658  
     121    0.922837   122    0.929771   123    0.932202  
     124    0.940298   125    0.942768   126    0.954351  
     127    0.960422   128    0.965256   129    0.969040  
     130    0.973772   131    0.977387   132    0.987499  
     133    1.002745   134    1.012347   135    1.022193  
     136    1.030594   137    1.047921   138    1.059119  
     139    1.063734   140    1.090370   141    1.097509  
     142    1.110172   143    1.120519   144    1.145314  
     145    1.156467   146    1.168822   147    1.179918  
     148    1.195468   149    1.209205   150    1.214325  
     151    1.227380   152    1.238849   153    1.246093  
     154    1.276264   155    1.286496   156    1.311838  
     157    1.317307   158    1.320099   159    1.332506  
     160    1.347670   161    1.369652   162    1.380673  
     163    1.422677   164    1.449470   165    1.462623  
     166    1.494339   167    1.520575   168    1.535897  
     169    1.550391   170    1.562422   171    1.571538  
     172    1.583902   173    1.590618   174    1.605183  
     175    1.607460   176    1.636808   177    1.653220  
     178    1.668210   179    1.683104   180    1.700854  
     181    1.723546   182    1.736394   183    1.758622  
     184    1.772429   185    1.783752   186    1.805286  
     187    1.826161   188    1.830014   189    1.840357  
     190    1.840677   191    1.868806   192    1.880965  
     193    1.912502   194    1.915169   195    1.927198  
     196    1.930660   197    1.943257   198    1.955094  
     199    1.968872   200    1.975931   201    2.001769  
     202    2.008748   203    2.022553   204    2.028071  
     205    2.037509   206    2.040942   207    2.053732  
     208    2.055109   209    2.067487   210    2.080576  
     211    2.092429   212    2.111220   213    2.124024  
     214    2.131573   215    2.153829   216    2.156185  
     217    2.167555   218    2.178290   219    2.192087  
     220    2.211620   221    2.227864   222    2.251948  
     223    2.278360   224    2.279522   225    2.315410  
     226    2.330634   227    2.350057   228    2.361349  
     229    2.364661   230    2.382516   231    2.387285  
     232    2.400881   233    2.409301   234    2.434536  
     235    2.449993   236    2.454485   237    2.481346  
     238    2.529938   239    2.536343   240    2.553638  
     241    2.588691   242    2.605666   243    2.631884  
     244    2.650949   245    2.664347   246    2.683950  
     247    2.713746   248    2.740255   249    2.767845  
     250    2.791172   251    2.800554   252    2.813371  
     253    2.850192   254    2.858523   255    2.864244  
     256    2.875021   257    2.885692   258    2.896096  
     259    2.905326   260    2.924911   261    2.962006  
     262    2.973164   263    3.016012   264    3.023388  
     265    3.034141   266    3.066959   267    3.129802  
     268    3.164873   269    3.193998   270    3.214210  
     271    3.257606   272    3.299391   273    3.424544  
     274    3.486275   275    3.565956   276    3.633797  
     277    3.695673   278    3.734508   279    3.822436  
     280    3.908024   281    3.956476   282    4.049049  
     283    4.096795   284    4.150662   285    4.198999  
     286    4.452977   287    4.530604   288    4.553691  
     289    4.765659   290    4.932841   291    5.056956  
     292    5.077901   293    5.221385   294    5.327342  
     295    5.501148   296    5.596121   297    5.741592  
     298    5.842574   299    6.080423   300    6.371618  
     301    6.682711   302   13.380649   303   18.437479  
     304   33.430876   305   33.479302  

  ==> Frozen Core <==


    ------------------
    Range      A     B
    ------------------
    nbf      330   330
    nmo      305   305
    nocc      15    15
    nvir     290   290
    nfocc      4     4
    naocc     11    11
    navir    290   290
    nfvir      0     0
    ------------------

  ==> Unification <==

  ==> dHF <==

    E ABC(HF) =  -7.2308671290052541E+02 [Eh]
    E AC(0)   =  -4.9504715443102248E+02 [Eh]
    E BC(0)   =  -4.9511852231668979E+02 [Eh]
    E A(0)    =  -2.1266565629036194E+02 [Eh]
    E B(0)    =  -2.1263880451606397E+02 [Eh]
    E AC(HF)  =  -4.9503760237887298E+02 [Eh]
    E BC(HF)  =  -4.9510046185913450E+02 [Eh]
    E AB(HF)  =  -4.2526666588107355E+02 [Eh]
    E A(HF)   =  -2.1264683675579590E+02 [Eh]
    E B(HF)   =  -2.1260942795997781E+02 [Eh]
    E C       =  -2.6706175250277226E+02 [Eh]
    E HF      =   1.7211344414590712E-02 [Eh]

  ==> Electrostatics <==

    Elst10,r            =     0.012119199719 [Eh]

  ==> Exchange <==

    Exch10(S^2)         =     0.007958244691 [Eh]
    Exch10              =     0.007993517549 [Eh]

  ==> Induction <==

    Ind20,u (A<-B)      =    -0.001621465442 [Eh]
    Ind20,u (B<-A)      =    -0.002512605742 [Eh]
    Ind20,u             =    -0.004134071184 [Eh]
    Exch-Ind20,u (A<-B) =     0.000720713838 [Eh]
    Exch-Ind20,u (B<-A) =     0.001505054736 [Eh]
    Exch-Ind20,u        =     0.002225768574 [Eh]

  ==> CPHF Iterations <==

    Maxiter     =          50
    Convergence =   1.000E-08

    -----------------------------------------
    Iter   Monomer A    Monomer B    Time [s]
    -----------------------------------------
    1      1.701E-01    2.403E-01          22
    2      5.887E-02    9.324E-02          40
    3      1.615E-02    2.095E-02          58
    4      5.750E-03    7.948E-03          77
    5      2.002E-03    2.377E-03          95
    6      7.003E-04    8.877E-04         113
    7      3.185E-04    2.938E-04         132
    8      1.200E-04    1.210E-04         149
    9      2.748E-05    2.398E-05         168
    10     7.691E-06    8.504E-06         189
    11     2.698E-06    3.363E-06         206
    12     6.950E-07    7.700E-07         220
    13     2.331E-07    1.810E-07         237
    14     5.386E-08    4.884E-08         254
    15     9.259E-09*   9.557E-09*        278
    -----------------------------------------

    Ind20,r (A<-B)      =    -0.001810956317 [Eh]
    Ind20,r (B<-A)      =    -0.003106252254 [Eh]
    Ind20,r             =    -0.004917208572 [Eh]
    Exch-Ind20,r (A<-B) =     0.000836151779 [Eh]
    Exch-Ind20,r (B<-A) =     0.001993668541 [Eh]
    Exch-Ind20,r        =     0.002829820320 [Eh]

  ==> F-SAPT Localization (IBO) <==

  Local Orbitals for Monomer A:

  ==> IBO Localizer 2 <==

    MinAO Basis = CC-PVTZ-MINAO
    Use Ghosts  =       FALSE
    Use Stars   =       FALSE
    Condition   =   1.000E-07
    Power       =           4
    Convergence =   1.000E-12
    Maxiter     =        1000

    @IBO Iter:                   Metric       Gradient
    @IBO    1:   1.4822553258621405E+00   1.686943E+00
    @IBO    2:   1.6770172435868198E+00   9.424635E-01
    @IBO    3:   1.7087818615655697E+00   3.266423E-01
    @IBO    4:   1.7101044060408854E+00   3.093177E-03
    @IBO    5:   1.7101047417959834E+00   1.461853E-04
    @IBO    6:   1.7101047420809192E+00   3.217210E-06
    @IBO    7:   1.7101047420811490E+00   1.234339E-07
    @IBO    8:   1.7101047420811493E+00   4.725955E-09
    @IBO    9:   1.7101047420811493E+00   1.958155E-10
    @IBO   10:   1.7101047420811493E+00   8.370167E-12
    @IBO   11:   1.7101047420811495E+00   3.622833E-13

    IBO Localizer 2 converged.

  Local Orbitals for Monomer B:

  ==> IBO Localizer 2 <==

    MinAO Basis = CC-PVTZ-MINAO
    Use Ghosts  =       FALSE
    Use Stars   =       FALSE
    Condition   =   1.000E-07
    Power       =           4
    Convergence =   1.000E-12
    Maxiter     =        1000

    @IBO Iter:                   Metric       Gradient
    @IBO    1:   1.4840814668947746E+00   1.582135E+00
    @IBO    2:   1.6771005415076992E+00   1.038549E+00
    @IBO    3:   1.7099055761934545E+00   3.310092E-01
    @IBO    4:   1.7112848242114249E+00   5.559768E-03
    @IBO    5:   1.7112855929723514E+00   1.604637E-04
    @IBO    6:   1.7112855933368334E+00   2.467244E-06
    @IBO    7:   1.7112855933369506E+00   6.479268E-08
    @IBO    8:   1.7112855933369508E+00   1.518400E-09
    @IBO    9:   1.7112855933369506E+00   4.264153E-11
    @IBO   10:   1.7112855933369506E+00   1.434666E-12
    @IBO   11:   1.7112855933369508E+00   5.346419E-14

    IBO Localizer 2 converged.

  ==> F-SAPT Electrostatics <==

  ==> DFERI: Density Fitted 3-Index Tensors <==

    Schwarz cutoff =   0.000E+00
    J cutoff       =   1.000E-12
    Mem (GB)       =         628

   => Auxiliary Basis <=

  Basis Set: (JUN-CC-PVDZ AUX)
    Blend: JUN-CC-PVDZ-JKFIT
    Number of shells: 513
    Number of basis function: 1461
    Number of Cartesian functions: 1665
    Spherical Harmonics?: true
    Max angular momentum: 3

    Elst10,r            =     0.012119198479 [Eh]

  ==> F-SAPT Exchange <==

  ==> DFERI: Density Fitted 3-Index Tensors <==

    Schwarz cutoff =   0.000E+00
    J cutoff       =   1.000E-12
    Mem (GB)       =         628

   => Auxiliary Basis <=

  Basis Set: (JUN-CC-PVDZ AUX)
    Blend: JUN-CC-PVDZ-JKFIT
    Number of shells: 513
    Number of basis function: 1461
    Number of Cartesian functions: 1665
    Spherical Harmonics?: true
    Max angular momentum: 3

    Exch10(S^2)         =     0.007958244690 [Eh]

    Scaling F-SAPT Exch10(S^2) by   1.004E+00 to match Exch10

  ==> F-SAPT Induction <==

  ==> DFERI: Density Fitted 3-Index Tensors <==

    Schwarz cutoff =   0.000E+00
    J cutoff       =   1.000E-12
    Mem (GB)       =         628

   => Auxiliary Basis <=

  Basis Set: (JUN-CC-PVDZ AUX)
    Blend: JUN-CC-PVDZ-JKFIT
    Number of shells: 513
    Number of basis function: 1461
    Number of Cartesian functions: 1665
    Spherical Harmonics?: true
    Max angular momentum: 3

    Ind20,u (A<-B)      =    -0.001621465444 [Eh]
    Ind20,u (B<-A)      =    -0.002512605744 [Eh]
    Ind20,u             =    -0.004134071188 [Eh]
    Exch-Ind20,u (A<-B) =     0.000720713838 [Eh]
    Exch-Ind20,u (B<-A) =     0.001505054736 [Eh]
    Exch-Ind20,u        =     0.002225768574 [Eh]

    Scaling for delta HF        =   1.390E+00
    Scaling for response (A<-B) =   1.082E+00
    Scaling for response (B<-A) =   1.104E+00
    Scaling for total (A<-B)    =   1.504E+00
    Scaling for total (B<-A)    =   1.535E+00

  ==> F-SAPT Dispersion <==

  ==> DFERI: Density Fitted 3-Index Tensors <==

    Schwarz cutoff =   0.000E+00
    J cutoff       =   1.000E-12
    Mem (GB)       =         628

   => Auxiliary Basis <=

  Basis Set: (JUN-CC-PVDZ AUX)
    Blend: JUN-CC-PVDZ-RI
    Number of shells: 387
    Number of basis function: 1143
    Number of Cartesian functions: 1320
    Spherical Harmonics?: true
    Max angular momentum: 3

    Disp20              =    -0.004094604175 [Eh]
    Exch-Disp20         =     0.000617725294 [Eh]

  ==> F-SAPT Output <==

    F-SAPT Data Filepath = fsapt/

  ==> Results <==


    SAPT Results  
  --------------------------------------------------------------------------------------------------------
    Electrostatics                 12.11919972 [mEh]       7.60491296 [kcal/mol]      31.81895886 [kJ/mol]
      Elst10,r                     12.11919972 [mEh]       7.60491296 [kcal/mol]      31.81895886 [kJ/mol]

    Exchange                        7.99351755 [mEh]       5.01600820 [kcal/mol]      20.98698033 [kJ/mol]
      Exch10                        7.99351755 [mEh]       5.01600820 [kcal/mol]      20.98698033 [kJ/mol]
      Exch10(S^2)                   7.95824469 [mEh]       4.99387415 [kcal/mol]      20.89437144 [kJ/mol]

    Induction                      -2.90137285 [mEh]      -1.82063903 [kcal/mol]      -7.61755443 [kJ/mol]
      Ind20,r                      -4.91720857 [mEh]      -3.08559509 [kcal/mol]     -12.91013110 [kJ/mol]
      Exch-Ind20,r                  2.82982032 [mEh]       1.77573913 [kcal/mol]       7.42969325 [kJ/mol]
      delta HF,r (2)               -0.81398460 [mEh]      -0.51078307 [kcal/mol]      -2.13711657 [kJ/mol]
      Induction (A<-B)             -1.35493310 [mEh]      -0.85023339 [kcal/mol]      -3.55737684 [kJ/mol]
      Induction (B<-A)             -1.54643976 [mEh]      -0.97040564 [kcal/mol]      -4.06017758 [kJ/mol]

    Dispersion                     -3.47687888 [mEh]      -2.18177453 [kcal/mol]      -9.12854550 [kJ/mol]
      Disp20                       -4.09460418 [mEh]      -2.56940302 [kcal/mol]     -10.75038326 [kJ/mol]
      Exch-Disp20                   0.61772529 [mEh]       0.38762849 [kcal/mol]       1.62183776 [kJ/mol]

  Total HF                         17.21134441 [mEh]      10.80028213 [kcal/mol]      45.18838476 [kJ/mol]
  Total SAPT0                      13.73446553 [mEh]       8.61850760 [kcal/mol]      36.05983926 [kJ/mol]

  --------------------------------------------------------------------------------------------------------
    Han Solo: This is *not* gonna work.
    Luke Skywalker: Why didn't you say so before?
    Han Solo: I *did* say so before.

*** tstop() called on ThinkPad-P50 at Tue Dec 12 11:27:02 2017
Module time:
	user time   =     794.53 seconds =      13.24 minutes
	system time =       8.38 seconds =       0.14 minutes
	total time  =        816 seconds =      13.60 minutes
Total time:
	user time   =     971.68 seconds =      16.19 minutes
	system time =       9.97 seconds =       0.17 minutes
	total time  =        997 seconds =      16.62 minutes

*** Psi4 exiting successfully. Buy a developer a beer!
