
    -----------------------------------------------------------------------
          Psi4: An Open-Source Ab Initio Electronic Structure Package
                               Psi4 1.1 release

                         Git: Rev {HEAD} add49b9 


    R. M. Parrish, L. A. Burns, D. G. A. Smith, A. C. Simmonett,
    A. E. DePrince III, E. G. Hohenstein, U. Bozkaya, A. Yu. Sokolov,
    R. Di Remigio, R. M. Richard, J. F. Gonthier, A. M. James,
    H. R. McAlexander, A. Kumar, M. Saitow, X. Wang, B. P. Pritchard,
    P. Verma, H. F. Schaefer III, K. Patkowski, R. A. King, E. F. Valeev,
    F. A. Evangelista, J. M. Turney, T. D. Crawford, and C. D. Sherrill,
    J. Chem. Theory Comput. in press (2017).
    (doi: 10.1021/acs.jctc.7b00174)

    -----------------------------------------------------------------------


    Psi4 started on: Tuesday, 12 December 2017 11:27AM

    Process ID:  15415
    PSIDATADIR: /home/junteng/Softwares/psi4conda/share/psi4
    Memory:     500.0 MiB
    Threads:    1
    
  ==> Input File <==

--------------------------------------------------------------------------
memory 750000 mb

molecule mol {
0 1
C         -0.26977        1.55258       -0.01368
O         -0.87738        2.59778        0.04803
O          1.07462        1.50982       -0.11135
C          1.75431        2.77291       -0.18321
H          1.61142        3.33499        0.74113
H          1.38006        3.35869       -1.02345
H          2.80404        2.52639       -0.32584
--
0 1
C          1.41158       -0.97308       -0.30650
O          1.97797       -1.03529       -1.36832
O          2.02902       -1.03435        0.88757
C          3.46675       -1.07995        0.84648
H          3.80747       -1.95782        0.29548
H          3.85872       -0.18136        0.36704
H          3.78468       -1.13024        1.88535
--
0 1
C         -3.24074        1.21513        0.26800
H         -4.26187        0.84040        0.36232
H         -3.18931        1.88550       -0.59124
H         -3.00859        1.82547        1.14246
H         -0.04368       -3.11179       -0.26601
C         -0.08472       -0.96996       -0.13685
C         -0.87994        0.18868       -0.00323
C         -0.66973       -2.23481       -0.15143
C         -2.04631       -2.36724       -0.02220
C         -2.83536       -1.23334        0.11590
C         -2.28665        0.05330        0.12432
H         -3.90949       -1.33978        0.21788
H         -2.50180       -3.35118       -0.03020

symmetry c1
no_reorient
no_com
}

set {
basis jun-cc-pvdz
scf_type df
guess sad
freeze_core true
}

energy('fisapt0')
--------------------------------------------------------------------------

  Memory set to 698.492 GiB by Python driver.

*** tstart() called on ThinkPad-P50
*** at Tue Dec 12 11:27:03 2017

   => Loading Basis Set <=

    Name: JUN-CC-PVDZ
    Role: ORBITAL
    Keyword: BASIS
    atoms 1, 4, 8, 11, 15, 20-25   entry C          line   157 file /home/junteng/Softwares/psi4conda/share/psi4/basis/jun-cc-pvdz.gbs 
    atoms 2-3, 9-10                entry O          line   225 file /home/junteng/Softwares/psi4conda/share/psi4/basis/jun-cc-pvdz.gbs 
    atoms 5-7, 12-14, 16-19, 26-27 entry H          line    35 file /home/junteng/Softwares/psi4conda/share/psi4/basis/jun-cc-pvdz.gbs 


         ---------------------------------------------------------
                                   SCF
            by Justin Turney, Rob Parrish, and Andy Simmonett
                              RHF Reference
                        1 Threads, 715255 MiB Core
         ---------------------------------------------------------

  ==> Geometry <==

    Molecular point group: c1
    Full point group: C1

    Geometry (in Angstrom), charge = 0, multiplicity = 1:

       Center              X                  Y                   Z               Mass       
    ------------   -----------------  -----------------  -----------------  -----------------
           C         -0.269770000000     1.552580000000    -0.013680000000    12.000000000000
           O         -0.877380000000     2.597780000000     0.048030000000    15.994914619560
           O          1.074620000000     1.509820000000    -0.111350000000    15.994914619560
           C          1.754310000000     2.772910000000    -0.183210000000    12.000000000000
           H          1.611420000000     3.334990000000     0.741130000000     1.007825032070
           H          1.380060000000     3.358690000000    -1.023450000000     1.007825032070
           H          2.804040000000     2.526390000000    -0.325840000000     1.007825032070
           C          1.411580000000    -0.973080000000    -0.306500000000    12.000000000000
           O          1.977970000000    -1.035290000000    -1.368320000000    15.994914619560
           O          2.029020000000    -1.034350000000     0.887570000000    15.994914619560
           C          3.466750000000    -1.079950000000     0.846480000000    12.000000000000
           H          3.807470000000    -1.957820000000     0.295480000000     1.007825032070
           H          3.858720000000    -0.181360000000     0.367040000000     1.007825032070
           H          3.784680000000    -1.130240000000     1.885350000000     1.007825032070
           C         -3.240740000000     1.215130000000     0.268000000000    12.000000000000
           H         -4.261870000000     0.840400000000     0.362320000000     1.007825032070
           H         -3.189310000000     1.885500000000    -0.591240000000     1.007825032070
           H         -3.008590000000     1.825470000000     1.142460000000     1.007825032070
           H         -0.043680000000    -3.111790000000    -0.266010000000     1.007825032070
           C         -0.084720000000    -0.969960000000    -0.136850000000    12.000000000000
           C         -0.879940000000     0.188680000000    -0.003230000000    12.000000000000
           C         -0.669730000000    -2.234810000000    -0.151430000000    12.000000000000
           C         -2.046310000000    -2.367240000000    -0.022200000000    12.000000000000
           C         -2.835360000000    -1.233340000000     0.115900000000    12.000000000000
           C         -2.286650000000     0.053300000000     0.124320000000    12.000000000000
           H         -3.909490000000    -1.339780000000     0.217880000000     1.007825032070
           H         -2.501800000000    -3.351180000000    -0.030200000000     1.007825032070

  Running in c1 symmetry.

  Rotational constants: A =      0.02692  B =      0.01886  C =      0.01207 [cm^-1]
  Rotational constants: A =    806.97940  B =    565.28245  C =    361.97790 [MHz]
  Nuclear repulsion = 1013.523923683643943

  Charge       = 0
  Multiplicity = 1
  Electrons    = 110
  Nalpha       = 55
  Nbeta        = 55

  ==> Algorithm <==

  SCF Algorithm Type is DF.
  DIIS enabled.
  MOM disabled.
  Fractional occupation disabled.
  Guess Type is SAD.
  Energy threshold   = 1.00e-08
  Density threshold  = 1.00e-08
  Integral threshold = 0.00e+00

  ==> Primary Basis <==

  Basis Set: JUN-CC-PVDZ
    Blend: JUN-CC-PVDZ
    Number of shells: 156
    Number of basis function: 330
    Number of Cartesian functions: 345
    Spherical Harmonics?: true
    Max angular momentum: 2

   => Loading Basis Set <=

    Name: (JUN-CC-PVDZ AUX)
    Role: JKFIT
    Keyword: DF_BASIS_SCF
    atoms 1, 4, 8, 11, 15, 20-25   entry C          line   145 file /home/junteng/Softwares/psi4conda/share/psi4/basis/jun-cc-pvdz-jkfit.gbs 
    atoms 2-3, 9-10                entry O          line   257 file /home/junteng/Softwares/psi4conda/share/psi4/basis/jun-cc-pvdz-jkfit.gbs 
    atoms 5-7, 12-14, 16-19, 26-27 entry H          line    69 file /home/junteng/Softwares/psi4conda/share/psi4/basis/jun-cc-pvdz-jkfit.gbs 

  ==> Pre-Iterations <==

   -------------------------------------------------------
    Irrep   Nso     Nmo     Nalpha   Nbeta   Ndocc  Nsocc
   -------------------------------------------------------
     A        330     330       0       0       0       0
   -------------------------------------------------------
    Total     330     330      55      55      55       0
   -------------------------------------------------------

  ==> Integral Setup <==

  ==> DFJK: Density-Fitted J/K Matrices <==

    J tasked:                  Yes
    K tasked:                  Yes
    wK tasked:                  No
    OpenMP threads:              1
    Integrals threads:           1
    Memory (MB):            536441
    Algorithm:                Core
    Integral Cache:           NONE
    Schwarz Cutoff:          1E-12
    Fitting Condition:       1E-12

   => Auxiliary Basis Set <=

  Basis Set: (JUN-CC-PVDZ AUX)
    Blend: JUN-CC-PVDZ-JKFIT
    Number of shells: 513
    Number of basis function: 1461
    Number of Cartesian functions: 1665
    Spherical Harmonics?: true
    Max angular momentum: 3

  Minimum eigenvalue in the overlap matrix is 3.5495111223E-06.
  Using Symmetric Orthogonalization.

  SCF Guess: Superposition of Atomic Densities via on-the-fly atomic UHF.

  ==> Iterations <==

                           Total Energy        Delta E     RMS |[F,P]|

   @DF-RHF iter   0:  -728.91048831036642   -7.28910e+02   2.17169e-02 
   @DF-RHF iter   1:  -722.61197782579825    6.29851e+00   2.60230e-03 
   @DF-RHF iter   2:  -722.95367658800717   -3.41699e-01   1.59643e-03 DIIS
   @DF-RHF iter   3:  -723.06236532317303   -1.08689e-01   4.87215e-04 DIIS
   @DF-RHF iter   4:  -723.07835221858943   -1.59869e-02   1.50956e-04 DIIS
   @DF-RHF iter   5:  -723.08011477520620   -1.76256e-03   4.61389e-05 DIIS
   @DF-RHF iter   6:  -723.08043043857742   -3.15663e-04   2.14361e-05 DIIS
   @DF-RHF iter   7:  -723.08052006300500   -8.96244e-05   9.26554e-06 DIIS
   @DF-RHF iter   8:  -723.08053872678681   -1.86638e-05   3.40272e-06 DIIS
   @DF-RHF iter   9:  -723.08054117808797   -2.45130e-06   1.57588e-06 DIIS
   @DF-RHF iter  10:  -723.08054158330287   -4.05215e-07   5.54794e-07 DIIS
   @DF-RHF iter  11:  -723.08054163466636   -5.13635e-08   2.13653e-07 DIIS
   @DF-RHF iter  12:  -723.08054164220107   -7.53471e-09   8.40927e-08 DIIS
   @DF-RHF iter  13:  -723.08054164348334   -1.28227e-09   2.98089e-08 DIIS
   @DF-RHF iter  14:  -723.08054164364864   -1.65301e-10   1.37415e-08 DIIS
   @DF-RHF iter  15:  -723.08054164368059   -3.19460e-11   5.76719e-09 DIIS

  ==> Post-Iterations <==

    Orbital Energies (a.u.)
    -----------------------

    Doubly Occupied:                                                      

       1A    -20.614248     2A    -20.611925     3A    -20.557234  
       4A    -20.555507     5A    -11.399471     6A    -11.398369  
       7A    -11.299090     8A    -11.297244     9A    -11.282276  
      10A    -11.276328    11A    -11.272929    12A    -11.265758  
      13A    -11.257123    14A    -11.251201    15A    -11.230628  
      16A     -1.474754    17A     -1.466084    18A     -1.369079  
      19A     -1.367069    20A     -1.183903    21A     -1.074742  
      22A     -1.065118    23A     -0.995513    24A     -0.975344  
      25A     -0.944787    26A     -0.885180    27A     -0.840868  
      28A     -0.790370    29A     -0.780348    30A     -0.740001  
      31A     -0.710736    32A     -0.694650    33A     -0.681146  
      34A     -0.675036    35A     -0.671089    36A     -0.660858  
      37A     -0.644339    38A     -0.610922    39A     -0.590708  
      40A     -0.584542    41A     -0.583017    42A     -0.559797  
      43A     -0.550273    44A     -0.545981    45A     -0.540098  
      46A     -0.530506    47A     -0.520450    48A     -0.512109  
      49A     -0.503077    50A     -0.473229    51A     -0.458828  
      52A     -0.455382    53A     -0.447332    54A     -0.358751  
      55A     -0.342880  

    Virtual:                                                              

      56A      0.054296    57A      0.057371    58A      0.059836  
      59A      0.067448    60A      0.070274    61A      0.079427  
      62A      0.086467    63A      0.093174    64A      0.096778  
      65A      0.099285    66A      0.104152    67A      0.112003  
      68A      0.113060    69A      0.116338    70A      0.127631  
      71A      0.130724    72A      0.137752    73A      0.143616  
      74A      0.145583    75A      0.151703    76A      0.164164  
      77A      0.166617    78A      0.173217    79A      0.175646  
      80A      0.179350    81A      0.190994    82A      0.199829  
      83A      0.202185    84A      0.208129    85A      0.213406  
      86A      0.219431    87A      0.224123    88A      0.225255  
      89A      0.234583    90A      0.239743    91A      0.242120  
      92A      0.249119    93A      0.257216    94A      0.261657  
      95A      0.265945    96A      0.269584    97A      0.271141  
      98A      0.288575    99A      0.292152   100A      0.295216  
     101A      0.299387   102A      0.304292   103A      0.308667  
     104A      0.315968   105A      0.326444   106A      0.332933  
     107A      0.341975   108A      0.343303   109A      0.348629  
     110A      0.349435   111A      0.365078   112A      0.366475  
     113A      0.373141   114A      0.376499   115A      0.384485  
     116A      0.392143   117A      0.395092   118A      0.397529  
     119A      0.402316   120A      0.412334   121A      0.418082  
     122A      0.422114   123A      0.425473   124A      0.430263  
     125A      0.438060   126A      0.452708   127A      0.457002  
     128A      0.461719   129A      0.468350   130A      0.477218  
     131A      0.488767   132A      0.500341   133A      0.503367  
     134A      0.512558   135A      0.519023   136A      0.522316  
     137A      0.544747   138A      0.567888   139A      0.574189  
     140A      0.588580   141A      0.620241   142A      0.640641  
     143A      0.668606   144A      0.687961   145A      0.721403  
     146A      0.744067   147A      0.766976   148A      0.772468  
     149A      0.777105   150A      0.787298   151A      0.801064  
     152A      0.818262   153A      0.834129   154A      0.835075  
     155A      0.861520   156A      0.867704   157A      0.876929  
     158A      0.882983   159A      0.890732   160A      0.898628  
     161A      0.916240   162A      0.919220   163A      0.925590  
     164A      0.929937   165A      0.932975   166A      0.936203  
     167A      0.940264   168A      0.946435   169A      0.951851  
     170A      0.959201   171A      0.968468   172A      0.970922  
     173A      0.979782   174A      0.986276   175A      0.997510  
     176A      1.002451   177A      1.017266   178A      1.026899  
     179A      1.031213   180A      1.043137   181A      1.062633  
     182A      1.066275   183A      1.069538   184A      1.114551  
     185A      1.129653   186A      1.136078   187A      1.154787  
     188A      1.158655   189A      1.187258   190A      1.196760  
     191A      1.205430   192A      1.216560   193A      1.225145  
     194A      1.244160   195A      1.245622   196A      1.262720  
     197A      1.274205   198A      1.291755   199A      1.301503  
     200A      1.306420   201A      1.325525   202A      1.350797  
     203A      1.371926   204A      1.388180   205A      1.389489  
     206A      1.405911   207A      1.431355   208A      1.440313  
     209A      1.486011   210A      1.489218   211A      1.507070  
     212A      1.519468   213A      1.538139   214A      1.559647  
     215A      1.571587   216A      1.592685   217A      1.594496  
     218A      1.604949   219A      1.614513   220A      1.628137  
     221A      1.642041   222A      1.651046   223A      1.665376  
     224A      1.668194   225A      1.690161   226A      1.696677  
     227A      1.707377   228A      1.712201   229A      1.754213  
     230A      1.766065   231A      1.781724   232A      1.791945  
     233A      1.796811   234A      1.810827   235A      1.847526  
     236A      1.850630   237A      1.871689   238A      1.879596  
     239A      1.889904   240A      1.917700   241A      1.924187  
     242A      1.930514   243A      1.945205   244A      1.956744  
     245A      1.961016   246A      1.967635   247A      1.987845  
     248A      1.990659   249A      1.994784   250A      2.007008  
     251A      2.010188   252A      2.016581   253A      2.026433  
     254A      2.043465   255A      2.057008   256A      2.067114  
     257A      2.070488   258A      2.093849   259A      2.096267  
     260A      2.110247   261A      2.135775   262A      2.140217  
     263A      2.149565   264A      2.156239   265A      2.167807  
     266A      2.171908   267A      2.184620   268A      2.223642  
     269A      2.256221   270A      2.262936   271A      2.274121  
     272A      2.300959   273A      2.345116   274A      2.362811  
     275A      2.382757   276A      2.387054   277A      2.402997  
     278A      2.408235   279A      2.417837   280A      2.431743  
     281A      2.433605   282A      2.442924   283A      2.478339  
     284A      2.499148   285A      2.515968   286A      2.579092  
     287A      2.592755   288A      2.605815   289A      2.644432  
     290A      2.684014   291A      2.746344   292A      2.756986  
     293A      2.774598   294A      2.777494   295A      2.786919  
     296A      2.806337   297A      2.824056   298A      2.848176  
     299A      2.860577   300A      2.871909   301A      2.876816  
     302A      2.887665   303A      2.922903   304A      2.956774  
     305A      2.992850   306A      3.003116   307A      3.009791  
     308A      3.047707   309A      3.100535   310A      3.103584  
     311A      3.130612   312A      3.145894   313A      3.174731  
     314A      3.245342   315A      3.274076   316A      3.289799  
     317A      3.333658   318A      3.371076   319A      3.438820  
     320A      3.549621   321A      3.574419   322A      3.646570  
     323A      3.684799   324A      3.755852   325A      3.795064  
     326A      3.836556   327A      3.937968   328A      3.997011  
     329A      4.073571   330A      4.088447  

    Final Occupation by Irrep:
              A 
    DOCC [    55 ]

  Energy converged.

  @DF-RHF Final Energy:  -723.08054164368059

   => Energetics <=

    Nuclear Repulsion Energy =           1013.5239236836439431
    One-Electron Energy =               -3000.3524848849474438
    Two-Electron Energy =                1263.7480195576229107
    DFT Exchange-Correlation Energy =       0.0000000000000000
    Empirical Dispersion Energy =           0.0000000000000000
    PCM Polarization Energy =               0.0000000000000000
    EFP Energy =                            0.0000000000000000
    Total Energy =                       -723.0805416436805899



Properties will be evaluated at   0.000000,   0.000000,   0.000000 Bohr

Properties computed using the SCF density matrix

  Nuclear Dipole Moment: (a.u.)
     X:    -0.2230      Y:     1.0361      Z:     3.1142

  Electronic Dipole Moment: (a.u.)
     X:     0.3887      Y:    -1.4543      Z:    -2.4079

  Dipole Moment: (a.u.)
     X:     0.1658      Y:    -0.4183      Z:     0.7063     Total:     0.8374

  Dipole Moment: (Debye)
     X:     0.4214      Y:    -1.0631      Z:     1.7953     Total:     2.1286


*** tstop() called on ThinkPad-P50 at Tue Dec 12 11:30:44 2017
Module time:
	user time   =     217.25 seconds =       3.62 minutes
	system time =       1.67 seconds =       0.03 minutes
	total time  =        221 seconds =       3.68 minutes
Total time:
	user time   =     217.25 seconds =       3.62 minutes
	system time =       1.67 seconds =       0.03 minutes
	total time  =        221 seconds =       3.68 minutes
   => Loading Basis Set <=

    Name: (JUN-CC-PVDZ AUX)
    Role: JKFIT
    Keyword: DF_BASIS_SCF
    atoms 1, 4, 8, 11, 15, 20-25   entry C          line   145 file /home/junteng/Softwares/psi4conda/share/psi4/basis/jun-cc-pvdz-jkfit.gbs 
    atoms 2-3, 9-10                entry O          line   257 file /home/junteng/Softwares/psi4conda/share/psi4/basis/jun-cc-pvdz-jkfit.gbs 
    atoms 5-7, 12-14, 16-19, 26-27 entry H          line    69 file /home/junteng/Softwares/psi4conda/share/psi4/basis/jun-cc-pvdz-jkfit.gbs 

   => Loading Basis Set <=

    Name: (JUN-CC-PVDZ AUX)
    Role: RIFIT
    Keyword: DF_BASIS_SAPT
    atoms 1, 4, 8, 11, 15, 20-25   entry C          line    99 file /home/junteng/Softwares/psi4conda/share/psi4/basis/jun-cc-pvdz-ri.gbs 
    atoms 2-3, 9-10                entry O          line   187 file /home/junteng/Softwares/psi4conda/share/psi4/basis/jun-cc-pvdz-ri.gbs 
    atoms 5-7, 12-14, 16-19, 26-27 entry H          line    29 file /home/junteng/Softwares/psi4conda/share/psi4/basis/jun-cc-pvdz-ri.gbs 

   => Loading Basis Set <=

    Name: CC-PVTZ-MINAO
    Role: ORBITAL
    Keyword: BASIS
    atoms 1, 4, 8, 11, 15, 20-25   entry C          line   130 file /home/junteng/Softwares/psi4conda/share/psi4/basis/cc-pvtz-minao.gbs 
    atoms 2-3, 9-10                entry O          line   190 file /home/junteng/Softwares/psi4conda/share/psi4/basis/cc-pvtz-minao.gbs 
    atoms 5-7, 12-14, 16-19, 26-27 entry H          line    19 file /home/junteng/Softwares/psi4conda/share/psi4/basis/cc-pvtz-minao.gbs 


*** tstart() called on ThinkPad-P50
*** at Tue Dec 12 11:30:45 2017

	 --------------------------------------------
	                    FISAPT0                  
	                  Rob Parrish                
	 --------------------------------------------

    Do F-SAPT =         Yes
    Do Plot   =          No
    Memory    =      78.580 [GD]

  ==> Localization (IBO) <==

  ==> IBO Localizer 2 <==

    MinAO Basis = CC-PVTZ-MINAO
    Use Ghosts  =       FALSE
    Use Stars   =       FALSE
    Condition   =   1.000E-07
    Power       =           4
    Convergence =   1.000E-12
    Maxiter     =        1000

    @IBO Iter:                   Metric       Gradient
    @IBO    1:   1.9570368362458024E+00   2.250565E+00
    @IBO    2:   2.1885017804254185E+00   1.890279E+00
    @IBO    3:   2.2536607095331291E+00   9.391740E-01
    @IBO    4:   2.2599581353073876E+00   9.925573E-02
    @IBO    5:   2.2600162515048492E+00   1.067926E-03
    @IBO    6:   2.2600162607746115E+00   4.934135E-05
    @IBO    7:   2.2600162608513261E+00   1.006166E-05
    @IBO    8:   2.2600162608548455E+00   2.219265E-06
    @IBO    9:   2.2600162608550245E+00   4.946971E-07
    @IBO   10:   2.2600162608550338E+00   1.099909E-07
    @IBO   11:   2.2600162608550343E+00   2.430519E-08
    @IBO   12:   2.2600162608550343E+00   5.336224E-09
    @IBO   13:   2.2600162608550343E+00   1.164873E-09
    @IBO   14:   2.2600162608550343E+00   2.530773E-10
    @IBO   15:   2.2600162608550338E+00   5.477184E-11
    @IBO   16:   2.2600162608550343E+00   1.181764E-11
    @IBO   17:   2.2600162608550343E+00   2.543611E-12
    @IBO   18:   2.2600162608550338E+00   5.464232E-13

    IBO Localizer 2 converged.

  ==> Partitioning <==

   => Atomic Partitioning <= 

    Monomer A:   7 atoms
    Monomer B:   7 atoms
    Monomer C:  13 atoms

   => Link Bond Identification <=

    Link Bond Selection = AUTOMATIC

    Charge Completeness = 0.800

    Total Link Bonds = 2

    --------------------------
    N     Orb Type Aind1 Aind2
    --------------------------
    1      18   AC     1    21
    2      29   BC     8    20
    --------------------------

   => Link Bond Assignment <=

    Link Bond Assignment      = C

   => Partition Summary <=

    Monomer A:  0 charge,  30 protons,  30 electrons,  15 docc
    Monomer B:  0 charge,  30 protons,  30 electrons,  15 docc
    Monomer C:  0 charge,  50 protons,  50 electrons,  25 docc

  ==> Overlap Integrals <==

  ==> Kinetic Integrals <==

  ==> Nuclear Integrals <==

    Nuclear Repulsion Tot:   1.0135239236836435E+03 [Eh]

  ==> Coulomb Integrals <==

  ==> DFJK: Density-Fitted J/K Matrices <==

    J tasked:                  Yes
    K tasked:                  Yes
    wK tasked:                  No
    OpenMP threads:              1
    Integrals threads:           1
    Memory (MB):            643730
    Algorithm:                Core
    Integral Cache:           NONE
    Schwarz Cutoff:          1E-12
    Fitting Condition:       1E-12

   => Auxiliary Basis Set <=

  Basis Set: (JUN-CC-PVDZ AUX)
    Blend: JUN-CC-PVDZ-JKFIT
    Number of shells: 513
    Number of basis function: 1461
    Number of Cartesian functions: 1665
    Spherical Harmonics?: true
    Max angular momentum: 3

  ==> Relaxed SCF Equations <==

  ==> SCF A: <==

    Maxiter =          50
    E Tol   =   1.000E-06
    D Tol   =   1.000E-08

    Max DIIS Vectors = 5

    Iter   N:                        E          dE         |D|
    Iter   1:  -2.2391342051252872E+02  -2.239E+02   1.171E-03 
    Iter   2:  -2.2393528868443752E+02  -2.187E-02   7.340E-05 DIIS
    Iter   3:  -2.2393560645569229E+02  -3.178E-04   2.944E-05 DIIS
    Iter   4:  -2.2393564285840841E+02  -3.640E-05   1.176E-05 DIIS
    Iter   5:  -2.2393564978028070E+02  -6.922E-06   2.019E-06 DIIS
    Iter   6:  -2.2393565013566351E+02  -3.554E-07   7.345E-07 DIIS
    Iter   7:  -2.2393565018838626E+02  -5.272E-08   2.330E-07 DIIS
    Iter   8:  -2.2393565019280391E+02  -4.418E-09   9.605E-08 DIIS
    Iter   9:  -2.2393565019347045E+02  -6.665E-10   3.682E-08 DIIS
    Iter  10:  -2.2393565019359727E+02  -1.268E-10   1.409E-08 DIIS
    Iter  11:  -2.2393565019361156E+02  -1.430E-11   6.368E-09 DIIS

    FISAPTSCF Converged.

    Final SCF Energy:  -2.2393565019361156E+02 [Eh]

   => Occupied Orbital Energies <=

       1  -20.599918     2  -20.542322     3  -11.385463  
       4  -11.290398     5   -1.433378     6   -1.350806  
       7   -0.957770     8   -0.761770     9   -0.664397  
      10   -0.655312    11   -0.617816    12   -0.533071  
      13   -0.531054    14   -0.469486    15   -0.455302  

   => Virtual Orbital Energies <=

      16    0.030916    17    0.056813    18    0.060457  
      19    0.065027    20    0.070696    21    0.078767  
      22    0.087081    23    0.092422    24    0.097229  
      25    0.100937    26    0.103536    27    0.110190  
      28    0.113058    29    0.117243    30    0.124031  
      31    0.131328    32    0.138245    33    0.139785  
      34    0.144103    35    0.150861    36    0.153586  
      37    0.161096    38    0.165438    39    0.176552  
      40    0.180733    41    0.185323    42    0.192188  
      43    0.201137    44    0.209966    45    0.215339  
      46    0.220672    47    0.224308    48    0.229576  
      49    0.236934    50    0.242874    51    0.246812  
      52    0.250278    53    0.257275    54    0.260516  
      55    0.271136    56    0.272514    57    0.276162  
      58    0.281585    59    0.284983    60    0.292204  
      61    0.295056    62    0.304085    63    0.311917  
      64    0.317065    65    0.323614    66    0.328647  
      67    0.331467    68    0.338566    69    0.344238  
      70    0.347550    71    0.356314    72    0.357650  
      73    0.373574    74    0.379554    75    0.382303  
      76    0.389414    77    0.399738    78    0.403570  
      79    0.406337    80    0.406944    81    0.415687  
      82    0.425254    83    0.427968    84    0.441420  
      85    0.447897    86    0.464335    87    0.471626  
      88    0.473152    89    0.484004    90    0.486830  
      91    0.499158    92    0.503506    93    0.519821  
      94    0.525073    95    0.538855    96    0.550227  
      97    0.566191    98    0.595265    99    0.599430  
     100    0.613111   101    0.624497   102    0.639565  
     103    0.649562   104    0.678740   105    0.690591  
     106    0.693201   107    0.737802   108    0.753974  
     109    0.785622   110    0.793593   111    0.800200  
     112    0.813903   113    0.837809   114    0.844779  
     115    0.862588   116    0.878664   117    0.884705  
     118    0.887910   119    0.898807   120    0.907597  
     121    0.920532   122    0.930143   123    0.939816  
     124    0.947161   125    0.947657   126    0.954552  
     127    0.956675   128    0.969298   129    0.977202  
     130    0.985105   131    0.992603   132    0.998961  
     133    1.003456   134    1.011063   135    1.014411  
     136    1.022868   137    1.049252   138    1.052622  
     139    1.066859   140    1.081581   141    1.095656  
     142    1.108885   143    1.126892   144    1.146373  
     145    1.160824   146    1.164843   147    1.167380  
     148    1.200610   149    1.214115   150    1.218833  
     151    1.237319   152    1.245413   153    1.254034  
     154    1.266860   155    1.288874   156    1.293653  
     157    1.307979   158    1.323845   159    1.333590  
     160    1.341206   161    1.371458   162    1.376161  
     163    1.400489   164    1.450006   165    1.463088  
     166    1.498754   167    1.513758   168    1.531314  
     169    1.540984   170    1.557296   171    1.567667  
     172    1.586178   173    1.602605   174    1.613432  
     175    1.622271   176    1.626348   177    1.636572  
     178    1.655689   179    1.672776   180    1.706309  
     181    1.729757   182    1.733346   183    1.773928  
     184    1.780010   185    1.794620   186    1.797841  
     187    1.821941   188    1.828568   189    1.839926  
     190    1.854264   191    1.872650   192    1.894414  
     193    1.914919   194    1.934526   195    1.939521  
     196    1.945143   197    1.960622   198    1.968058  
     199    1.969702   200    1.989674   201    2.001188  
     202    2.006446   203    2.021327   204    2.027383  
     205    2.039646   206    2.051088   207    2.053004  
     208    2.067160   209    2.079788   210    2.092924  
     211    2.108304   212    2.114949   213    2.118899  
     214    2.145528   215    2.148992   216    2.170990  
     217    2.178445   218    2.193596   219    2.198944  
     220    2.207304   221    2.240929   222    2.255368  
     223    2.257995   224    2.285075   225    2.296049  
     226    2.309525   227    2.334863   228    2.354560  
     229    2.364932   230    2.381672   231    2.392191  
     232    2.398713   233    2.406726   234    2.427566  
     235    2.450584   236    2.455122   237    2.507023  
     238    2.517617   239    2.539558   240    2.566863  
     241    2.595289   242    2.615219   243    2.623726  
     244    2.638960   245    2.658479   246    2.679200  
     247    2.716912   248    2.730024   249    2.775455  
     250    2.783632   251    2.794475   252    2.818861  
     253    2.850594   254    2.859391   255    2.870982  
     256    2.880291   257    2.883312   258    2.888716  
     259    2.900094   260    2.922688   261    2.952965  
     262    2.974429   263    3.004732   264    3.025419  
     265    3.069287   266    3.086114   267    3.113810  
     268    3.154923   269    3.187047   270    3.230295  
     271    3.260936   272    3.306773   273    3.399806  
     274    3.467206   275    3.564281   276    3.601501  
     277    3.703383   278    3.745429   279    3.838560  
     280    3.917084   281    3.953597   282    4.028767  
     283    4.102439   284    4.141437   285    4.196841  
     286    4.444221   287    4.525714   288    4.535814  
     289    4.757459   290    4.930766   291    5.041024  
     292    5.065017   293    5.229007   294    5.320355  
     295    5.488296   296    5.571121   297    5.752147  
     298    5.831959   299    6.079866   300    6.369107  
     301    6.673367   302   13.367839   303   18.424823  
     304   33.422726   305   33.470412  

  ==> SCF B: <==

    Maxiter =          50
    E Tol   =   1.000E-06
    D Tol   =   1.000E-08

    Max DIIS Vectors = 5

    Iter   N:                        E          dE         |D|
    Iter   1:  -2.2428619851184942E+02  -2.243E+02   8.153E-04 
    Iter   2:  -2.2429699907407820E+02  -1.080E-02   4.706E-05 DIIS
    Iter   3:  -2.2429718885843982E+02  -1.898E-04   1.314E-05 DIIS
    Iter   4:  -2.2429720239691619E+02  -1.354E-05   6.494E-06 DIIS
    Iter   5:  -2.2429720503423542E+02  -2.637E-06   2.238E-06 DIIS
    Iter   6:  -2.2429720544752610E+02  -4.133E-07   7.520E-07 DIIS
    Iter   7:  -2.2429720550960872E+02  -6.208E-08   3.175E-07 DIIS
    Iter   8:  -2.2429720551926155E+02  -9.653E-09   1.036E-07 DIIS
    Iter   9:  -2.2429720552034240E+02  -1.081E-09   4.497E-08 DIIS
    Iter  10:  -2.2429720552056921E+02  -2.268E-10   1.534E-08 DIIS
    Iter  11:  -2.2429720552059266E+02  -2.345E-11   9.729E-09 DIIS

    FISAPTSCF Converged.

    Final SCF Energy:  -2.2429720552059266E+02 [Eh]

   => Occupied Orbital Energies <=

       1  -20.610046     2  -20.554113     3  -11.393594  
       4  -11.294211     5   -1.441470     6   -1.361618  
       7   -0.962965     8   -0.768599     9   -0.673293  
      10   -0.665330    11   -0.621958    12   -0.545104  
      13   -0.536929    14   -0.476852    15   -0.461308  

   => Virtual Orbital Energies <=

      16    0.032466    17    0.050859    18    0.061390  
      19    0.067707    20    0.075205    21    0.080148  
      22    0.087669    23    0.094076    24    0.100712  
      25    0.101888    26    0.105613    27    0.116050  
      28    0.116953    29    0.121661    30    0.127062  
      31    0.130412    32    0.135232    33    0.141652  
      34    0.145560    35    0.155000    36    0.156120  
      37    0.159632    38    0.168937    39    0.173748  
      40    0.182061    41    0.186610    42    0.194230  
      43    0.200369    44    0.204164    45    0.210077  
      46    0.214272    47    0.217121    48    0.221476  
      49    0.231516    50    0.233050    51    0.247118  
      52    0.251677    53    0.258712    54    0.263820  
      55    0.269526    56    0.270357    57    0.274225  
      58    0.277472    59    0.283714    60    0.286517  
      61    0.293753    62    0.302149    63    0.307361  
      64    0.315091    65    0.321723    66    0.327586  
      67    0.339275    68    0.343547    69    0.350222  
      70    0.351366    71    0.358949    72    0.362800  
      73    0.372234    74    0.375557    75    0.383116  
      76    0.389930    77    0.395284    78    0.399974  
      79    0.402473    80    0.409140    81    0.418797  
      82    0.425759    83    0.431827    84    0.435653  
      85    0.450727    86    0.458568    87    0.469994  
      88    0.477240    89    0.486977    90    0.493030  
      91    0.500483    92    0.505972    93    0.520762  
      94    0.533783    95    0.554254    96    0.573934  
      97    0.584230    98    0.596268    99    0.598459  
     100    0.617641   101    0.626581   102    0.634224  
     103    0.643451   104    0.656548   105    0.687099  
     106    0.706908   107    0.732655   108    0.755773  
     109    0.758269   110    0.785600   111    0.800531  
     112    0.805603   113    0.810299   114    0.833821  
     115    0.847167   116    0.862680   117    0.869549  
     118    0.877080   119    0.909034   120    0.913449  
     121    0.918740   122    0.923474   123    0.927590  
     124    0.936465   125    0.939423   126    0.941055  
     127    0.949111   128    0.952047   129    0.968027  
     130    0.974352   131    0.977528   132    0.984522  
     133    0.988817   134    0.998438   135    1.010170  
     136    1.018847   137    1.045067   138    1.045922  
     139    1.049454   140    1.068922   141    1.084461  
     142    1.104325   143    1.121938   144    1.149814  
     145    1.154572   146    1.164441   147    1.181022  
     148    1.189878   149    1.215748   150    1.224739  
     151    1.244746   152    1.254030   153    1.273015  
     154    1.298077   155    1.302492   156    1.317931  
     157    1.329342   158    1.332687   159    1.354722  
     160    1.391135   161    1.399256   162    1.417104  
     163    1.445820   164    1.460939   165    1.474282  
     166    1.496755   167    1.512810   168    1.522354  
     169    1.554666   170    1.573561   171    1.577961  
     172    1.588292   173    1.595500   174    1.620855  
     175    1.637172   176    1.644585   177    1.665411  
     178    1.668732   179    1.688608   180    1.692673  
     181    1.711834   182    1.734330   183    1.758504  
     184    1.770715   185    1.782513   186    1.792520  
     187    1.806786   188    1.820740   189    1.835596  
     190    1.864259   191    1.874636   192    1.886732  
     193    1.900304   194    1.918152   195    1.937152  
     196    1.939811   197    1.945388   198    1.954689  
     199    1.967708   200    1.997324   201    2.000740  
     202    2.008156   203    2.013930   204    2.019939  
     205    2.028818   206    2.036854   207    2.043482  
     208    2.050301   209    2.059285   210    2.073421  
     211    2.085468   212    2.105450   213    2.125677  
     214    2.132263   215    2.152420   216    2.161020  
     217    2.166298   218    2.177823   219    2.197482  
     220    2.199588   221    2.245273   222    2.254140  
     223    2.269132   224    2.284355   225    2.308754  
     226    2.319108   227    2.331213   228    2.348906  
     229    2.358850   230    2.377264   231    2.391262  
     232    2.404197   233    2.417290   234    2.425257  
     235    2.436033   236    2.441727   237    2.482601  
     238    2.515893   239    2.531445   240    2.544470  
     241    2.577673   242    2.589455   243    2.636887  
     244    2.651015   245    2.675218   246    2.683961  
     247    2.700074   248    2.704180   249    2.749035  
     250    2.751362   251    2.793219   252    2.806674  
     253    2.824888   254    2.832204   255    2.865041  
     256    2.873242   257    2.876767   258    2.882060  
     259    2.897483   260    2.901162   261    2.910333  
     262    2.945218   263    2.987728   264    3.047158  
     265    3.074917   266    3.086489   267    3.106719  
     268    3.135738   269    3.170193   270    3.222797  
     271    3.275265   272    3.339565   273    3.373363  
     274    3.461463   275    3.580079   276    3.648706  
     277    3.668117   278    3.769268   279    3.803340  
     280    3.905412   281    3.969447   282    4.002375  
     283    4.074887   284    4.122064   285    4.241242  
     286    4.431375   287    4.510653   288    4.566520  
     289    4.739828   290    4.961988   291    5.040291  
     292    5.067695   293    5.217728   294    5.342900  
     295    5.539535   296    5.549948   297    5.637433  
     298    5.865624   299    6.248868   300    6.375380  
     301    6.737376   302   13.411361   303   18.434719  
     304   33.421531   305   33.478435  

  ==> Frozen Core <==


    ------------------
    Range      A     B
    ------------------
    nbf      330   330
    nmo      305   305
    nocc      15    15
    nvir     290   290
    nfocc      4     4
    naocc     11    11
    navir    290   290
    nfvir      0     0
    ------------------

  ==> Unification <==

  ==> dHF <==

    E ABC(HF) =  -7.2308054164368059E+02 [Eh]
    E AC(0)   =  -4.9510909116195091E+02 [Eh]
    E BC(0)   =  -4.9503828787904001E+02 [Eh]
    E A(0)    =  -2.1262604584890846E+02 [Eh]
    E B(0)    =  -2.1267033858913467E+02 [Eh]
    E AC(HF)  =  -4.9508686148086792E+02 [Eh]
    E BC(HF)  =  -4.9502728087029664E+02 [Eh]
    E AB(HF)  =  -4.2526067446653929E+02 [Eh]
    E A(HF)   =  -2.1259274779568278E+02 [Eh]
    E B(HF)   =  -2.1265198935269976E+02 [Eh]
    E C       =  -2.6704953802563404E+02 [Eh]
    E HF      =   1.7299371676301689E-02 [Eh]

  ==> Electrostatics <==

    Elst10,r            =     0.010185850052 [Eh]

  ==> Exchange <==

    Exch10(S^2)         =     0.010147101891 [Eh]
    Exch10              =     0.010197585309 [Eh]

  ==> Induction <==

    Ind20,u (A<-B)      =    -0.002449955197 [Eh]
    Ind20,u (B<-A)      =    -0.001618200622 [Eh]
    Ind20,u             =    -0.004068155820 [Eh]
    Exch-Ind20,u (A<-B) =     0.001004701257 [Eh]
    Exch-Ind20,u (B<-A) =     0.001182371559 [Eh]
    Exch-Ind20,u        =     0.002187072816 [Eh]

  ==> CPHF Iterations <==

    Maxiter     =          50
    Convergence =   1.000E-08

    -----------------------------------------
    Iter   Monomer A    Monomer B    Time [s]
    -----------------------------------------
    1      2.314E-01    1.456E-01          18
    2      8.547E-02    5.209E-02          32
    3      2.339E-02    1.011E-02          47
    4      7.688E-03    4.063E-03          62
    5      2.305E-03    1.295E-03          74
    6      9.222E-04    4.881E-04          89
    7      2.668E-04    1.498E-04         108
    8      1.070E-04    7.503E-05         131
    9      2.628E-05    1.766E-05         147
    10     7.679E-06    3.924E-06         162
    11     1.865E-06    1.761E-06         178
    12     4.062E-07    5.591E-07         196
    13     1.643E-07    1.235E-07         219
    14     4.978E-08    4.035E-08         232
    15     9.020E-09*   7.014E-09*        245
    -----------------------------------------

    Ind20,r (A<-B)      =    -0.002882777687 [Eh]
    Ind20,r (B<-A)      =    -0.001849484721 [Eh]
    Ind20,r             =    -0.004732262408 [Eh]
    Exch-Ind20,r (A<-B) =     0.001297983291 [Eh]
    Exch-Ind20,r (B<-A) =     0.001394900806 [Eh]
    Exch-Ind20,r        =     0.002692884098 [Eh]

  ==> F-SAPT Localization (IBO) <==

  Local Orbitals for Monomer A:

  ==> IBO Localizer 2 <==

    MinAO Basis = CC-PVTZ-MINAO
    Use Ghosts  =       FALSE
    Use Stars   =       FALSE
    Condition   =   1.000E-07
    Power       =           4
    Convergence =   1.000E-12
    Maxiter     =        1000

    @IBO Iter:                   Metric       Gradient
    @IBO    1:   1.4799186608277706E+00   1.658898E+00
    @IBO    2:   1.6781234998709753E+00   9.328964E-01
    @IBO    3:   1.7095592499261174E+00   2.942080E-01
    @IBO    4:   1.7106706618437517E+00   2.966882E-03
    @IBO    5:   1.7106709234508855E+00   8.578521E-05
    @IBO    6:   1.7106709235583568E+00   1.459686E-06
    @IBO    7:   1.7106709235584006E+00   4.570331E-08
    @IBO    8:   1.7106709235584006E+00   1.034827E-09
    @IBO    9:   1.7106709235584006E+00   2.580974E-11
    @IBO   10:   1.7106709235584003E+00   7.679342E-13

    IBO Localizer 2 converged.

  Local Orbitals for Monomer B:

  ==> IBO Localizer 2 <==

    MinAO Basis = CC-PVTZ-MINAO
    Use Ghosts  =       FALSE
    Use Stars   =       FALSE
    Condition   =   1.000E-07
    Power       =           4
    Convergence =   1.000E-12
    Maxiter     =        1000

    @IBO Iter:                   Metric       Gradient
    @IBO    1:   1.4822095090786167E+00   1.687461E+00
    @IBO    2:   1.6773154758677264E+00   9.404471E-01
    @IBO    3:   1.7087752796297253E+00   3.336701E-01
    @IBO    4:   1.7101390214346761E+00   2.684189E-03
    @IBO    5:   1.7101392552418293E+00   1.107911E-04
    @IBO    6:   1.7101392553872243E+00   1.883432E-06
    @IBO    7:   1.7101392553872945E+00   6.596633E-08
    @IBO    8:   1.7101392553872947E+00   2.087176E-09
    @IBO    9:   1.7101392553872947E+00   7.932040E-11
    @IBO   10:   1.7101392553872947E+00   3.308838E-12
    @IBO   11:   1.7101392553872947E+00   1.426810E-13

    IBO Localizer 2 converged.

  ==> F-SAPT Electrostatics <==

  ==> DFERI: Density Fitted 3-Index Tensors <==

    Schwarz cutoff =   0.000E+00
    J cutoff       =   1.000E-12
    Mem (GB)       =         628

   => Auxiliary Basis <=

  Basis Set: (JUN-CC-PVDZ AUX)
    Blend: JUN-CC-PVDZ-JKFIT
    Number of shells: 513
    Number of basis function: 1461
    Number of Cartesian functions: 1665
    Spherical Harmonics?: true
    Max angular momentum: 3

    Elst10,r            =     0.010185850621 [Eh]

  ==> F-SAPT Exchange <==

  ==> DFERI: Density Fitted 3-Index Tensors <==

    Schwarz cutoff =   0.000E+00
    J cutoff       =   1.000E-12
    Mem (GB)       =         628

   => Auxiliary Basis <=

  Basis Set: (JUN-CC-PVDZ AUX)
    Blend: JUN-CC-PVDZ-JKFIT
    Number of shells: 513
    Number of basis function: 1461
    Number of Cartesian functions: 1665
    Spherical Harmonics?: true
    Max angular momentum: 3

    Exch10(S^2)         =     0.010147101892 [Eh]

    Scaling F-SAPT Exch10(S^2) by   1.005E+00 to match Exch10

  ==> F-SAPT Induction <==

  ==> DFERI: Density Fitted 3-Index Tensors <==

    Schwarz cutoff =   0.000E+00
    J cutoff       =   1.000E-12
    Mem (GB)       =         628

   => Auxiliary Basis <=

  Basis Set: (JUN-CC-PVDZ AUX)
    Blend: JUN-CC-PVDZ-JKFIT
    Number of shells: 513
    Number of basis function: 1461
    Number of Cartesian functions: 1665
    Spherical Harmonics?: true
    Max angular momentum: 3

    Ind20,u (A<-B)      =    -0.002449955197 [Eh]
    Ind20,u (B<-A)      =    -0.001618200622 [Eh]
    Ind20,u             =    -0.004068155819 [Eh]
    Exch-Ind20,u (A<-B) =     0.001004701257 [Eh]
    Exch-Ind20,u (B<-A) =     0.001182371559 [Eh]
    Exch-Ind20,u        =     0.002187072816 [Eh]

    Scaling for delta HF        =   1.512E+00
    Scaling for response (A<-B) =   1.097E+00
    Scaling for response (B<-A) =   1.043E+00
    Scaling for total (A<-B)    =   1.658E+00
    Scaling for total (B<-A)    =   1.577E+00

  ==> F-SAPT Dispersion <==

  ==> DFERI: Density Fitted 3-Index Tensors <==

    Schwarz cutoff =   0.000E+00
    J cutoff       =   1.000E-12
    Mem (GB)       =         628

   => Auxiliary Basis <=

  Basis Set: (JUN-CC-PVDZ AUX)
    Blend: JUN-CC-PVDZ-RI
    Number of shells: 387
    Number of basis function: 1143
    Number of Cartesian functions: 1320
    Spherical Harmonics?: true
    Max angular momentum: 3

    Disp20              =    -0.005032771267 [Eh]
    Exch-Disp20         =     0.000694102718 [Eh]

  ==> F-SAPT Output <==

    F-SAPT Data Filepath = fsapt/

  ==> Results <==


    SAPT Results  
  --------------------------------------------------------------------------------------------------------
    Electrostatics                 10.18585005 [mEh]       6.39171767 [kcal/mol]      26.74294931 [kJ/mol]
      Elst10,r                     10.18585005 [mEh]       6.39171767 [kcal/mol]      26.74294931 [kJ/mol]

    Exchange                       10.19758531 [mEh]       6.39908166 [kcal/mol]      26.77376023 [kJ/mol]
      Exch10                       10.19758531 [mEh]       6.39908166 [kcal/mol]      26.77376023 [kJ/mol]
      Exch10(S^2)                  10.14710189 [mEh]       6.36740283 [kcal/mol]      26.64121602 [kJ/mol]

    Induction                      -3.08406368 [mEh]      -1.93527926 [kcal/mol]      -8.09720920 [kJ/mol]
      Ind20,r                      -4.73226241 [mEh]      -2.96953962 [kcal/mol]     -12.42455495 [kJ/mol]
      Exch-Ind20,r                  2.69288410 [mEh]       1.68981035 [kcal/mol]       7.07016720 [kJ/mol]
      delta HF,r (2)               -1.04468537 [mEh]      -0.65555000 [kcal/mol]      -2.74282145 [kJ/mol]
      Induction (A<-B)             -2.39661608 [mEh]      -1.50389936 [kcal/mol]      -6.29231551 [kJ/mol]
      Induction (B<-A)             -0.68744761 [mEh]      -0.43137991 [kcal/mol]      -1.80489370 [kJ/mol]

    Dispersion                     -4.33866855 [mEh]      -2.72255573 [kcal/mol]     -11.39117427 [kJ/mol]
      Disp20                       -5.03277127 [mEh]      -3.15811178 [kcal/mol]     -13.21354096 [kJ/mol]
      Exch-Disp20                   0.69410272 [mEh]       0.43555605 [kcal/mol]       1.82236669 [kJ/mol]

  Total HF                         17.29937168 [mEh]      10.85552007 [kcal/mol]      45.41950034 [kJ/mol]
  Total SAPT0                      12.96070313 [mEh]       8.13296434 [kcal/mol]      34.02832606 [kJ/mol]

  --------------------------------------------------------------------------------------------------------
    Han Solo: This is *not* gonna work.
    Luke Skywalker: Why didn't you say so before?
    Han Solo: I *did* say so before.

*** tstop() called on ThinkPad-P50 at Tue Dec 12 11:40:22 2017
Module time:
	user time   =     569.90 seconds =       9.50 minutes
	system time =       5.27 seconds =       0.09 minutes
	total time  =        577 seconds =       9.62 minutes
Total time:
	user time   =     788.42 seconds =      13.14 minutes
	system time =       6.94 seconds =       0.12 minutes
	total time  =        799 seconds =      13.32 minutes

*** Psi4 exiting successfully. Buy a developer a beer!
