
    -----------------------------------------------------------------------
          Psi4: An Open-Source Ab Initio Electronic Structure Package
                               Psi4 1.1 release

                         Git: Rev {HEAD} add49b9 


    R. M. Parrish, L. A. Burns, D. G. A. Smith, A. C. Simmonett,
    A. E. DePrince III, E. G. Hohenstein, U. Bozkaya, A. Yu. Sokolov,
    R. Di Remigio, R. M. Richard, J. F. Gonthier, A. M. James,
    H. R. McAlexander, A. Kumar, M. Saitow, X. Wang, B. P. Pritchard,
    P. Verma, H. F. Schaefer III, K. Patkowski, R. A. King, E. F. Valeev,
    F. A. Evangelista, J. M. Turney, T. D. Crawford, and C. D. Sherrill,
    J. Chem. Theory Comput. in press (2017).
    (doi: 10.1021/acs.jctc.7b00174)

    -----------------------------------------------------------------------


    Psi4 started on: Wednesday, 18 October 2017 07:25PM

    Process ID:  50251
    PSIDATADIR: /opt/software/psi4/psi4conda/share/psi4
    Memory:     500.0 MiB
    Threads:    48
    
  ==> Input File <==

--------------------------------------------------------------------------
memory 750000 mb

molecule mol {
0 1
C         -3.24074        1.21513        0.26800
H         -4.26187        0.84040        0.36232
H         -3.18931        1.88550       -0.59124
H         -3.00859        1.82547        1.14246
--
0 1
C         -0.26977        1.55258       -0.01368
O         -0.87738        2.59778        0.04803
O          1.07462        1.50982       -0.11135
C          1.75431        2.77291       -0.18321
H          1.61142        3.33499        0.74113
H          1.38006        3.35869       -1.02345
H          2.80404        2.52639       -0.32584
--
0 1
H         -0.04368       -3.11179       -0.26601
C          1.41158       -0.97308       -0.30650
O          1.97797       -1.03529       -1.36832
O          2.02902       -1.03435        0.88757
C          3.46675       -1.07995        0.84648
H          3.80747       -1.95782        0.29548
H          3.85872       -0.18136        0.36704
H          3.78468       -1.13024        1.88535
C         -0.08472       -0.96996       -0.13685
C         -0.87994        0.18868       -0.00323
C         -0.66973       -2.23481       -0.15143
C         -2.04631       -2.36724       -0.02220
C         -2.83536       -1.23334        0.11590
C         -2.28665        0.05330        0.12432
H         -3.90949       -1.33978        0.21788
H         -2.50180       -3.35118       -0.03020

symmetry c1
no_reorient
no_com
}

set {
basis jun-cc-pvdz
scf_type df
guess sad
freeze_core true
}

energy('fisapt0')
--------------------------------------------------------------------------

  Memory set to 698.492 GiB by Python driver.

*** tstart() called on vega03.cac.cornell.edu
*** at Wed Oct 18 19:25:40 2017

   => Loading Basis Set <=

    Name: JUN-CC-PVDZ
    Role: ORBITAL
    Keyword: BASIS
    atoms 1, 5, 8, 13, 16, 20-25  entry C          line   157 file /opt/software/psi4/psi4conda/share/psi4/basis/jun-cc-pvdz.gbs 
    atoms 2-4, 9-12, 17-19, 26-27 entry H          line    35 file /opt/software/psi4/psi4conda/share/psi4/basis/jun-cc-pvdz.gbs 
    atoms 6-7, 14-15              entry O          line   225 file /opt/software/psi4/psi4conda/share/psi4/basis/jun-cc-pvdz.gbs 


         ---------------------------------------------------------
                                   SCF
            by Justin Turney, Rob Parrish, and Andy Simmonett
                              RHF Reference
                       48 Threads, 715255 MiB Core
         ---------------------------------------------------------

  ==> Geometry <==

    Molecular point group: c1
    Full point group: C1

    Geometry (in Angstrom), charge = 0, multiplicity = 1:

       Center              X                  Y                   Z               Mass       
    ------------   -----------------  -----------------  -----------------  -----------------
           C         -3.240740000000     1.215130000000     0.268000000000    12.000000000000
           H         -4.261870000000     0.840400000000     0.362320000000     1.007825032070
           H         -3.189310000000     1.885500000000    -0.591240000000     1.007825032070
           H         -3.008590000000     1.825470000000     1.142460000000     1.007825032070
           C         -0.269770000000     1.552580000000    -0.013680000000    12.000000000000
           O         -0.877380000000     2.597780000000     0.048030000000    15.994914619560
           O          1.074620000000     1.509820000000    -0.111350000000    15.994914619560
           C          1.754310000000     2.772910000000    -0.183210000000    12.000000000000
           H          1.611420000000     3.334990000000     0.741130000000     1.007825032070
           H          1.380060000000     3.358690000000    -1.023450000000     1.007825032070
           H          2.804040000000     2.526390000000    -0.325840000000     1.007825032070
           H         -0.043680000000    -3.111790000000    -0.266010000000     1.007825032070
           C          1.411580000000    -0.973080000000    -0.306500000000    12.000000000000
           O          1.977970000000    -1.035290000000    -1.368320000000    15.994914619560
           O          2.029020000000    -1.034350000000     0.887570000000    15.994914619560
           C          3.466750000000    -1.079950000000     0.846480000000    12.000000000000
           H          3.807470000000    -1.957820000000     0.295480000000     1.007825032070
           H          3.858720000000    -0.181360000000     0.367040000000     1.007825032070
           H          3.784680000000    -1.130240000000     1.885350000000     1.007825032070
           C         -0.084720000000    -0.969960000000    -0.136850000000    12.000000000000
           C         -0.879940000000     0.188680000000    -0.003230000000    12.000000000000
           C         -0.669730000000    -2.234810000000    -0.151430000000    12.000000000000
           C         -2.046310000000    -2.367240000000    -0.022200000000    12.000000000000
           C         -2.835360000000    -1.233340000000     0.115900000000    12.000000000000
           C         -2.286650000000     0.053300000000     0.124320000000    12.000000000000
           H         -3.909490000000    -1.339780000000     0.217880000000     1.007825032070
           H         -2.501800000000    -3.351180000000    -0.030200000000     1.007825032070

  Running in c1 symmetry.

  Rotational constants: A =      0.02692  B =      0.01886  C =      0.01207 [cm^-1]
  Rotational constants: A =    806.97940  B =    565.28245  C =    361.97790 [MHz]
  Nuclear repulsion = 1013.523923683644057

  Charge       = 0
  Multiplicity = 1
  Electrons    = 110
  Nalpha       = 55
  Nbeta        = 55

  ==> Algorithm <==

  SCF Algorithm Type is DF.
  DIIS enabled.
  MOM disabled.
  Fractional occupation disabled.
  Guess Type is SAD.
  Energy threshold   = 1.00e-08
  Density threshold  = 1.00e-08
  Integral threshold = 0.00e+00

  ==> Primary Basis <==

  Basis Set: JUN-CC-PVDZ
    Blend: JUN-CC-PVDZ
    Number of shells: 156
    Number of basis function: 330
    Number of Cartesian functions: 345
    Spherical Harmonics?: true
    Max angular momentum: 2

   => Loading Basis Set <=

    Name: (JUN-CC-PVDZ AUX)
    Role: JKFIT
    Keyword: DF_BASIS_SCF
    atoms 1, 5, 8, 13, 16, 20-25  entry C          line   145 file /opt/software/psi4/psi4conda/share/psi4/basis/jun-cc-pvdz-jkfit.gbs 
    atoms 2-4, 9-12, 17-19, 26-27 entry H          line    69 file /opt/software/psi4/psi4conda/share/psi4/basis/jun-cc-pvdz-jkfit.gbs 
    atoms 6-7, 14-15              entry O          line   257 file /opt/software/psi4/psi4conda/share/psi4/basis/jun-cc-pvdz-jkfit.gbs 

  ==> Pre-Iterations <==

   -------------------------------------------------------
    Irrep   Nso     Nmo     Nalpha   Nbeta   Ndocc  Nsocc
   -------------------------------------------------------
     A        330     330       0       0       0       0
   -------------------------------------------------------
    Total     330     330      55      55      55       0
   -------------------------------------------------------

  ==> Integral Setup <==

  ==> DFJK: Density-Fitted J/K Matrices <==

    J tasked:                  Yes
    K tasked:                  Yes
    wK tasked:                  No
    OpenMP threads:             48
    Integrals threads:          48
    Memory (MB):            536441
    Algorithm:                Core
    Integral Cache:           NONE
    Schwarz Cutoff:          1E-12
    Fitting Condition:       1E-12

   => Auxiliary Basis Set <=

  Basis Set: (JUN-CC-PVDZ AUX)
    Blend: JUN-CC-PVDZ-JKFIT
    Number of shells: 513
    Number of basis function: 1461
    Number of Cartesian functions: 1665
    Spherical Harmonics?: true
    Max angular momentum: 3

  Minimum eigenvalue in the overlap matrix is 3.5495111222E-06.
  Using Symmetric Orthogonalization.

  SCF Guess: Superposition of Atomic Densities via on-the-fly atomic UHF.

  ==> Iterations <==

                           Total Energy        Delta E     RMS |[F,P]|

   @DF-RHF iter   0:  -728.39652754838778   -7.28397e+02   1.36677e-01 
   @DF-RHF iter   1:  -722.64811871485426    5.74841e+00   1.53343e-02 
   @DF-RHF iter   2:  -723.00262322788956   -3.54505e-01   5.10820e-03 DIIS
   @DF-RHF iter   3:  -723.06532390482460   -6.27007e-02   2.28561e-03 DIIS
   @DF-RHF iter   4:  -723.07881247211003   -1.34886e-02   7.47634e-04 DIIS
   @DF-RHF iter   5:  -723.08008443702636   -1.27196e-03   3.21756e-04 DIIS
   @DF-RHF iter   6:  -723.08044165810122   -3.57221e-04   9.95688e-05 DIIS
   @DF-RHF iter   7:  -723.08052188516103   -8.02271e-05   4.03740e-05 DIIS
   @DF-RHF iter   8:  -723.08053802835320   -1.61432e-05   2.04774e-05 DIIS
   @DF-RHF iter   9:  -723.08054095897876   -2.93063e-06   8.34404e-06 DIIS
   @DF-RHF iter  10:  -723.08054156117191   -6.02193e-07   2.60961e-06 DIIS
   @DF-RHF iter  11:  -723.08054162523899   -6.40671e-08   1.31855e-06 DIIS
   @DF-RHF iter  12:  -723.08054163102838   -5.78939e-09   3.36822e-07 DIIS
   @DF-RHF iter  13:  -723.08054163184659   -8.18204e-10   1.43807e-07 DIIS
   @DF-RHF iter  14:  -723.08054163200609   -1.59503e-10   6.45615e-08 DIIS
   @DF-RHF iter  15:  -723.08054163204361   -3.75167e-11   2.38915e-08 DIIS
   @DF-RHF iter  16:  -723.08054163205145   -7.84439e-12   1.47197e-08 DIIS
   @DF-RHF iter  17:  -723.08054163205452   -3.06954e-12   7.63431e-09 DIIS

  ==> Post-Iterations <==

    Orbital Energies (a.u.)
    -----------------------

    Doubly Occupied:                                                      

       1A    -20.614248     2A    -20.611926     3A    -20.557233  
       4A    -20.555507     5A    -11.399470     6A    -11.398369  
       7A    -11.299090     8A    -11.297244     9A    -11.282276  
      10A    -11.276328    11A    -11.272929    12A    -11.265759  
      13A    -11.257123    14A    -11.251201    15A    -11.230628  
      16A     -1.474754    17A     -1.466084    18A     -1.369079  
      19A     -1.367069    20A     -1.183903    21A     -1.074742  
      22A     -1.065118    23A     -0.995513    24A     -0.975344  
      25A     -0.944787    26A     -0.885180    27A     -0.840868  
      28A     -0.790370    29A     -0.780348    30A     -0.740001  
      31A     -0.710736    32A     -0.694650    33A     -0.681146  
      34A     -0.675035    35A     -0.671089    36A     -0.660858  
      37A     -0.644339    38A     -0.610922    39A     -0.590708  
      40A     -0.584542    41A     -0.583017    42A     -0.559797  
      43A     -0.550272    44A     -0.545981    45A     -0.540098  
      46A     -0.530506    47A     -0.520450    48A     -0.512109  
      49A     -0.503077    50A     -0.473229    51A     -0.458828  
      52A     -0.455382    53A     -0.447332    54A     -0.358751  
      55A     -0.342880  

    Virtual:                                                              

      56A      0.054296    57A      0.057371    58A      0.059836  
      59A      0.067448    60A      0.070274    61A      0.079427  
      62A      0.086467    63A      0.093174    64A      0.096778  
      65A      0.099285    66A      0.104152    67A      0.112003  
      68A      0.113060    69A      0.116338    70A      0.127631  
      71A      0.130724    72A      0.137752    73A      0.143616  
      74A      0.145583    75A      0.151703    76A      0.164164  
      77A      0.166617    78A      0.173217    79A      0.175646  
      80A      0.179350    81A      0.190994    82A      0.199829  
      83A      0.202185    84A      0.208129    85A      0.213406  
      86A      0.219431    87A      0.224123    88A      0.225255  
      89A      0.234583    90A      0.239742    91A      0.242120  
      92A      0.249119    93A      0.257216    94A      0.261657  
      95A      0.265945    96A      0.269584    97A      0.271141  
      98A      0.288575    99A      0.292153   100A      0.295215  
     101A      0.299387   102A      0.304292   103A      0.308667  
     104A      0.315968   105A      0.326444   106A      0.332933  
     107A      0.341974   108A      0.343303   109A      0.348629  
     110A      0.349435   111A      0.365078   112A      0.366475  
     113A      0.373141   114A      0.376499   115A      0.384485  
     116A      0.392144   117A      0.395092   118A      0.397529  
     119A      0.402317   120A      0.412334   121A      0.418082  
     122A      0.422114   123A      0.425473   124A      0.430263  
     125A      0.438060   126A      0.452708   127A      0.457002  
     128A      0.461719   129A      0.468350   130A      0.477217  
     131A      0.488766   132A      0.500341   133A      0.503367  
     134A      0.512558   135A      0.519023   136A      0.522316  
     137A      0.544747   138A      0.567888   139A      0.574189  
     140A      0.588580   141A      0.620241   142A      0.640642  
     143A      0.668606   144A      0.687961   145A      0.721403  
     146A      0.744067   147A      0.766975   148A      0.772468  
     149A      0.777105   150A      0.787298   151A      0.801064  
     152A      0.818262   153A      0.834129   154A      0.835075  
     155A      0.861519   156A      0.867704   157A      0.876928  
     158A      0.882983   159A      0.890732   160A      0.898628  
     161A      0.916240   162A      0.919220   163A      0.925590  
     164A      0.929937   165A      0.932975   166A      0.936202  
     167A      0.940264   168A      0.946435   169A      0.951851  
     170A      0.959201   171A      0.968468   172A      0.970922  
     173A      0.979782   174A      0.986276   175A      0.997510  
     176A      1.002451   177A      1.017266   178A      1.026899  
     179A      1.031213   180A      1.043137   181A      1.062633  
     182A      1.066275   183A      1.069538   184A      1.114551  
     185A      1.129654   186A      1.136078   187A      1.154787  
     188A      1.158655   189A      1.187258   190A      1.196760  
     191A      1.205430   192A      1.216560   193A      1.225146  
     194A      1.244160   195A      1.245622   196A      1.262720  
     197A      1.274205   198A      1.291755   199A      1.301503  
     200A      1.306420   201A      1.325525   202A      1.350797  
     203A      1.371926   204A      1.388180   205A      1.389489  
     206A      1.405911   207A      1.431355   208A      1.440313  
     209A      1.486011   210A      1.489218   211A      1.507070  
     212A      1.519468   213A      1.538139   214A      1.559647  
     215A      1.571587   216A      1.592685   217A      1.594496  
     218A      1.604949   219A      1.614513   220A      1.628137  
     221A      1.642041   222A      1.651046   223A      1.665376  
     224A      1.668194   225A      1.690161   226A      1.696677  
     227A      1.707377   228A      1.712201   229A      1.754213  
     230A      1.766065   231A      1.781724   232A      1.791945  
     233A      1.796811   234A      1.810827   235A      1.847526  
     236A      1.850630   237A      1.871689   238A      1.879596  
     239A      1.889904   240A      1.917700   241A      1.924187  
     242A      1.930514   243A      1.945205   244A      1.956744  
     245A      1.961016   246A      1.967635   247A      1.987845  
     248A      1.990659   249A      1.994784   250A      2.007008  
     251A      2.010188   252A      2.016581   253A      2.026433  
     254A      2.043465   255A      2.057008   256A      2.067114  
     257A      2.070488   258A      2.093849   259A      2.096267  
     260A      2.110248   261A      2.135775   262A      2.140217  
     263A      2.149565   264A      2.156239   265A      2.167807  
     266A      2.171908   267A      2.184620   268A      2.223642  
     269A      2.256221   270A      2.262936   271A      2.274121  
     272A      2.300959   273A      2.345116   274A      2.362811  
     275A      2.382757   276A      2.387054   277A      2.402997  
     278A      2.408235   279A      2.417837   280A      2.431743  
     281A      2.433605   282A      2.442924   283A      2.478339  
     284A      2.499148   285A      2.515968   286A      2.579092  
     287A      2.592755   288A      2.605815   289A      2.644432  
     290A      2.684014   291A      2.746344   292A      2.756986  
     293A      2.774598   294A      2.777494   295A      2.786919  
     296A      2.806337   297A      2.824056   298A      2.848176  
     299A      2.860577   300A      2.871909   301A      2.876816  
     302A      2.887665   303A      2.922903   304A      2.956774  
     305A      2.992850   306A      3.003116   307A      3.009791  
     308A      3.047707   309A      3.100535   310A      3.103584  
     311A      3.130612   312A      3.145894   313A      3.174731  
     314A      3.245342   315A      3.274076   316A      3.289800  
     317A      3.333658   318A      3.371076   319A      3.438820  
     320A      3.549621   321A      3.574419   322A      3.646570  
     323A      3.684799   324A      3.755852   325A      3.795064  
     326A      3.836556   327A      3.937968   328A      3.997011  
     329A      4.073572   330A      4.088447  

    Final Occupation by Irrep:
              A 
    DOCC [    55 ]

  Energy converged.

  @DF-RHF Final Energy:  -723.08054163205452

   => Energetics <=

    Nuclear Repulsion Energy =           1013.5239236836440568
    One-Electron Energy =               -3000.3524853920243913
    Two-Electron Energy =                1263.7480200763257017
    DFT Exchange-Correlation Energy =       0.0000000000000000
    Empirical Dispersion Energy =           0.0000000000000000
    PCM Polarization Energy =               0.0000000000000000
    EFP Energy =                            0.0000000000000000
    Total Energy =                       -723.0805416320545191



Properties will be evaluated at   0.000000,   0.000000,   0.000000 Bohr

Properties computed using the SCF density matrix

  Nuclear Dipole Moment: (a.u.)
     X:    -0.2230      Y:     1.0361      Z:     3.1142

  Electronic Dipole Moment: (a.u.)
     X:     0.3887      Y:    -1.4543      Z:    -2.4079

  Dipole Moment: (a.u.)
     X:     0.1658      Y:    -0.4183      Z:     0.7063     Total:     0.8374

  Dipole Moment: (Debye)
     X:     0.4214      Y:    -1.0631      Z:     1.7953     Total:     2.1286


*** tstop() called on vega03.cac.cornell.edu at Wed Oct 18 19:26:14 2017
Module time:
	user time   =     652.27 seconds =      10.87 minutes
	system time =       5.72 seconds =       0.10 minutes
	total time  =         34 seconds =       0.57 minutes
Total time:
	user time   =     652.27 seconds =      10.87 minutes
	system time =       5.72 seconds =       0.10 minutes
	total time  =         34 seconds =       0.57 minutes
   => Loading Basis Set <=

    Name: (JUN-CC-PVDZ AUX)
    Role: JKFIT
    Keyword: DF_BASIS_SCF
    atoms 1, 5, 8, 13, 16, 20-25  entry C          line   145 file /opt/software/psi4/psi4conda/share/psi4/basis/jun-cc-pvdz-jkfit.gbs 
    atoms 2-4, 9-12, 17-19, 26-27 entry H          line    69 file /opt/software/psi4/psi4conda/share/psi4/basis/jun-cc-pvdz-jkfit.gbs 
    atoms 6-7, 14-15              entry O          line   257 file /opt/software/psi4/psi4conda/share/psi4/basis/jun-cc-pvdz-jkfit.gbs 

   => Loading Basis Set <=

    Name: (JUN-CC-PVDZ AUX)
    Role: RIFIT
    Keyword: DF_BASIS_SAPT
    atoms 1, 5, 8, 13, 16, 20-25  entry C          line    99 file /opt/software/psi4/psi4conda/share/psi4/basis/jun-cc-pvdz-ri.gbs 
    atoms 2-4, 9-12, 17-19, 26-27 entry H          line    29 file /opt/software/psi4/psi4conda/share/psi4/basis/jun-cc-pvdz-ri.gbs 
    atoms 6-7, 14-15              entry O          line   187 file /opt/software/psi4/psi4conda/share/psi4/basis/jun-cc-pvdz-ri.gbs 

   => Loading Basis Set <=

    Name: CC-PVTZ-MINAO
    Role: ORBITAL
    Keyword: BASIS
    atoms 1, 5, 8, 13, 16, 20-25  entry C          line   130 file /opt/software/psi4/psi4conda/share/psi4/basis/cc-pvtz-minao.gbs 
    atoms 2-4, 9-12, 17-19, 26-27 entry H          line    19 file /opt/software/psi4/psi4conda/share/psi4/basis/cc-pvtz-minao.gbs 
    atoms 6-7, 14-15              entry O          line   190 file /opt/software/psi4/psi4conda/share/psi4/basis/cc-pvtz-minao.gbs 


*** tstart() called on vega03.cac.cornell.edu
*** at Wed Oct 18 19:26:15 2017

	 --------------------------------------------
	                    FISAPT0                  
	                  Rob Parrish                
	 --------------------------------------------

    Do F-SAPT =         Yes
    Do Plot   =          No
    Memory    =      78.580 [GD]

  ==> Localization (IBO) <==

  ==> IBO Localizer 2 <==

    MinAO Basis = CC-PVTZ-MINAO
    Use Ghosts  =       FALSE
    Use Stars   =       FALSE
    Condition   =   1.000E-07
    Power       =           4
    Convergence =   1.000E-12
    Maxiter     =        1000

    @IBO Iter:                   Metric       Gradient
    @IBO    1:   1.9570380535076679E+00   2.250540E+00
    @IBO    2:   2.1885013674231981E+00   1.890302E+00
    @IBO    3:   2.2536608029357144E+00   9.391712E-01
    @IBO    4:   2.2599581725973303E+00   9.925570E-02
    @IBO    5:   2.2600162887127828E+00   1.067921E-03
    @IBO    6:   2.2600162979818790E+00   4.933321E-05
    @IBO    7:   2.2600162980585670E+00   1.005975E-05
    @IBO    8:   2.2600162980620837E+00   2.218825E-06
    @IBO    9:   2.2600162980622636E+00   4.945957E-07
    @IBO   10:   2.2600162980622729E+00   1.099676E-07
    @IBO   11:   2.2600162980622733E+00   2.429990E-08
    @IBO   12:   2.2600162980622733E+00   5.335029E-09
    @IBO   13:   2.2600162980622738E+00   1.164604E-09
    @IBO   14:   2.2600162980622738E+00   2.530174E-10
    @IBO   15:   2.2600162980622738E+00   5.475851E-11
    @IBO   16:   2.2600162980622733E+00   1.181469E-11
    @IBO   17:   2.2600162980622738E+00   2.542959E-12
    @IBO   18:   2.2600162980622733E+00   5.462792E-13

    IBO Localizer 2 converged.

  ==> Partitioning <==

   => Atomic Partitioning <= 

    Monomer A:   4 atoms
    Monomer B:   7 atoms
    Monomer C:  16 atoms

   => Link Bond Identification <=

    Link Bond Selection = AUTOMATIC

    Charge Completeness = 0.800

    Total Link Bonds = 2

    --------------------------
    N     Orb Type Aind1 Aind2
    --------------------------
    1      18   BC     5    21
    2      45   AC     1    25
    --------------------------

   => Link Bond Assignment <=

    Link Bond Assignment      = C

   => Partition Summary <=

    Monomer A:  0 charge,   8 protons,   8 electrons,   4 docc
    Monomer B:  0 charge,  30 protons,  30 electrons,  15 docc
    Monomer C:  0 charge,  72 protons,  72 electrons,  36 docc

  ==> Overlap Integrals <==

  ==> Kinetic Integrals <==

  ==> Nuclear Integrals <==

    Nuclear Repulsion Tot:   1.0135239236836436E+03 [Eh]

  ==> Coulomb Integrals <==

  ==> DFJK: Density-Fitted J/K Matrices <==

    J tasked:                  Yes
    K tasked:                  Yes
    wK tasked:                  No
    OpenMP threads:             48
    Integrals threads:          48
    Memory (MB):            643730
    Algorithm:                Core
    Integral Cache:           NONE
    Schwarz Cutoff:          1E-12
    Fitting Condition:       1E-12

   => Auxiliary Basis Set <=

  Basis Set: (JUN-CC-PVDZ AUX)
    Blend: JUN-CC-PVDZ-JKFIT
    Number of shells: 513
    Number of basis function: 1461
    Number of Cartesian functions: 1665
    Spherical Harmonics?: true
    Max angular momentum: 3

  ==> Relaxed SCF Equations <==

  ==> SCF A: <==

    Maxiter =          50
    E Tol   =   1.000E-06
    D Tol   =   1.000E-08

    Max DIIS Vectors = 5

    Iter   N:                        E          dE         |D|
    Iter   1:  -3.6382676575697730E+01  -3.638E+01   2.427E-03 
    Iter   2:  -3.6386520507672586E+01  -3.844E-03   2.385E-04 DIIS
    Iter   3:  -3.6386625592619616E+01  -1.051E-04   4.851E-05 DIIS
    Iter   4:  -3.6386631544817249E+01  -5.952E-06   9.827E-06 DIIS
    Iter   5:  -3.6386631758828244E+01  -2.140E-07   2.047E-06 DIIS
    Iter   6:  -3.6386631767609032E+01  -8.781E-09   3.099E-07 DIIS
    Iter   7:  -3.6386631767851490E+01  -2.425E-10   4.005E-08 DIIS
    Iter   8:  -3.6386631767856038E+01  -4.547E-12   4.798E-09 DIIS

    FISAPTSCF Converged.

    Final SCF Energy:  -3.6386631767856038E+01 [Eh]

   => Occupied Orbital Energies <=

       1  -11.240460     2   -0.855029     3   -0.563873  
       4   -0.560437  

   => Virtual Orbital Energies <=

       5    0.032800     6    0.051064     7    0.061078  
       8    0.067605     9    0.075241    10    0.080113  
      11    0.087750    12    0.093883    13    0.100480  
      14    0.101537    15    0.105256    16    0.115610  
      17    0.116565    18    0.121761    19    0.126545  
      20    0.130368    21    0.134779    22    0.141834  
      23    0.145314    24    0.154765    25    0.156084  
      26    0.159865    27    0.168588    28    0.173467  
      29    0.181838    30    0.186443    31    0.193832  
      32    0.200234    33    0.204142    34    0.209749  
      35    0.214148    36    0.216692    37    0.221695  
      38    0.231487    39    0.233232    40    0.246788  
      41    0.251347    42    0.259427    43    0.263336  
      44    0.269441    45    0.269854    46    0.274041  
      47    0.277379    48    0.283433    49    0.286543  
      50    0.293519    51    0.301319    52    0.306917  
      53    0.314552    54    0.321260    55    0.327593  
      56    0.338878    57    0.343246    58    0.349754  
      59    0.351313    60    0.358376    61    0.362448  
      62    0.371734    63    0.375240    64    0.382833  
      65    0.389518    66    0.395239    67    0.399454  
      68    0.402080    69    0.408635    70    0.418357  
      71    0.425267    72    0.431512    73    0.435048  
      74    0.450014    75    0.458181    76    0.469300  
      77    0.476586    78    0.486461    79    0.492492  
      80    0.500132    81    0.505448    82    0.519480  
      83    0.532417    84    0.553610    85    0.573221  
      86    0.583798    87    0.595390    88    0.598048  
      89    0.617155    90    0.626100    91    0.633639  
      92    0.643203    93    0.656253    94    0.686507  
      95    0.706594    96    0.731806    97    0.754929  
      98    0.757863    99    0.784789   100    0.799592  
     101    0.804778   102    0.809515   103    0.832889  
     104    0.846095   105    0.861534   106    0.868647  
     107    0.876635   108    0.908169   109    0.912057  
     110    0.917471   111    0.922626   112    0.926720  
     113    0.935211   114    0.937983   115    0.940176  
     116    0.947988   117    0.951451   118    0.966747  
     119    0.974001   120    0.976233   121    0.983436  
     122    0.988799   123    0.997255   124    1.009061  
     125    1.018075   126    1.044269   127    1.045617  
     128    1.048636   129    1.067294   130    1.083482  
     131    1.103319   132    1.121390   133    1.149462  
     134    1.153454   135    1.162939   136    1.180439  
     137    1.189502   138    1.214631   139    1.223612  
     140    1.243790   141    1.253210   142    1.271667  
     143    1.297053   144    1.301080   145    1.316673  
     146    1.328390   147    1.332311   148    1.353859  
     149    1.390017   150    1.399012   151    1.415979  
     152    1.444314   153    1.460313   154    1.472835  
     155    1.495973   156    1.511766   157    1.521903  
     158    1.554007   159    1.572847   160    1.577434  
     161    1.587469   162    1.594954   163    1.620072  
     164    1.636390   165    1.643944   166    1.664190  
     167    1.667873   168    1.688985   169    1.692691  
     170    1.710901   171    1.733216   172    1.757782  
     173    1.769552   174    1.780946   175    1.791847  
     176    1.805473   177    1.819781   178    1.834744  
     179    1.863358   180    1.873345   181    1.885291  
     182    1.899366   183    1.917134   184    1.936536  
     185    1.939005   186    1.945284   187    1.953153  
     188    1.966990   189    1.996204   190    1.999682  
     191    2.007228   192    2.012734   193    2.018787  
     194    2.028145   195    2.035919   196    2.041972  
     197    2.049154   198    2.058384   199    2.072531  
     200    2.084239   201    2.104517   202    2.124992  
     203    2.131653   204    2.151214   205    2.160069  
     206    2.164475   207    2.176787   208    2.196487  
     209    2.198689   210    2.244207   211    2.253396  
     212    2.268602   213    2.283314   214    2.308093  
     215    2.318019   216    2.330409   217    2.348033  
     218    2.358310   219    2.376747   220    2.390185  
     221    2.403398   222    2.416673   223    2.424102  
     224    2.435404   225    2.441336   226    2.481616  
     227    2.514804   228    2.529790   229    2.544210  
     230    2.576374   231    2.588891   232    2.636298  
     233    2.650090   234    2.674381   235    2.683101  
     236    2.699181   237    2.703119   238    2.747639  
     239    2.750677   240    2.792263   241    2.805555  
     242    2.823496   243    2.830951   244    2.863790  
     245    2.871848   246    2.875926   247    2.881232  
     248    2.896558   249    2.900303   250    2.909300  
     251    2.944306   252    2.986955   253    3.046764  
     254    3.073807   255    3.085618   256    3.106093  
     257    3.134103   258    3.168444   259    3.221510  
     260    3.274823   261    3.339067   262    3.373119  
     263    3.460682   264    3.579916   265    3.648480  
     266    3.668068   267    3.769109   268    3.803212  
     269    3.904955   270    3.968831   271    4.001116  
     272    4.074867   273    4.124614   274    4.244171  
     275    4.429225   276    4.510149   277    4.565996  
     278    4.740660   279    4.962782   280    5.039560  
     281    5.066722   282    5.216587   283    5.340713  
     284    5.541181   285    5.551711   286    5.635493  
     287    5.868701   288    6.245610   289    6.373279  
     290    6.738845   291   13.411081   292   18.433829  
     293   33.423423   294   33.477052  

  ==> SCF B: <==

    Maxiter =          50
    E Tol   =   1.000E-06
    D Tol   =   1.000E-08

    Max DIIS Vectors = 5

    Iter   N:                        E          dE         |D|
    Iter   1:  -2.2418571947383853E+02  -2.242E+02   5.663E-03 
    Iter   2:  -2.2420374575089079E+02  -1.803E-02   4.679E-04 DIIS
    Iter   3:  -2.2420452936080017E+02  -7.836E-04   1.384E-04 DIIS
    Iter   4:  -2.2420460133533419E+02  -7.197E-05   1.069E-04 DIIS
    Iter   5:  -2.2420461711888717E+02  -1.578E-05   1.286E-05 DIIS
    Iter   6:  -2.2420461831636732E+02  -1.197E-06   9.179E-06 DIIS
    Iter   7:  -2.2420461844686139E+02  -1.305E-07   3.964E-06 DIIS
    Iter   8:  -2.2420461847997015E+02  -3.311E-08   1.146E-06 DIIS
    Iter   9:  -2.2420461848401027E+02  -4.040E-09   4.014E-07 DIIS
    Iter  10:  -2.2420461848437748E+02  -3.672E-10   1.324E-07 DIIS
    Iter  11:  -2.2420461848441698E+02  -3.951E-11   3.339E-08 DIIS
    Iter  12:  -2.2420461848441963E+02  -2.643E-12   1.803E-08 DIIS
    Iter  13:  -2.2420461848442002E+02  -3.979E-13   3.445E-09 DIIS

    FISAPTSCF Converged.

    Final SCF Energy:  -2.2420461848442002E+02 [Eh]

   => Occupied Orbital Energies <=

       1  -20.610189     2  -20.552595     3  -11.394909  
       4  -11.295973     5   -1.444006     6   -1.359598  
       7   -0.965219     8   -0.770645     9   -0.674378  
      10   -0.663373    11   -0.627592    12   -0.540022  
      13   -0.538853    14   -0.478144    15   -0.464074  

   => Virtual Orbital Energies <=

      16    0.015887    17    0.057697    18    0.061107  
      19    0.066640    20    0.077522    21    0.078990  
      22    0.086507    23    0.092953    24    0.096021  
      25    0.101891    26    0.103165    27    0.108253  
      28    0.115227    29    0.119406    30    0.120079  
      31    0.127357    32    0.127832    33    0.138289  
      34    0.146235    35    0.148649    36    0.155272  
      37    0.166132    38    0.170190    39    0.176750  
      40    0.179830    41    0.183697    42    0.193858  
      43    0.201808    44    0.207390    45    0.211752  
      46    0.216843    47    0.223127    48    0.226352  
      49    0.232492    50    0.241322    51    0.246025  
      52    0.250315    53    0.256327    54    0.265193  
      55    0.269276    56    0.274594    57    0.274717  
      58    0.285425    59    0.288750    60    0.297238  
      61    0.305525    62    0.307835    63    0.316966  
      64    0.319452    65    0.322686    66    0.325705  
      67    0.337697    68    0.344715    69    0.351016  
      70    0.354373    71    0.364195    72    0.366114  
      73    0.373057    74    0.376269    75    0.381451  
      76    0.386436    77    0.393510    78    0.401955  
      79    0.409806    80    0.413730    81    0.416920  
      82    0.423539    83    0.431406    84    0.435108  
      85    0.447554    86    0.455695    87    0.457713  
      88    0.465871    89    0.471819    90    0.476209  
      91    0.486283    92    0.496089    93    0.506755  
      94    0.513911    95    0.524183    96    0.549046  
      97    0.552575    98    0.564465    99    0.570329  
     100    0.582563   101    0.601609   102    0.625825  
     103    0.646776   104    0.655689   105    0.671838  
     106    0.689779   107    0.701225   108    0.733939  
     109    0.780204   110    0.787396   111    0.798813  
     112    0.804708   113    0.824829   114    0.831398  
     115    0.855878   116    0.865440   117    0.867632  
     118    0.883334   119    0.893629   120    0.907854  
     121    0.916835   122    0.923496   123    0.926719  
     124    0.934783   125    0.941202   126    0.947378  
     127    0.955861   128    0.962546   129    0.971846  
     130    0.974041   131    0.983806   132    0.991467  
     133    1.003676   134    1.007956   135    1.029696  
     136    1.038848   137    1.046547   138    1.060425  
     139    1.070200   140    1.071852   141    1.079523  
     142    1.132644   143    1.140262   144    1.168573  
     145    1.187797   146    1.202136   147    1.212065  
     148    1.219110   149    1.224326   150    1.242537  
     151    1.256028   152    1.273809   153    1.284073  
     154    1.298499   155    1.304843   156    1.310242  
     157    1.326279   158    1.347391   159    1.358999  
     160    1.389511   161    1.392031   162    1.394074  
     163    1.413340   164    1.433558   165    1.444216  
     166    1.476954   167    1.482046   168    1.505438  
     169    1.514304   170    1.519574   171    1.531658  
     172    1.561618   173    1.578520   174    1.597228  
     175    1.602578   176    1.613014   177    1.629952  
     178    1.640343   179    1.641424   180    1.656625  
     181    1.669974   182    1.675808   183    1.697502  
     184    1.704577   185    1.721926   186    1.724839  
     187    1.763178   188    1.777752   189    1.783048  
     190    1.787019   191    1.801060   192    1.821514  
     193    1.835713   194    1.863627   195    1.876630  
     196    1.880372   197    1.902409   198    1.911808  
     199    1.917979   200    1.933756   201    1.936951  
     202    1.949866   203    1.964961   204    1.982427  
     205    1.984723   206    1.993311   207    2.003425  
     208    2.012719   209    2.018041   210    2.028830  
     211    2.031347   212    2.049993   213    2.060499  
     214    2.076832   215    2.083207   216    2.095826  
     217    2.104892   218    2.126550   219    2.131975  
     220    2.137879   221    2.161156   222    2.165733  
     223    2.174577   224    2.191298   225    2.201987  
     226    2.236479   227    2.254049   228    2.276288  
     229    2.306054   230    2.327597   231    2.344978  
     232    2.357647   233    2.374701   234    2.383745  
     235    2.387970   236    2.405576   237    2.417819  
     238    2.427729   239    2.428958   240    2.443278  
     241    2.453497   242    2.466179   243    2.499057  
     244    2.518955   245    2.586044   246    2.599820  
     247    2.674334   248    2.693370   249    2.707570  
     250    2.715098   251    2.748313   252    2.776867  
     253    2.788493   254    2.791004   255    2.795963  
     256    2.807538   257    2.820285   258    2.842104  
     259    2.853984   260    2.868863   261    2.884878  
     262    2.891151   263    2.907637   264    2.985352  
     265    3.001158   266    3.019428   267    3.045127  
     268    3.068713   269    3.113615   270    3.137222  
     271    3.164470   272    3.202794   273    3.247564  
     274    3.251123   275    3.279274   276    3.295047  
     277    3.338421   278    3.376040   279    3.450131  
     280    3.555408   281    3.577494   282    3.643064  
     283    3.687929   284    3.693263   285    3.771819  
     286    3.839772   287    3.935969   288    3.951029  
     289    4.070303   290    4.093009   291    4.121005  
     292    4.496491   293    4.560584   294   13.283727  

  ==> Frozen Core <==


    ------------------
    Range      A     B
    ------------------
    nbf      330   330
    nmo      294   294
    nocc       4    15
    nvir     290   279
    nfocc      1     4
    naocc      3    11
    navir    290   279
    nfvir      0     0
    ------------------

  ==> Unification <==

  ==> dHF <==

    E ABC(HF) =  -7.2308054163205452E+02 [Eh]
    E AC(0)   =  -4.9503123563778422E+02 [Eh]
    E BC(0)   =  -6.8296370776862568E+02 [Eh]
    E A(0)    =  -2.5019515360147047E+01 [Eh]
    E B(0)    =  -2.1262074809263845E+02 [Eh]
    E AC(HF)  =  -4.9502728044562559E+02 [Eh]
    E BC(HF)  =  -6.8294480875804379E+02 [Eh]
    E AB(HF)  =  -2.3760101198929573E+02 [Eh]
    E A(HF)   =  -2.5001056009055134E+01 [Eh]
    E B(HF)   =  -2.1259274781288633E+02 [Eh]
    E C       =  -4.5489875573896836E+02 [Eh]
    E HF      =   1.5646035387021584E-02 [Eh]

  ==> Electrostatics <==

    Elst10,r            =     0.007354214081 [Eh]

  ==> Exchange <==

    Exch10(S^2)         =     0.010400429951 [Eh]
    Exch10              =     0.010477526517 [Eh]

  ==> Induction <==

    Ind20,u (A<-B)      =    -0.001852455225 [Eh]
    Ind20,u (B<-A)      =    -0.001553347268 [Eh]
    Ind20,u             =    -0.003405802493 [Eh]
    Exch-Ind20,u (A<-B) =     0.000970531602 [Eh]
    Exch-Ind20,u (B<-A) =     0.001231772456 [Eh]
    Exch-Ind20,u        =     0.002202304058 [Eh]

  ==> CPHF Iterations <==

    Maxiter     =          50
    Convergence =   1.000E-08

    -----------------------------------------
    Iter   Monomer A    Monomer B    Time [s]
    -----------------------------------------
    1      1.246E-01    2.562E-01           0
    2      1.588E-02    1.026E-01           1
    3      3.906E-03    1.881E-02           2
    4      5.828E-04    7.470E-03           2
    5      7.705E-05    1.810E-03           3
    6      1.306E-05    6.327E-04           4
    7      1.839E-06    1.629E-04           4
    8      2.801E-07    7.962E-05           5
    9      3.065E-08    1.993E-05           6
    10     2.454E-09*   5.246E-06           6
    11     2.454E-09*   1.920E-06           7
    12     2.454E-09*   4.636E-07           7
    13     2.454E-09*   1.006E-07           7
    14     2.454E-09*   2.095E-08           8
    15     2.454E-09*   5.219E-09*          8
    -----------------------------------------

    Ind20,r (A<-B)      =    -0.002130308074 [Eh]
    Ind20,r (B<-A)      =    -0.001949656775 [Eh]
    Ind20,r             =    -0.004079964849 [Eh]
    Exch-Ind20,r (A<-B) =     0.001151615156 [Eh]
    Exch-Ind20,r (B<-A) =     0.001671440374 [Eh]
    Exch-Ind20,r        =     0.002823055530 [Eh]

  ==> F-SAPT Localization (IBO) <==

  Local Orbitals for Monomer A:

  ==> IBO Localizer 2 <==

    MinAO Basis = CC-PVTZ-MINAO
    Use Ghosts  =       FALSE
    Use Stars   =       FALSE
    Condition   =   1.000E-07
    Power       =           4
    Convergence =   1.000E-12
    Maxiter     =        1000

    @IBO Iter:                   Metric       Gradient
    @IBO    1:   1.0666082394620224E+00   2.299532E-02
    @IBO    2:   1.0843122883505449E+00   5.912031E-03
    @IBO    3:   1.0843376646505629E+00   5.781431E-06
    @IBO    4:   1.0843376646747682E+00   4.594274E-10
    @IBO    5:   1.0843376646747682E+00   2.184453E-13

    IBO Localizer 2 converged.

  Local Orbitals for Monomer B:

  ==> IBO Localizer 2 <==

    MinAO Basis = CC-PVTZ-MINAO
    Use Ghosts  =       FALSE
    Use Stars   =       FALSE
    Condition   =   1.000E-07
    Power       =           4
    Convergence =   1.000E-12
    Maxiter     =        1000

    @IBO Iter:                   Metric       Gradient
    @IBO    1:   1.4798502855010469E+00   1.560582E+00
    @IBO    2:   1.6737616937623734E+00   1.082716E+00
    @IBO    3:   1.7087170076061939E+00   2.910891E-01
    @IBO    4:   1.7099444260260441E+00   1.178105E-02
    @IBO    5:   1.7099478634599052E+00   3.486041E-04
    @IBO    6:   1.7099478652186604E+00   5.192079E-06
    @IBO    7:   1.7099478652191922E+00   1.314323E-07
    @IBO    8:   1.7099478652191924E+00   3.040242E-09
    @IBO    9:   1.7099478652191924E+00   8.525397E-11
    @IBO   10:   1.7099478652191922E+00   2.939847E-12
    @IBO   11:   1.7099478652191924E+00   1.120431E-13

    IBO Localizer 2 converged.

  ==> F-SAPT Electrostatics <==

  ==> DFERI: Density Fitted 3-Index Tensors <==

    Schwarz cutoff =   0.000E+00
    J cutoff       =   1.000E-12
    Mem (GB)       =         628

   => Auxiliary Basis <=

  Basis Set: (JUN-CC-PVDZ AUX)
    Blend: JUN-CC-PVDZ-JKFIT
    Number of shells: 513
    Number of basis function: 1461
    Number of Cartesian functions: 1665
    Spherical Harmonics?: true
    Max angular momentum: 3

    Elst10,r            =     0.007354213890 [Eh]

  ==> F-SAPT Exchange <==

  ==> DFERI: Density Fitted 3-Index Tensors <==

    Schwarz cutoff =   0.000E+00
    J cutoff       =   1.000E-12
    Mem (GB)       =         628

   => Auxiliary Basis <=

  Basis Set: (JUN-CC-PVDZ AUX)
    Blend: JUN-CC-PVDZ-JKFIT
    Number of shells: 513
    Number of basis function: 1461
    Number of Cartesian functions: 1665
    Spherical Harmonics?: true
    Max angular momentum: 3

    Exch10(S^2)         =     0.010400429951 [Eh]

    Scaling F-SAPT Exch10(S^2) by   1.007E+00 to match Exch10

  ==> F-SAPT Induction <==

  ==> DFERI: Density Fitted 3-Index Tensors <==

    Schwarz cutoff =   0.000E+00
    J cutoff       =   1.000E-12
    Mem (GB)       =         628

   => Auxiliary Basis <=

  Basis Set: (JUN-CC-PVDZ AUX)
    Blend: JUN-CC-PVDZ-JKFIT
    Number of shells: 513
    Number of basis function: 1461
    Number of Cartesian functions: 1665
    Spherical Harmonics?: true
    Max angular momentum: 3

    Ind20,u (A<-B)      =    -0.001852455225 [Eh]
    Ind20,u (B<-A)      =    -0.001553347268 [Eh]
    Ind20,u             =    -0.003405802493 [Eh]
    Exch-Ind20,u (A<-B) =     0.000970531602 [Eh]
    Exch-Ind20,u (B<-A) =     0.001231772456 [Eh]
    Exch-Ind20,u        =     0.002202304058 [Eh]

    Scaling for delta HF        =   1.739E+00
    Scaling for response (A<-B) =   1.110E+00
    Scaling for response (B<-A) =   8.652E-01
    Scaling for total (A<-B)    =   1.930E+00
    Scaling for total (B<-A)    =   1.504E+00

  ==> F-SAPT Dispersion <==

  ==> DFERI: Density Fitted 3-Index Tensors <==

    Schwarz cutoff =   0.000E+00
    J cutoff       =   1.000E-12
    Mem (GB)       =         628

   => Auxiliary Basis <=

  Basis Set: (JUN-CC-PVDZ AUX)
    Blend: JUN-CC-PVDZ-RI
    Number of shells: 387
    Number of basis function: 1143
    Number of Cartesian functions: 1320
    Spherical Harmonics?: true
    Max angular momentum: 3

    Disp20              =    -0.003483475865 [Eh]
    Exch-Disp20         =     0.000687792032 [Eh]

  ==> F-SAPT Output <==

    F-SAPT Data Filepath = fsapt/

  ==> Results <==


    SAPT Results  
  --------------------------------------------------------------------------------------------------------
    Electrostatics                  7.35421408 [mEh]       4.61483920 [kcal/mol]      19.30848907 [kJ/mol]
      Elst10,r                      7.35421408 [mEh]       4.61483920 [kcal/mol]      19.30848907 [kJ/mol]

    Exchange                       10.47752652 [mEh]       6.57474743 [kcal/mol]      27.50874587 [kJ/mol]
      Exch10                       10.47752652 [mEh]       6.57474743 [kcal/mol]      27.50874587 [kJ/mol]
      Exch10(S^2)                  10.40042995 [mEh]       6.52636860 [kcal/mol]      27.30632884 [kJ/mol]

    Induction                      -2.18570521 [mEh]      -1.37155078 [kcal/mol]      -5.73856903 [kJ/mol]
      Ind20,r                      -4.07996485 [mEh]      -2.56021670 [kcal/mol]     -10.71194771 [kJ/mol]
      Exch-Ind20,r                  2.82305553 [mEh]       1.77149416 [kcal/mol]       7.41193230 [kJ/mol]
      delta HF,r (2)               -0.92879589 [mEh]      -0.58282825 [kcal/mol]      -2.43855361 [kJ/mol]
      Induction (A<-B)             -1.70190019 [mEh]      -1.06795854 [kcal/mol]      -4.46833895 [kJ/mol]
      Induction (B<-A)             -0.48380502 [mEh]      -0.30359225 [kcal/mol]      -1.27023008 [kJ/mol]

    Dispersion                     -2.79568383 [mEh]      -1.75431816 [kcal/mol]      -7.34006790 [kJ/mol]
      Disp20                       -3.48347587 [mEh]      -2.18591420 [kcal/mol]      -9.14586588 [kJ/mol]
      Exch-Disp20                   0.68779203 [mEh]       0.43159603 [kcal/mol]       1.80579798 [kJ/mol]

  Total HF                         15.64603539 [mEh]       9.81803584 [kcal/mol]      41.07866591 [kJ/mol]
  Total SAPT0                      12.85035155 [mEh]       8.06371768 [kcal/mol]      33.73859800 [kJ/mol]

  --------------------------------------------------------------------------------------------------------
    Han Solo: This is *not* gonna work.
    Luke Skywalker: Why didn't you say so before?
    Han Solo: I *did* say so before.

*** tstop() called on vega03.cac.cornell.edu at Wed Oct 18 19:27:16 2017
Module time:
	user time   =    1481.56 seconds =      24.69 minutes
	system time =       9.18 seconds =       0.15 minutes
	total time  =         61 seconds =       1.02 minutes
Total time:
	user time   =    2134.38 seconds =      35.57 minutes
	system time =      14.90 seconds =       0.25 minutes
	total time  =         96 seconds =       1.60 minutes

*** Psi4 exiting successfully. Buy a developer a beer!
