
    -----------------------------------------------------------------------
          Psi4: An Open-Source Ab Initio Electronic Structure Package
                               Psi4 1.1 release

                         Git: Rev {HEAD} add49b9 


    R. M. Parrish, L. A. Burns, D. G. A. Smith, A. C. Simmonett,
    A. E. DePrince III, E. G. Hohenstein, U. Bozkaya, A. Yu. Sokolov,
    R. Di Remigio, R. M. Richard, J. F. Gonthier, A. M. James,
    H. R. McAlexander, A. Kumar, M. Saitow, X. Wang, B. P. Pritchard,
    P. Verma, H. F. Schaefer III, K. Patkowski, R. A. King, E. F. Valeev,
    F. A. Evangelista, J. M. Turney, T. D. Crawford, and C. D. Sherrill,
    J. Chem. Theory Comput. in press (2017).
    (doi: 10.1021/acs.jctc.7b00174)

    -----------------------------------------------------------------------


    Psi4 started on: Tuesday, 12 December 2017 11:40AM

    Process ID:  15970
    PSIDATADIR: /home/junteng/Softwares/psi4conda/share/psi4
    Memory:     500.0 MiB
    Threads:    1
    
  ==> Input File <==

--------------------------------------------------------------------------
memory 750000 mb

molecule mol {
0 1
C          0.04446        1.39608        0.13019
O          0.01640        2.22556        1.00541
O          0.82687        1.48592       -0.96546
C          1.76059        2.57977       -0.98292
H          1.23523        3.53485       -0.94127
H          2.30426        2.48108       -1.91980
H          2.43992        2.50648       -0.13176
--
0 1
C          1.23946       -1.35094       -0.09406
O          1.78582       -2.22329       -0.72653
O          1.88880       -0.52458        0.75091
C          3.31781       -0.67353        0.80721
H          3.58348       -1.69246        1.09127
H          3.65198        0.03606        1.56070
H          3.76001       -0.44462       -0.16413
--
0 1
C         -2.87124        1.65557        0.30644
H         -3.95623        1.55682        0.24662
H         -2.55394        2.35968       -0.46800
H         -2.61155        2.10128        1.26820
H         -0.58726       -3.20027       -0.36033
C         -0.23514       -1.10527       -0.09387
C         -0.81117        0.16699        0.07137
C         -1.05069       -2.23148       -0.22329
C         -2.43187       -2.09829       -0.16291
C         -2.99836       -0.84057        0.01980
C         -2.20955        0.30855        0.13634
H         -4.07756       -0.74008        0.06469
H         -3.06708       -2.97186       -0.25534

symmetry c1
no_reorient
no_com
}

set {
basis jun-cc-pvdz
scf_type df
guess sad
freeze_core true
}

energy('fisapt0')
--------------------------------------------------------------------------

  Memory set to 698.492 GiB by Python driver.

*** tstart() called on ThinkPad-P50
*** at Tue Dec 12 11:40:23 2017

   => Loading Basis Set <=

    Name: JUN-CC-PVDZ
    Role: ORBITAL
    Keyword: BASIS
    atoms 1, 4, 8, 11, 15, 20-25   entry C          line   157 file /home/junteng/Softwares/psi4conda/share/psi4/basis/jun-cc-pvdz.gbs 
    atoms 2-3, 9-10                entry O          line   225 file /home/junteng/Softwares/psi4conda/share/psi4/basis/jun-cc-pvdz.gbs 
    atoms 5-7, 12-14, 16-19, 26-27 entry H          line    35 file /home/junteng/Softwares/psi4conda/share/psi4/basis/jun-cc-pvdz.gbs 


         ---------------------------------------------------------
                                   SCF
            by Justin Turney, Rob Parrish, and Andy Simmonett
                              RHF Reference
                        1 Threads, 715255 MiB Core
         ---------------------------------------------------------

  ==> Geometry <==

    Molecular point group: c1
    Full point group: C1

    Geometry (in Angstrom), charge = 0, multiplicity = 1:

       Center              X                  Y                   Z               Mass       
    ------------   -----------------  -----------------  -----------------  -----------------
           C          0.044460000000     1.396080000000     0.130190000000    12.000000000000
           O          0.016400000000     2.225560000000     1.005410000000    15.994914619560
           O          0.826870000000     1.485920000000    -0.965460000000    15.994914619560
           C          1.760590000000     2.579770000000    -0.982920000000    12.000000000000
           H          1.235230000000     3.534850000000    -0.941270000000     1.007825032070
           H          2.304260000000     2.481080000000    -1.919800000000     1.007825032070
           H          2.439920000000     2.506480000000    -0.131760000000     1.007825032070
           C          1.239460000000    -1.350940000000    -0.094060000000    12.000000000000
           O          1.785820000000    -2.223290000000    -0.726530000000    15.994914619560
           O          1.888800000000    -0.524580000000     0.750910000000    15.994914619560
           C          3.317810000000    -0.673530000000     0.807210000000    12.000000000000
           H          3.583480000000    -1.692460000000     1.091270000000     1.007825032070
           H          3.651980000000     0.036060000000     1.560700000000     1.007825032070
           H          3.760010000000    -0.444620000000    -0.164130000000     1.007825032070
           C         -2.871240000000     1.655570000000     0.306440000000    12.000000000000
           H         -3.956230000000     1.556820000000     0.246620000000     1.007825032070
           H         -2.553940000000     2.359680000000    -0.468000000000     1.007825032070
           H         -2.611550000000     2.101280000000     1.268200000000     1.007825032070
           H         -0.587260000000    -3.200270000000    -0.360330000000     1.007825032070
           C         -0.235140000000    -1.105270000000    -0.093870000000    12.000000000000
           C         -0.811170000000     0.166990000000     0.071370000000    12.000000000000
           C         -1.050690000000    -2.231480000000    -0.223290000000    12.000000000000
           C         -2.431870000000    -2.098290000000    -0.162910000000    12.000000000000
           C         -2.998360000000    -0.840570000000     0.019800000000    12.000000000000
           C         -2.209550000000     0.308550000000     0.136340000000    12.000000000000
           H         -4.077560000000    -0.740080000000     0.064690000000     1.007825032070
           H         -3.067080000000    -2.971860000000    -0.255340000000     1.007825032070

  Running in c1 symmetry.

  Rotational constants: A =      0.02635  B =      0.01970  C =      0.01264 [cm^-1]
  Rotational constants: A =    789.95340  B =    590.67917  C =    378.90966 [MHz]
  Nuclear repulsion = 1018.735702914911826

  Charge       = 0
  Multiplicity = 1
  Electrons    = 110
  Nalpha       = 55
  Nbeta        = 55

  ==> Algorithm <==

  SCF Algorithm Type is DF.
  DIIS enabled.
  MOM disabled.
  Fractional occupation disabled.
  Guess Type is SAD.
  Energy threshold   = 1.00e-08
  Density threshold  = 1.00e-08
  Integral threshold = 0.00e+00

  ==> Primary Basis <==

  Basis Set: JUN-CC-PVDZ
    Blend: JUN-CC-PVDZ
    Number of shells: 156
    Number of basis function: 330
    Number of Cartesian functions: 345
    Spherical Harmonics?: true
    Max angular momentum: 2

   => Loading Basis Set <=

    Name: (JUN-CC-PVDZ AUX)
    Role: JKFIT
    Keyword: DF_BASIS_SCF
    atoms 1, 4, 8, 11, 15, 20-25   entry C          line   145 file /home/junteng/Softwares/psi4conda/share/psi4/basis/jun-cc-pvdz-jkfit.gbs 
    atoms 2-3, 9-10                entry O          line   257 file /home/junteng/Softwares/psi4conda/share/psi4/basis/jun-cc-pvdz-jkfit.gbs 
    atoms 5-7, 12-14, 16-19, 26-27 entry H          line    69 file /home/junteng/Softwares/psi4conda/share/psi4/basis/jun-cc-pvdz-jkfit.gbs 

  ==> Pre-Iterations <==

   -------------------------------------------------------
    Irrep   Nso     Nmo     Nalpha   Nbeta   Ndocc  Nsocc
   -------------------------------------------------------
     A        330     330       0       0       0       0
   -------------------------------------------------------
    Total     330     330      55      55      55       0
   -------------------------------------------------------

  ==> Integral Setup <==

  ==> DFJK: Density-Fitted J/K Matrices <==

    J tasked:                  Yes
    K tasked:                  Yes
    wK tasked:                  No
    OpenMP threads:              1
    Integrals threads:           1
    Memory (MB):            536441
    Algorithm:                Core
    Integral Cache:           NONE
    Schwarz Cutoff:          1E-12
    Fitting Condition:       1E-12

   => Auxiliary Basis Set <=

  Basis Set: (JUN-CC-PVDZ AUX)
    Blend: JUN-CC-PVDZ-JKFIT
    Number of shells: 513
    Number of basis function: 1461
    Number of Cartesian functions: 1665
    Spherical Harmonics?: true
    Max angular momentum: 3

  Minimum eigenvalue in the overlap matrix is 4.9532690388E-06.
  Using Symmetric Orthogonalization.

  SCF Guess: Superposition of Atomic Densities via on-the-fly atomic UHF.

  ==> Iterations <==

                           Total Energy        Delta E     RMS |[F,P]|

   @DF-RHF iter   0:  -728.76461379652551   -7.28765e+02   2.16066e-02 
   @DF-RHF iter   1:  -722.63727585883817    6.12734e+00   2.39317e-03 
   @DF-RHF iter   2:  -722.98529473038479   -3.48019e-01   1.30077e-03 DIIS
   @DF-RHF iter   3:  -723.06436527137453   -7.90705e-02   4.76879e-04 DIIS
   @DF-RHF iter   4:  -723.08261068547654   -1.82454e-02   1.63114e-04 DIIS
   @DF-RHF iter   5:  -723.08483918567424   -2.22850e-03   5.82828e-05 DIIS
   @DF-RHF iter   6:  -723.08535839450724   -5.19209e-04   2.23398e-05 DIIS
   @DF-RHF iter   7:  -723.08544670105698   -8.83065e-05   8.32715e-06 DIIS
   @DF-RHF iter   8:  -723.08545888257106   -1.21815e-05   3.47669e-06 DIIS
   @DF-RHF iter   9:  -723.08546128079479   -2.39822e-06   1.61914e-06 DIIS
   @DF-RHF iter  10:  -723.08546176167897   -4.80884e-07   5.99702e-07 DIIS
   @DF-RHF iter  11:  -723.08546183430462   -7.26257e-08   2.21763e-07 DIIS
   @DF-RHF iter  12:  -723.08546184288946   -8.58483e-09   8.18534e-08 DIIS
   @DF-RHF iter  13:  -723.08546184420254   -1.31308e-09   3.34242e-08 DIIS
   @DF-RHF iter  14:  -723.08546184439922   -1.96678e-10   1.46554e-08 DIIS
   @DF-RHF iter  15:  -723.08546184443344   -3.42197e-11   5.55986e-09 DIIS

  ==> Post-Iterations <==

    Orbital Energies (a.u.)
    -----------------------

    Doubly Occupied:                                                      

       1A    -20.616170     2A    -20.614802     3A    -20.560538  
       4A    -20.560057     5A    -11.399264     6A    -11.399133  
       7A    -11.299910     8A    -11.299165     9A    -11.275023  
      10A    -11.273887    11A    -11.271218    12A    -11.259780  
      13A    -11.258413    14A    -11.257549    15A    -11.237733  
      16A     -1.475295    17A     -1.467968    18A     -1.371202  
      19A     -1.370315    20A     -1.184869    21A     -1.074995  
      22A     -1.066380    23A     -0.994188    24A     -0.977638  
      25A     -0.948761    26A     -0.886411    27A     -0.843644  
      28A     -0.786846    29A     -0.780365    30A     -0.742915  
      31A     -0.712344    32A     -0.700067    33A     -0.683627  
      34A     -0.681131    35A     -0.662180    36A     -0.657917  
      37A     -0.647920    38A     -0.612630    39A     -0.591364  
      40A     -0.587673    41A     -0.582228    42A     -0.564183  
      43A     -0.555252    44A     -0.548354    45A     -0.541679  
      46A     -0.535931    47A     -0.521454    48A     -0.512884  
      49A     -0.502243    50A     -0.472607    51A     -0.462960  
      52A     -0.460820    53A     -0.451571    54A     -0.356793  
      55A     -0.343239  

    Virtual:                                                              

      56A      0.053469    57A      0.057543    58A      0.061354  
      59A      0.069474    60A      0.071149    61A      0.081324  
      62A      0.087993    63A      0.094439    64A      0.094811  
      65A      0.098203    66A      0.107592    67A      0.110466  
      68A      0.112611    69A      0.118466    70A      0.124426  
      71A      0.127251    72A      0.139640    73A      0.145460  
      74A      0.147814    75A      0.153025    76A      0.160818  
      77A      0.165574    78A      0.173246    79A      0.175374  
      80A      0.182072    81A      0.194615    82A      0.197011  
      83A      0.202715    84A      0.208056    85A      0.210524  
      86A      0.217539    87A      0.223973    88A      0.224598  
      89A      0.231836    90A      0.238484    91A      0.243048  
      92A      0.250065    93A      0.260634    94A      0.262320  
      95A      0.268737    96A      0.273856    97A      0.276651  
      98A      0.288355    99A      0.291885   100A      0.299563  
     101A      0.304025   102A      0.308073   103A      0.313128  
     104A      0.320676   105A      0.324918   106A      0.332960  
     107A      0.338457   108A      0.343187   109A      0.347310  
     110A      0.356263   111A      0.361389   112A      0.369742  
     113A      0.370542   114A      0.373086   115A      0.380539  
     116A      0.387783   117A      0.391924   118A      0.394718  
     119A      0.402565   120A      0.406250   121A      0.410485  
     122A      0.422759   123A      0.424760   124A      0.431172  
     125A      0.440800   126A      0.445986   127A      0.449957  
     128A      0.454923   129A      0.468350   130A      0.475932  
     131A      0.487550   132A      0.491007   133A      0.493652  
     134A      0.502007   135A      0.519811   136A      0.540244  
     137A      0.548134   138A      0.556419   139A      0.579187  
     140A      0.590860   141A      0.613042   142A      0.629944  
     143A      0.663871   144A      0.694034   145A      0.717956  
     146A      0.747842   147A      0.759929   148A      0.773681  
     149A      0.779116   150A      0.806808   151A      0.819873  
     152A      0.824851   153A      0.831328   154A      0.836630  
     155A      0.855087   156A      0.863956   157A      0.870360  
     158A      0.884521   159A      0.891813   160A      0.900420  
     161A      0.902223   162A      0.907087   163A      0.911477  
     164A      0.925537   165A      0.928866   166A      0.932029  
     167A      0.942416   168A      0.946094   169A      0.950478  
     170A      0.956649   171A      0.957780   172A      0.966689  
     173A      0.972348   174A      0.983219   175A      0.996166  
     176A      1.000250   177A      1.012029   178A      1.016668  
     179A      1.034707   180A      1.037441   181A      1.054243  
     182A      1.058705   183A      1.079032   184A      1.105345  
     185A      1.112159   186A      1.134268   187A      1.138549  
     188A      1.148464   189A      1.172840   190A      1.178177  
     191A      1.212231   192A      1.220681   193A      1.234326  
     194A      1.251781   195A      1.259435   196A      1.276579  
     197A      1.279865   198A      1.290239   199A      1.302937  
     200A      1.320769   201A      1.330336   202A      1.338541  
     203A      1.355381   204A      1.363234   205A      1.386650  
     206A      1.421949   207A      1.448552   208A      1.460301  
     209A      1.484079   210A      1.506006   211A      1.513786  
     212A      1.534149   213A      1.547436   214A      1.553440  
     215A      1.560974   216A      1.582085   217A      1.601372  
     218A      1.603133   219A      1.613097   220A      1.625320  
     221A      1.630515   222A      1.641114   223A      1.658988  
     224A      1.673247   225A      1.693322   226A      1.698418  
     227A      1.707304   228A      1.725849   229A      1.730955  
     230A      1.747299   231A      1.759088   232A      1.793894  
     233A      1.814406   234A      1.822082   235A      1.834484  
     236A      1.858582   237A      1.874611   238A      1.882932  
     239A      1.902859   240A      1.907622   241A      1.918138  
     242A      1.923164   243A      1.930254   244A      1.943677  
     245A      1.954996   246A      1.960200   247A      1.971466  
     248A      1.978025   249A      1.992976   250A      1.995887  
     251A      2.008910   252A      2.012287   253A      2.024241  
     254A      2.030697   255A      2.035391   256A      2.041369  
     257A      2.051554   258A      2.067754   259A      2.088897  
     260A      2.112937   261A      2.121533   262A      2.143660  
     263A      2.150068   264A      2.156085   265A      2.164329  
     266A      2.171888   267A      2.209652   268A      2.220181  
     269A      2.233845   270A      2.260417   271A      2.289748  
     272A      2.294713   273A      2.342845   274A      2.354772  
     275A      2.373957   276A      2.386351   277A      2.391943  
     278A      2.399036   279A      2.415893   280A      2.422968  
     281A      2.430498   282A      2.438338   283A      2.469493  
     284A      2.508552   285A      2.518407   286A      2.542116  
     287A      2.551220   288A      2.612332   289A      2.629262  
     290A      2.667638   291A      2.715825   292A      2.743459  
     293A      2.770298   294A      2.782902   295A      2.794907  
     296A      2.797810   297A      2.817290   298A      2.846280  
     299A      2.861270   300A      2.872274   301A      2.881400  
     302A      2.891947   303A      2.899519   304A      2.924721  
     305A      2.958931   306A      2.970417   307A      3.029941  
     308A      3.036264   309A      3.096443   310A      3.106363  
     311A      3.113312   312A      3.133761   313A      3.142796  
     314A      3.257991   315A      3.266020   316A      3.284554  
     317A      3.314333   318A      3.385711   319A      3.429850  
     320A      3.558682   321A      3.578584   322A      3.659561  
     323A      3.678591   324A      3.759688   325A      3.798691  
     326A      3.820380   327A      3.943856   328A      3.973794  
     329A      4.061931   330A      4.069356  

    Final Occupation by Irrep:
              A 
    DOCC [    55 ]

  Energy converged.

  @DF-RHF Final Energy:  -723.08546184443344

   => Energetics <=

    Nuclear Repulsion Energy =           1018.7357029149118262
    One-Electron Energy =               -3010.6353544066400900
    Two-Electron Energy =                1268.8141896472948247
    DFT Exchange-Correlation Energy =       0.0000000000000000
    Empirical Dispersion Energy =           0.0000000000000000
    PCM Polarization Energy =               0.0000000000000000
    EFP Energy =                            0.0000000000000000
    Total Energy =                       -723.0854618444334392



Properties will be evaluated at   0.000000,   0.000000,   0.000000 Bohr

Properties computed using the SCF density matrix

  Nuclear Dipole Moment: (a.u.)
     X:    -2.2862      Y:     0.1457      Z:    -0.0165

  Electronic Dipole Moment: (a.u.)
     X:     2.1337      Y:     0.1703      Z:    -0.0873

  Dipole Moment: (a.u.)
     X:    -0.1526      Y:     0.3161      Z:    -0.1037     Total:     0.3660

  Dipole Moment: (Debye)
     X:    -0.3878      Y:     0.8034      Z:    -0.2636     Total:     0.9302


*** tstop() called on ThinkPad-P50 at Tue Dec 12 11:43:10 2017
Module time:
	user time   =     165.51 seconds =       2.76 minutes
	system time =       1.45 seconds =       0.02 minutes
	total time  =        167 seconds =       2.78 minutes
Total time:
	user time   =     165.51 seconds =       2.76 minutes
	system time =       1.45 seconds =       0.02 minutes
	total time  =        167 seconds =       2.78 minutes
   => Loading Basis Set <=

    Name: (JUN-CC-PVDZ AUX)
    Role: JKFIT
    Keyword: DF_BASIS_SCF
    atoms 1, 4, 8, 11, 15, 20-25   entry C          line   145 file /home/junteng/Softwares/psi4conda/share/psi4/basis/jun-cc-pvdz-jkfit.gbs 
    atoms 2-3, 9-10                entry O          line   257 file /home/junteng/Softwares/psi4conda/share/psi4/basis/jun-cc-pvdz-jkfit.gbs 
    atoms 5-7, 12-14, 16-19, 26-27 entry H          line    69 file /home/junteng/Softwares/psi4conda/share/psi4/basis/jun-cc-pvdz-jkfit.gbs 

   => Loading Basis Set <=

    Name: (JUN-CC-PVDZ AUX)
    Role: RIFIT
    Keyword: DF_BASIS_SAPT
    atoms 1, 4, 8, 11, 15, 20-25   entry C          line    99 file /home/junteng/Softwares/psi4conda/share/psi4/basis/jun-cc-pvdz-ri.gbs 
    atoms 2-3, 9-10                entry O          line   187 file /home/junteng/Softwares/psi4conda/share/psi4/basis/jun-cc-pvdz-ri.gbs 
    atoms 5-7, 12-14, 16-19, 26-27 entry H          line    29 file /home/junteng/Softwares/psi4conda/share/psi4/basis/jun-cc-pvdz-ri.gbs 

   => Loading Basis Set <=

    Name: CC-PVTZ-MINAO
    Role: ORBITAL
    Keyword: BASIS
    atoms 1, 4, 8, 11, 15, 20-25   entry C          line   130 file /home/junteng/Softwares/psi4conda/share/psi4/basis/cc-pvtz-minao.gbs 
    atoms 2-3, 9-10                entry O          line   190 file /home/junteng/Softwares/psi4conda/share/psi4/basis/cc-pvtz-minao.gbs 
    atoms 5-7, 12-14, 16-19, 26-27 entry H          line    19 file /home/junteng/Softwares/psi4conda/share/psi4/basis/cc-pvtz-minao.gbs 


*** tstart() called on ThinkPad-P50
*** at Tue Dec 12 11:43:11 2017

	 --------------------------------------------
	                    FISAPT0                  
	                  Rob Parrish                
	 --------------------------------------------

    Do F-SAPT =         Yes
    Do Plot   =          No
    Memory    =      78.580 [GD]

  ==> Localization (IBO) <==

  ==> IBO Localizer 2 <==

    MinAO Basis = CC-PVTZ-MINAO
    Use Ghosts  =       FALSE
    Use Stars   =       FALSE
    Condition   =   1.000E-07
    Power       =           4
    Convergence =   1.000E-12
    Maxiter     =        1000

    @IBO Iter:                   Metric       Gradient
    @IBO    1:   1.8278945728720406E+00   3.472378E+00
    @IBO    2:   2.1838149938403983E+00   2.017112E+00
    @IBO    3:   2.2510490642302141E+00   9.562771E-01
    @IBO    4:   2.2587149113641209E+00   9.893710E-02
    @IBO    5:   2.2589709617717908E+00   2.440198E-02
    @IBO    6:   2.2590008944297892E+00   4.803989E-03
    @IBO    7:   2.2590021299356899E+00   1.147082E-03
    @IBO    8:   2.2590022087505561E+00   2.923430E-04
    @IBO    9:   2.2590022139548331E+00   7.558247E-05
    @IBO   10:   2.2590022143049513E+00   1.991078E-05
    @IBO   11:   2.2590022143292585E+00   5.330184E-06
    @IBO   12:   2.2590022143309936E+00   1.446088E-06
    @IBO   13:   2.2590022143311210E+00   3.966102E-07
    @IBO   14:   2.2590022143311304E+00   1.097209E-07
    @IBO   15:   2.2590022143311308E+00   3.056075E-08
    @IBO   16:   2.2590022143311308E+00   8.557122E-09
    @IBO   17:   2.2590022143311308E+00   2.405754E-09
    @IBO   18:   2.2590022143311308E+00   6.784490E-10
    @IBO   19:   2.2590022143311312E+00   1.917786E-10
    @IBO   20:   2.2590022143311312E+00   5.430623E-11
    @IBO   21:   2.2590022143311312E+00   1.539831E-11
    @IBO   22:   2.2590022143311312E+00   4.370433E-12
    @IBO   23:   2.2590022143311308E+00   1.241347E-12
    @IBO   24:   2.2590022143311308E+00   3.527479E-13

    IBO Localizer 2 converged.

  ==> Partitioning <==

   => Atomic Partitioning <= 

    Monomer A:   7 atoms
    Monomer B:   7 atoms
    Monomer C:  13 atoms

   => Link Bond Identification <=

    Link Bond Selection = AUTOMATIC

    Charge Completeness = 0.800

    Total Link Bonds = 2

    --------------------------
    N     Orb Type Aind1 Aind2
    --------------------------
    1      17   AC     1    21
    2      18   BC     8    20
    --------------------------

   => Link Bond Assignment <=

    Link Bond Assignment      = C

   => Partition Summary <=

    Monomer A:  0 charge,  30 protons,  30 electrons,  15 docc
    Monomer B:  0 charge,  30 protons,  30 electrons,  15 docc
    Monomer C:  0 charge,  50 protons,  50 electrons,  25 docc

  ==> Overlap Integrals <==

  ==> Kinetic Integrals <==

  ==> Nuclear Integrals <==

    Nuclear Repulsion Tot:   1.0187357029149116E+03 [Eh]

  ==> Coulomb Integrals <==

  ==> DFJK: Density-Fitted J/K Matrices <==

    J tasked:                  Yes
    K tasked:                  Yes
    wK tasked:                  No
    OpenMP threads:              1
    Integrals threads:           1
    Memory (MB):            643730
    Algorithm:                Core
    Integral Cache:           NONE
    Schwarz Cutoff:          1E-12
    Fitting Condition:       1E-12

   => Auxiliary Basis Set <=

  Basis Set: (JUN-CC-PVDZ AUX)
    Blend: JUN-CC-PVDZ-JKFIT
    Number of shells: 513
    Number of basis function: 1461
    Number of Cartesian functions: 1665
    Spherical Harmonics?: true
    Max angular momentum: 3

  ==> Relaxed SCF Equations <==

  ==> SCF A: <==

    Maxiter =          50
    E Tol   =   1.000E-06
    D Tol   =   1.000E-08

    Max DIIS Vectors = 5

    Iter   N:                        E          dE         |D|
    Iter   1:  -2.2415629935705084E+02  -2.242E+02   7.782E-04 
    Iter   2:  -2.2416579382944255E+02  -9.494E-03   4.853E-05 DIIS
    Iter   3:  -2.2416593899682221E+02  -1.452E-04   2.121E-05 DIIS
    Iter   4:  -2.2416595709739670E+02  -1.810E-05   7.956E-06 DIIS
    Iter   5:  -2.2416596040699707E+02  -3.310E-06   1.292E-06 DIIS
    Iter   6:  -2.2416596057614129E+02  -1.691E-07   5.688E-07 DIIS
    Iter   7:  -2.2416596060627703E+02  -3.014E-08   1.814E-07 DIIS
    Iter   8:  -2.2416596061014309E+02  -3.866E-09   8.447E-08 DIIS
    Iter   9:  -2.2416596061081313E+02  -6.700E-10   3.311E-08 DIIS
    Iter  10:  -2.2416596061096604E+02  -1.529E-10   1.451E-08 DIIS
    Iter  11:  -2.2416596061098602E+02  -1.998E-11   7.287E-09 DIIS

    FISAPTSCF Converged.

    Final SCF Energy:  -2.2416596061098602E+02 [Eh]

   => Occupied Orbital Energies <=

       1  -20.605236     2  -20.551620     3  -11.389682  
       4  -11.292464     5   -1.436819     6   -1.358483  
       7   -0.959893     8   -0.765118     9   -0.670816  
      10   -0.661437    11   -0.619331    12   -0.542736  
      13   -0.534549    14   -0.475105    15   -0.459087  

   => Virtual Orbital Energies <=

      16    0.031321    17    0.056287    18    0.060086  
      19    0.068385    20    0.071556    21    0.082001  
      22    0.090976    23    0.093599    24    0.097306  
      25    0.103620    26    0.106760    27    0.111561  
      28    0.114369    29    0.119855    30    0.123509  
      31    0.131806    32    0.138449    33    0.143988  
      34    0.145751    35    0.150099    36    0.157464  
      37    0.162110    38    0.171284    39    0.172123  
      40    0.183928    41    0.191638    42    0.193848  
      43    0.199508    44    0.204112    45    0.211084  
      46    0.214523    47    0.221578    48    0.226439  
      49    0.231189    50    0.242298    51    0.245457  
      52    0.250529    53    0.257661    54    0.265314  
      55    0.265885    56    0.273674    57    0.274725  
      58    0.283645    59    0.290540    60    0.293401  
      61    0.297172    62    0.303504    63    0.310381  
      64    0.318891    65    0.320529    66    0.325533  
      67    0.331058    68    0.341376    69    0.341969  
      70    0.354225    71    0.360883    72    0.362944  
      73    0.370571    74    0.374784    75    0.381843  
      76    0.387691    77    0.396838    78    0.402400  
      79    0.406165    80    0.410024    81    0.415207  
      82    0.420820    83    0.433709    84    0.435921  
      85    0.447622    86    0.448592    87    0.460043  
      88    0.465329    89    0.483542    90    0.491507  
      91    0.501392    92    0.513130    93    0.530426  
      94    0.541685    95    0.555576    96    0.562188  
      97    0.567724    98    0.582401    99    0.593009  
     100    0.620006   101    0.620971   102    0.627794  
     103    0.643633   104    0.651309   105    0.686242  
     106    0.717408   107    0.735742   108    0.768997  
     109    0.776974   110    0.791419   111    0.798294  
     112    0.812063   113    0.827632   114    0.835128  
     115    0.842650   116    0.863319   117    0.878551  
     118    0.885734   119    0.897128   120    0.904140  
     121    0.915174   122    0.925404   123    0.929995  
     124    0.936550   125    0.945535   126    0.946793  
     127    0.951216   128    0.961587   129    0.965512  
     130    0.971029   131    0.981754   132    0.985351  
     133    0.997762   134    1.005796   135    1.014764  
     136    1.025678   137    1.033664   138    1.046873  
     139    1.061575   140    1.079153   141    1.099844  
     142    1.110449   143    1.122495   144    1.130231  
     145    1.148386   146    1.165796   147    1.177941  
     148    1.194678   149    1.217483   150    1.226452  
     151    1.231221   152    1.251525   153    1.252715  
     154    1.285314   155    1.297680   156    1.305678  
     157    1.315712   158    1.328010   159    1.339449  
     160    1.349433   161    1.361435   162    1.393399  
     163    1.416696   164    1.443576   165    1.494245  
     166    1.510867   167    1.522554   168    1.529302  
     169    1.539206   170    1.565647   171    1.580810  
     172    1.590202   173    1.606546   174    1.624777  
     175    1.636185   176    1.636582   177    1.658026  
     178    1.667322   179    1.680662   180    1.695282  
     181    1.711940   182    1.731483   183    1.736113  
     184    1.771566   185    1.790235   186    1.802741  
     187    1.816253   188    1.823917   189    1.831675  
     190    1.849206   191    1.873982   192    1.887308  
     193    1.915648   194    1.921882   195    1.926524  
     196    1.932369   197    1.951557   198    1.959002  
     199    1.969182   200    1.972244   201    1.990896  
     202    2.002067   203    2.011124   204    2.021462  
     205    2.029319   206    2.039378   207    2.057080  
     208    2.061113   209    2.070317   210    2.086448  
     211    2.100188   212    2.121211   213    2.136760  
     214    2.140559   215    2.153021   216    2.157954  
     217    2.166431   218    2.169020   219    2.208998  
     220    2.234103   221    2.243863   222    2.264470  
     223    2.271527   224    2.279478   225    2.293923  
     226    2.311448   227    2.326976   228    2.354988  
     229    2.363557   230    2.375152   231    2.387152  
     232    2.390608   233    2.401737   234    2.416151  
     235    2.436259   236    2.445860   237    2.480262  
     238    2.488484   239    2.525372   240    2.556600  
     241    2.562806   242    2.599964   243    2.621397  
     244    2.641177   245    2.656268   246    2.685443  
     247    2.699401   248    2.731491   249    2.744397  
     250    2.783488   251    2.800174   252    2.807588  
     253    2.824926   254    2.836074   255    2.861092  
     256    2.872391   257    2.877702   258    2.885519  
     259    2.891775   260    2.907643   261    2.912537  
     262    2.926918   263    2.961761   264    3.032181  
     265    3.041673   266    3.073122   267    3.112407  
     268    3.123051   269    3.166086   270    3.207224  
     271    3.277106   272    3.314272   273    3.385751  
     274    3.439612   275    3.578358   276    3.608445  
     277    3.672070   278    3.742384   279    3.792990  
     280    3.933397   281    3.944351   282    3.987357  
     283    4.076072   284    4.135060   285    4.203983  
     286    4.442453   287    4.509018   288    4.565582  
     289    4.753908   290    4.932644   291    5.040191  
     292    5.064573   293    5.182502   294    5.320774  
     295    5.505889   296    5.603559   297    5.706706  
     298    5.825000   299    6.110468   300    6.331973  
     301    6.709581   302   13.374188   303   18.424824  
     304   33.417050   305   33.473530  

  ==> SCF B: <==

    Maxiter =          50
    E Tol   =   1.000E-06
    D Tol   =   1.000E-08

    Max DIIS Vectors = 5

    Iter   N:                        E          dE         |D|
    Iter   1:  -2.2401333426855487E+02  -2.240E+02   9.396E-04 
    Iter   2:  -2.2402684289450966E+02  -1.351E-02   5.769E-05 DIIS
    Iter   3:  -2.2402705261643575E+02  -2.097E-04   2.437E-05 DIIS
    Iter   4:  -2.2402707833712708E+02  -2.572E-05   9.680E-06 DIIS
    Iter   5:  -2.2402708340282163E+02  -5.066E-06   1.660E-06 DIIS
    Iter   6:  -2.2402708369361079E+02  -2.908E-07   7.273E-07 DIIS
    Iter   7:  -2.2402708374594246E+02  -5.233E-08   2.437E-07 DIIS
    Iter   8:  -2.2402708375218469E+02  -6.242E-09   1.095E-07 DIIS
    Iter   9:  -2.2402708375334976E+02  -1.165E-09   4.375E-08 DIIS
    Iter  10:  -2.2402708375360649E+02  -2.567E-10   1.876E-08 DIIS
    Iter  11:  -2.2402708375363974E+02  -3.325E-11   8.626E-09 DIIS

    FISAPTSCF Converged.

    Final SCF Energy:  -2.2402708375363974E+02 [Eh]

   => Occupied Orbital Energies <=

       1  -20.604495     2  -20.546842     3  -11.387153  
       4  -11.291815     5   -1.435383     6   -1.354776  
       7   -0.959268     8   -0.763737     9   -0.666996  
      10   -0.659064    11   -0.618776    12   -0.537897  
      13   -0.533014    14   -0.471742    15   -0.457512  

   => Virtual Orbital Energies <=

      16    0.031730    17    0.051303    18    0.063068  
      19    0.067082    20    0.070878    21    0.081365  
      22    0.089823    23    0.092133    24    0.097076  
      25    0.100997    26    0.106345    27    0.109192  
      28    0.116684    29    0.118708    30    0.126721  
      31    0.131806    32    0.135570    33    0.138167  
      34    0.146855    35    0.149096    36    0.159456  
      37    0.163601    38    0.169559    39    0.172657  
      40    0.176987    41    0.182654    42    0.190355  
      43    0.199421    44    0.205080    45    0.212855  
      46    0.221800    47    0.223387    48    0.229382  
      49    0.235588    50    0.242292    51    0.244330  
      52    0.245079    53    0.258670    54    0.261277  
      55    0.269736    56    0.272380    57    0.278490  
      58    0.286274    59    0.286680    60    0.294739  
      61    0.297874    62    0.304352    63    0.310342  
      64    0.320857    65    0.327111    66    0.329211  
      67    0.332469    68    0.340960    69    0.343739  
      70    0.346630    71    0.353092    72    0.361108  
      73    0.365886    74    0.374267    75    0.381960  
      76    0.388486    77    0.396354    78    0.399975  
      79    0.405665    80    0.411002    81    0.415617  
      82    0.421620    83    0.430040    84    0.439071  
      85    0.451466    86    0.457612    87    0.463649  
      88    0.469142    89    0.485117    90    0.489553  
      91    0.498180    92    0.504395    93    0.519406  
      94    0.521808    95    0.541629    96    0.552930  
      97    0.569401    98    0.575359    99    0.594532  
     100    0.615222   101    0.626062   102    0.627813  
     103    0.658805   104    0.662186   105    0.687807  
     106    0.702300   107    0.747951   108    0.763610  
     109    0.780922   110    0.784129   111    0.801222  
     112    0.816892   113    0.835674   114    0.843709  
     115    0.848007   116    0.870649   117    0.881148  
     118    0.891512   119    0.898279   120    0.909182  
     121    0.918993   122    0.924097   123    0.932064  
     124    0.936379   125    0.940986   126    0.948172  
     127    0.957713   128    0.959749   129    0.964571  
     130    0.978757   131    0.982640   132    0.990379  
     133    0.994771   134    0.997723   135    1.021929  
     136    1.031941   137    1.042927   138    1.055089  
     139    1.061749   140    1.087926   141    1.108198  
     142    1.112455   143    1.114167   144    1.135093  
     145    1.147012   146    1.157450   147    1.184766  
     148    1.199642   149    1.201469   150    1.214259  
     151    1.222982   152    1.239251   153    1.251518  
     154    1.280231   155    1.285503   156    1.307816  
     157    1.311630   158    1.318608   159    1.332501  
     160    1.335970   161    1.372923   162    1.383831  
     163    1.408110   164    1.448480   165    1.466862  
     166    1.511263   167    1.527693   168    1.542000  
     169    1.551643   170    1.571390   171    1.581099  
     172    1.589965   173    1.592039   174    1.611297  
     175    1.622557   176    1.639353   177    1.657042  
     178    1.677765   179    1.678793   180    1.700222  
     181    1.704264   182    1.721587   183    1.730922  
     184    1.767355   185    1.772677   186    1.801287  
     187    1.811133   188    1.827452   189    1.841518  
     190    1.853843   191    1.859104   192    1.883685  
     193    1.898404   194    1.919945   195    1.924176  
     196    1.934619   197    1.950925   198    1.954387  
     199    1.964828   200    1.983322   201    2.002734  
     202    2.005743   203    2.012922   204    2.023497  
     205    2.035139   206    2.052848   207    2.057282  
     208    2.060084   209    2.073578   210    2.085360  
     211    2.103332   212    2.117552   213    2.119161  
     214    2.128464   215    2.148090   216    2.161369  
     217    2.166329   218    2.178675   219    2.187835  
     220    2.202653   221    2.236699   222    2.247396  
     223    2.267792   224    2.283668   225    2.311756  
     226    2.318698   227    2.328241   228    2.352483  
     229    2.362223   230    2.371947   231    2.394304  
     232    2.402034   233    2.402811   234    2.418978  
     235    2.435003   236    2.444788   237    2.487238  
     238    2.504854   239    2.522416   240    2.560210  
     241    2.563706   242    2.601874   243    2.631116  
     244    2.647691   245    2.673053   246    2.681463  
     247    2.694307   248    2.713103   249    2.755867  
     250    2.776958   251    2.797124   252    2.803425  
     253    2.846610   254    2.850824   255    2.854490  
     256    2.867007   257    2.871343   258    2.882759  
     259    2.896037   260    2.899500   261    2.927280  
     262    2.952277   263    2.982531   264    3.028689  
     265    3.049826   266    3.074553   267    3.107873  
     268    3.143341   269    3.156442   270    3.209170  
     271    3.274445   272    3.306845   273    3.418164  
     274    3.461503   275    3.576738   276    3.609076  
     277    3.683371   278    3.744857   279    3.811112  
     280    3.893997   281    3.944847   282    4.007462  
     283    4.075866   284    4.137894   285    4.195021  
     286    4.438664   287    4.511362   288    4.553689  
     289    4.757183   290    4.928468   291    5.040152  
     292    5.067179   293    5.189602   294    5.315625  
     295    5.507233   296    5.627522   297    5.725827  
     298    5.849720   299    6.104724   300    6.328165  
     301    6.690183   302   13.368172   303   18.424027  
     304   33.416536   305   33.473397  

  ==> Frozen Core <==


    ------------------
    Range      A     B
    ------------------
    nbf      330   330
    nmo      305   305
    nocc      15    15
    nvir     290   290
    nfocc      4     4
    naocc     11    11
    navir    290   290
    nfvir      0     0
    ------------------

  ==> Unification <==

  ==> dHF <==

    E ABC(HF) =  -7.2308546184443344E+02 [Eh]
    E AC(0)   =  -4.9506795207045457E+02 [Eh]
    E BC(0)   =  -4.9508085110587581E+02 [Eh]
    E A(0)    =  -2.1265752588315527E+02 [Eh]
    E B(0)    =  -2.1264735152803672E+02 [Eh]
    E AC(HF)  =  -4.9505829081651927E+02 [Eh]
    E BC(HF)  =  -4.9506710162079185E+02 [Eh]
    E AB(HF)  =  -4.2527025663205842E+02 [Eh]
    E A(HF)   =  -2.1263935095417824E+02 [Eh]
    E B(HF)   =  -2.1262329633301334E+02 [Eh]
    E C       =  -2.6704753993773937E+02 [Eh]
    E HF      =   1.5801394157563209E-02 [Eh]

  ==> Electrostatics <==

    Elst10,r            =     0.011060862746 [Eh]

  ==> Exchange <==

    Exch10(S^2)         =     0.006872353985 [Eh]
    Exch10              =     0.006896644985 [Eh]

  ==> Induction <==

    Ind20,u (A<-B)      =    -0.001356528003 [Eh]
    Ind20,u (B<-A)      =    -0.001779685826 [Eh]
    Ind20,u             =    -0.003136213829 [Eh]
    Exch-Ind20,u (A<-B) =     0.000694741386 [Eh]
    Exch-Ind20,u (B<-A) =     0.000893905997 [Eh]
    Exch-Ind20,u        =     0.001588647383 [Eh]

  ==> CPHF Iterations <==

    Maxiter     =          50
    Convergence =   1.000E-08

    -----------------------------------------
    Iter   Monomer A    Monomer B    Time [s]
    -----------------------------------------
    1      1.911E-01    2.179E-01          13
    2      7.142E-02    8.335E-02          24
    3      1.802E-02    2.138E-02          36
    4      7.232E-03    8.010E-03          48
    5      1.902E-03    2.256E-03          59
    6      6.517E-04    7.974E-04          71
    7      1.765E-04    1.958E-04          83
    8      5.738E-05    7.200E-05          95
    9      1.711E-05    1.981E-05         108
    10     6.490E-06    7.494E-06         120
    11     2.129E-06    2.295E-06         131
    12     3.856E-07    5.076E-07         142
    13     9.177E-08    1.514E-07         155
    14     2.305E-08    4.862E-08         167
    15     4.593E-09*   1.003E-08         183
    16     4.593E-09*   2.008E-09*        190
    -----------------------------------------

    Ind20,r (A<-B)      =    -0.001538022926 [Eh]
    Ind20,r (B<-A)      =    -0.002086934056 [Eh]
    Ind20,r             =    -0.003624956983 [Eh]
    Exch-Ind20,r (A<-B) =     0.000831009462 [Eh]
    Exch-Ind20,r (B<-A) =     0.001137852954 [Eh]
    Exch-Ind20,r        =     0.001968862415 [Eh]

  ==> F-SAPT Localization (IBO) <==

  Local Orbitals for Monomer A:

  ==> IBO Localizer 2 <==

    MinAO Basis = CC-PVTZ-MINAO
    Use Ghosts  =       FALSE
    Use Stars   =       FALSE
    Condition   =   1.000E-07
    Power       =           4
    Convergence =   1.000E-12
    Maxiter     =        1000

    @IBO Iter:                   Metric       Gradient
    @IBO    1:   1.4794159595446046E+00   1.677916E+00
    @IBO    2:   1.6780441280859870E+00   9.476695E-01
    @IBO    3:   1.7093879448131903E+00   2.895845E-01
    @IBO    4:   1.7104211794313571E+00   2.383958E-03
    @IBO    5:   1.7104213602347662E+00   1.008545E-04
    @IBO    6:   1.7104213603929113E+00   2.798066E-06
    @IBO    7:   1.7104213603930827E+00   1.062924E-07
    @IBO    8:   1.7104213603930831E+00   4.013367E-09
    @IBO    9:   1.7104213603930833E+00   1.624980E-10
    @IBO   10:   1.7104213603930833E+00   6.798128E-12
    @IBO   11:   1.7104213603930833E+00   2.888446E-13

    IBO Localizer 2 converged.

  Local Orbitals for Monomer B:

  ==> IBO Localizer 2 <==

    MinAO Basis = CC-PVTZ-MINAO
    Use Ghosts  =       FALSE
    Use Stars   =       FALSE
    Condition   =   1.000E-07
    Power       =           4
    Convergence =   1.000E-12
    Maxiter     =        1000

    @IBO Iter:                   Metric       Gradient
    @IBO    1:   1.4811610411739498E+00   1.669732E+00
    @IBO    2:   1.6776395099583175E+00   9.412078E-01
    @IBO    3:   1.7096821753113682E+00   2.830169E-01
    @IBO    4:   1.7107009469926449E+00   2.641892E-03
    @IBO    5:   1.7107011846283824E+00   1.061604E-04
    @IBO    6:   1.7107011847827953E+00   2.261623E-06
    @IBO    7:   1.7107011847828897E+00   7.407103E-08
    @IBO    8:   1.7107011847828901E+00   2.183397E-09
    @IBO    9:   1.7107011847828899E+00   7.275372E-11
    @IBO   10:   1.7107011847828899E+00   2.667182E-12
    @IBO   11:   1.7107011847828899E+00   1.038414E-13

    IBO Localizer 2 converged.

  ==> F-SAPT Electrostatics <==

  ==> DFERI: Density Fitted 3-Index Tensors <==

    Schwarz cutoff =   0.000E+00
    J cutoff       =   1.000E-12
    Mem (GB)       =         628

   => Auxiliary Basis <=

  Basis Set: (JUN-CC-PVDZ AUX)
    Blend: JUN-CC-PVDZ-JKFIT
    Number of shells: 513
    Number of basis function: 1461
    Number of Cartesian functions: 1665
    Spherical Harmonics?: true
    Max angular momentum: 3

    Elst10,r            =     0.011060862832 [Eh]

  ==> F-SAPT Exchange <==

  ==> DFERI: Density Fitted 3-Index Tensors <==

    Schwarz cutoff =   0.000E+00
    J cutoff       =   1.000E-12
    Mem (GB)       =         628

   => Auxiliary Basis <=

  Basis Set: (JUN-CC-PVDZ AUX)
    Blend: JUN-CC-PVDZ-JKFIT
    Number of shells: 513
    Number of basis function: 1461
    Number of Cartesian functions: 1665
    Spherical Harmonics?: true
    Max angular momentum: 3

    Exch10(S^2)         =     0.006872353985 [Eh]

    Scaling F-SAPT Exch10(S^2) by   1.004E+00 to match Exch10

  ==> F-SAPT Induction <==

  ==> DFERI: Density Fitted 3-Index Tensors <==

    Schwarz cutoff =   0.000E+00
    J cutoff       =   1.000E-12
    Mem (GB)       =         628

   => Auxiliary Basis <=

  Basis Set: (JUN-CC-PVDZ AUX)
    Blend: JUN-CC-PVDZ-JKFIT
    Number of shells: 513
    Number of basis function: 1461
    Number of Cartesian functions: 1665
    Spherical Harmonics?: true
    Max angular momentum: 3

    Ind20,u (A<-B)      =    -0.001356528004 [Eh]
    Ind20,u (B<-A)      =    -0.001779685825 [Eh]
    Ind20,u             =    -0.003136213828 [Eh]
    Exch-Ind20,u (A<-B) =     0.000694741386 [Eh]
    Exch-Ind20,u (B<-A) =     0.000893905997 [Eh]
    Exch-Ind20,u        =     0.001588647383 [Eh]

    Scaling for delta HF        =   1.302E+00
    Scaling for response (A<-B) =   1.068E+00
    Scaling for response (B<-A) =   1.071E+00
    Scaling for total (A<-B)    =   1.391E+00
    Scaling for total (B<-A)    =   1.395E+00

  ==> F-SAPT Dispersion <==

  ==> DFERI: Density Fitted 3-Index Tensors <==

    Schwarz cutoff =   0.000E+00
    J cutoff       =   1.000E-12
    Mem (GB)       =         628

   => Auxiliary Basis <=

  Basis Set: (JUN-CC-PVDZ AUX)
    Blend: JUN-CC-PVDZ-RI
    Number of shells: 387
    Number of basis function: 1143
    Number of Cartesian functions: 1320
    Spherical Harmonics?: true
    Max angular momentum: 3

    Disp20              =    -0.004619248589 [Eh]
    Exch-Disp20         =     0.000499491223 [Eh]

  ==> F-SAPT Output <==

    F-SAPT Data Filepath = fsapt/

  ==> Results <==


    SAPT Results  
  --------------------------------------------------------------------------------------------------------
    Electrostatics                 11.06086275 [mEh]       6.94079645 [kcal/mol]      29.04029514 [kJ/mol]
      Elst10,r                     11.06086275 [mEh]       6.94079645 [kcal/mol]      29.04029514 [kJ/mol]

    Exchange                        6.89664499 [mEh]       4.32771025 [kcal/mol]      18.10714141 [kJ/mol]
      Exch10                        6.89664499 [mEh]       4.32771025 [kcal/mol]      18.10714141 [kJ/mol]
      Exch10(S^2)                   6.87235399 [mEh]       4.31246741 [kcal/mol]      18.04336539 [kJ/mol]

    Induction                      -2.15611357 [mEh]      -1.35298175 [kcal/mol]      -5.66087619 [kJ/mol]
      Ind20,r                      -3.62495698 [mEh]      -2.27469494 [kcal/mol]      -9.51732456 [kJ/mol]
      Exch-Ind20,r                  1.96886242 [mEh]       1.23547987 [kcal/mol]       5.16924827 [kJ/mol]
      delta HF,r (2)               -0.50001901 [mEh]      -0.31376668 [kcal/mol]      -1.31279990 [kJ/mol]
      Induction (A<-B)             -0.92047964 [mEh]      -0.57760972 [kcal/mol]      -2.41671929 [kJ/mol]
      Induction (B<-A)             -1.23563394 [mEh]      -0.77537203 [kcal/mol]      -3.24415690 [kJ/mol]

    Dispersion                     -4.11975737 [mEh]      -2.58518688 [kcal/mol]     -10.81642296 [kJ/mol]
      Disp20                       -4.61924859 [mEh]      -2.89862237 [kcal/mol]     -12.12783717 [kJ/mol]
      Exch-Disp20                   0.49949122 [mEh]       0.31343549 [kcal/mol]       1.31141421 [kJ/mol]

  Total HF                         15.80139416 [mEh]       9.91552495 [kcal/mol]      41.48656036 [kJ/mol]
  Total SAPT0                      11.68163679 [mEh]       7.33033806 [kcal/mol]      30.67013740 [kJ/mol]

  --------------------------------------------------------------------------------------------------------
    Han Solo: This is *not* gonna work.
    Luke Skywalker: Why didn't you say so before?
    Han Solo: I *did* say so before.

*** tstop() called on ThinkPad-P50 at Tue Dec 12 11:52:13 2017
Module time:
	user time   =     536.36 seconds =       8.94 minutes
	system time =       5.45 seconds =       0.09 minutes
	total time  =        542 seconds =       9.03 minutes
Total time:
	user time   =     702.96 seconds =      11.72 minutes
	system time =       6.91 seconds =       0.12 minutes
	total time  =        710 seconds =      11.83 minutes

*** Psi4 exiting successfully. Buy a developer a beer!
