
    -----------------------------------------------------------------------
          Psi4: An Open-Source Ab Initio Electronic Structure Package
                               Psi4 1.1 release

                         Git: Rev {HEAD} add49b9 


    R. M. Parrish, L. A. Burns, D. G. A. Smith, A. C. Simmonett,
    A. E. DePrince III, E. G. Hohenstein, U. Bozkaya, A. Yu. Sokolov,
    R. Di Remigio, R. M. Richard, J. F. Gonthier, A. M. James,
    H. R. McAlexander, A. Kumar, M. Saitow, X. Wang, B. P. Pritchard,
    P. Verma, H. F. Schaefer III, K. Patkowski, R. A. King, E. F. Valeev,
    F. A. Evangelista, J. M. Turney, T. D. Crawford, and C. D. Sherrill,
    J. Chem. Theory Comput. in press (2017).
    (doi: 10.1021/acs.jctc.7b00174)

    -----------------------------------------------------------------------


    Psi4 started on: Wednesday, 18 October 2017 07:28PM

    Process ID:  50383
    PSIDATADIR: /opt/software/psi4/psi4conda/share/psi4
    Memory:     500.0 MiB
    Threads:    48
    
  ==> Input File <==

--------------------------------------------------------------------------
memory 750000 mb

molecule mol {
0 1
C         -2.87124        1.65557        0.30644
H         -3.95623        1.55682        0.24662
H         -2.55394        2.35968       -0.46800
H         -2.61155        2.10128        1.26820
--
0 1
C          0.04446        1.39608        0.13019
O          0.01640        2.22556        1.00541
O          0.82687        1.48592       -0.96546
C          1.76059        2.57977       -0.98292
H          1.23523        3.53485       -0.94127
H          2.30426        2.48108       -1.91980
H          2.43992        2.50648       -0.13176
--
0 1
H         -0.58726       -3.20027       -0.36033
C          1.23946       -1.35094       -0.09406
O          1.78582       -2.22329       -0.72653
O          1.88880       -0.52458        0.75091
C          3.31781       -0.67353        0.80721
H          3.58348       -1.69246        1.09127
H          3.65198        0.03606        1.56070
H          3.76001       -0.44462       -0.16413
C         -0.23514       -1.10527       -0.09387
C         -0.81117        0.16699        0.07137
C         -1.05069       -2.23148       -0.22329
C         -2.43187       -2.09829       -0.16291
C         -2.99836       -0.84057        0.01980
C         -2.20955        0.30855        0.13634
H         -4.07756       -0.74008        0.06469
H         -3.06708       -2.97186       -0.25534

symmetry c1
no_reorient
no_com
}

set {
basis jun-cc-pvdz
scf_type df
guess sad
freeze_core true
}

energy('fisapt0')
--------------------------------------------------------------------------

  Memory set to 698.492 GiB by Python driver.

*** tstart() called on vega03.cac.cornell.edu
*** at Wed Oct 18 19:28:15 2017

   => Loading Basis Set <=

    Name: JUN-CC-PVDZ
    Role: ORBITAL
    Keyword: BASIS
    atoms 1, 5, 8, 13, 16, 20-25  entry C          line   157 file /opt/software/psi4/psi4conda/share/psi4/basis/jun-cc-pvdz.gbs 
    atoms 2-4, 9-12, 17-19, 26-27 entry H          line    35 file /opt/software/psi4/psi4conda/share/psi4/basis/jun-cc-pvdz.gbs 
    atoms 6-7, 14-15              entry O          line   225 file /opt/software/psi4/psi4conda/share/psi4/basis/jun-cc-pvdz.gbs 


         ---------------------------------------------------------
                                   SCF
            by Justin Turney, Rob Parrish, and Andy Simmonett
                              RHF Reference
                       48 Threads, 715255 MiB Core
         ---------------------------------------------------------

  ==> Geometry <==

    Molecular point group: c1
    Full point group: C1

    Geometry (in Angstrom), charge = 0, multiplicity = 1:

       Center              X                  Y                   Z               Mass       
    ------------   -----------------  -----------------  -----------------  -----------------
           C         -2.871240000000     1.655570000000     0.306440000000    12.000000000000
           H         -3.956230000000     1.556820000000     0.246620000000     1.007825032070
           H         -2.553940000000     2.359680000000    -0.468000000000     1.007825032070
           H         -2.611550000000     2.101280000000     1.268200000000     1.007825032070
           C          0.044460000000     1.396080000000     0.130190000000    12.000000000000
           O          0.016400000000     2.225560000000     1.005410000000    15.994914619560
           O          0.826870000000     1.485920000000    -0.965460000000    15.994914619560
           C          1.760590000000     2.579770000000    -0.982920000000    12.000000000000
           H          1.235230000000     3.534850000000    -0.941270000000     1.007825032070
           H          2.304260000000     2.481080000000    -1.919800000000     1.007825032070
           H          2.439920000000     2.506480000000    -0.131760000000     1.007825032070
           H         -0.587260000000    -3.200270000000    -0.360330000000     1.007825032070
           C          1.239460000000    -1.350940000000    -0.094060000000    12.000000000000
           O          1.785820000000    -2.223290000000    -0.726530000000    15.994914619560
           O          1.888800000000    -0.524580000000     0.750910000000    15.994914619560
           C          3.317810000000    -0.673530000000     0.807210000000    12.000000000000
           H          3.583480000000    -1.692460000000     1.091270000000     1.007825032070
           H          3.651980000000     0.036060000000     1.560700000000     1.007825032070
           H          3.760010000000    -0.444620000000    -0.164130000000     1.007825032070
           C         -0.235140000000    -1.105270000000    -0.093870000000    12.000000000000
           C         -0.811170000000     0.166990000000     0.071370000000    12.000000000000
           C         -1.050690000000    -2.231480000000    -0.223290000000    12.000000000000
           C         -2.431870000000    -2.098290000000    -0.162910000000    12.000000000000
           C         -2.998360000000    -0.840570000000     0.019800000000    12.000000000000
           C         -2.209550000000     0.308550000000     0.136340000000    12.000000000000
           H         -4.077560000000    -0.740080000000     0.064690000000     1.007825032070
           H         -3.067080000000    -2.971860000000    -0.255340000000     1.007825032070

  Running in c1 symmetry.

  Rotational constants: A =      0.02635  B =      0.01970  C =      0.01264 [cm^-1]
  Rotational constants: A =    789.95340  B =    590.67917  C =    378.90966 [MHz]
  Nuclear repulsion = 1018.735702914911940

  Charge       = 0
  Multiplicity = 1
  Electrons    = 110
  Nalpha       = 55
  Nbeta        = 55

  ==> Algorithm <==

  SCF Algorithm Type is DF.
  DIIS enabled.
  MOM disabled.
  Fractional occupation disabled.
  Guess Type is SAD.
  Energy threshold   = 1.00e-08
  Density threshold  = 1.00e-08
  Integral threshold = 0.00e+00

  ==> Primary Basis <==

  Basis Set: JUN-CC-PVDZ
    Blend: JUN-CC-PVDZ
    Number of shells: 156
    Number of basis function: 330
    Number of Cartesian functions: 345
    Spherical Harmonics?: true
    Max angular momentum: 2

   => Loading Basis Set <=

    Name: (JUN-CC-PVDZ AUX)
    Role: JKFIT
    Keyword: DF_BASIS_SCF
    atoms 1, 5, 8, 13, 16, 20-25  entry C          line   145 file /opt/software/psi4/psi4conda/share/psi4/basis/jun-cc-pvdz-jkfit.gbs 
    atoms 2-4, 9-12, 17-19, 26-27 entry H          line    69 file /opt/software/psi4/psi4conda/share/psi4/basis/jun-cc-pvdz-jkfit.gbs 
    atoms 6-7, 14-15              entry O          line   257 file /opt/software/psi4/psi4conda/share/psi4/basis/jun-cc-pvdz-jkfit.gbs 

  ==> Pre-Iterations <==

   -------------------------------------------------------
    Irrep   Nso     Nmo     Nalpha   Nbeta   Ndocc  Nsocc
   -------------------------------------------------------
     A        330     330       0       0       0       0
   -------------------------------------------------------
    Total     330     330      55      55      55       0
   -------------------------------------------------------

  ==> Integral Setup <==

  ==> DFJK: Density-Fitted J/K Matrices <==

    J tasked:                  Yes
    K tasked:                  Yes
    wK tasked:                  No
    OpenMP threads:             48
    Integrals threads:          48
    Memory (MB):            536441
    Algorithm:                Core
    Integral Cache:           NONE
    Schwarz Cutoff:          1E-12
    Fitting Condition:       1E-12

   => Auxiliary Basis Set <=

  Basis Set: (JUN-CC-PVDZ AUX)
    Blend: JUN-CC-PVDZ-JKFIT
    Number of shells: 513
    Number of basis function: 1461
    Number of Cartesian functions: 1665
    Spherical Harmonics?: true
    Max angular momentum: 3

  Minimum eigenvalue in the overlap matrix is 4.9532690387E-06.
  Using Symmetric Orthogonalization.

  SCF Guess: Superposition of Atomic Densities via on-the-fly atomic UHF.

  ==> Iterations <==

                           Total Energy        Delta E     RMS |[F,P]|

   @DF-RHF iter   0:  -731.64579836792643   -7.31646e+02   1.48457e-01 
   @DF-RHF iter   1:  -722.61499979721498    9.03080e+00   1.10111e-02 
   @DF-RHF iter   2:  -722.93315192112311   -3.18152e-01   8.35253e-03 DIIS
   @DF-RHF iter   3:  -723.06291912046527   -1.29767e-01   3.14225e-03 DIIS
   @DF-RHF iter   4:  -723.08190492917652   -1.89858e-02   6.92277e-04 DIIS
   @DF-RHF iter   5:  -723.08486913833747   -2.96421e-03   2.82258e-04 DIIS
   @DF-RHF iter   6:  -723.08535296898242   -4.83831e-04   1.24797e-04 DIIS
   @DF-RHF iter   7:  -723.08544385236860   -9.08834e-05   4.64746e-05 DIIS
   @DF-RHF iter   8:  -723.08545843716695   -1.45848e-05   1.64367e-05 DIIS
   @DF-RHF iter   9:  -723.08546136023529   -2.92307e-06   7.74566e-06 DIIS
   @DF-RHF iter  10:  -723.08546174976993   -3.89535e-07   3.57431e-06 DIIS
   @DF-RHF iter  11:  -723.08546182531825   -7.55483e-08   1.46457e-06 DIIS
   @DF-RHF iter  12:  -723.08546183449096   -9.17271e-09   3.95939e-07 DIIS
   @DF-RHF iter  13:  -723.08546183592375   -1.43280e-09   1.66935e-07 DIIS
   @DF-RHF iter  14:  -723.08546183618114   -2.57387e-10   9.05781e-08 DIIS
   @DF-RHF iter  15:  -723.08546183622400   -4.28599e-11   4.10254e-08 DIIS
   @DF-RHF iter  16:  -723.08546183623082   -6.82121e-12   1.42261e-08 DIIS
   @DF-RHF iter  17:  -723.08546183623332   -2.50111e-12   4.41914e-09 DIIS

  ==> Post-Iterations <==

    Orbital Energies (a.u.)
    -----------------------

    Doubly Occupied:                                                      

       1A    -20.616170     2A    -20.614802     3A    -20.560538  
       4A    -20.560057     5A    -11.399264     6A    -11.399133  
       7A    -11.299910     8A    -11.299165     9A    -11.275023  
      10A    -11.273887    11A    -11.271218    12A    -11.259780  
      13A    -11.258413    14A    -11.257549    15A    -11.237733  
      16A     -1.475295    17A     -1.467968    18A     -1.371202  
      19A     -1.370315    20A     -1.184869    21A     -1.074995  
      22A     -1.066380    23A     -0.994188    24A     -0.977638  
      25A     -0.948761    26A     -0.886411    27A     -0.843644  
      28A     -0.786846    29A     -0.780365    30A     -0.742915  
      31A     -0.712345    32A     -0.700067    33A     -0.683627  
      34A     -0.681131    35A     -0.662180    36A     -0.657917  
      37A     -0.647920    38A     -0.612630    39A     -0.591364  
      40A     -0.587673    41A     -0.582228    42A     -0.564183  
      43A     -0.555252    44A     -0.548354    45A     -0.541679  
      46A     -0.535931    47A     -0.521454    48A     -0.512884  
      49A     -0.502243    50A     -0.472607    51A     -0.462960  
      52A     -0.460820    53A     -0.451571    54A     -0.356793  
      55A     -0.343239  

    Virtual:                                                              

      56A      0.053470    57A      0.057543    58A      0.061354  
      59A      0.069474    60A      0.071149    61A      0.081324  
      62A      0.087993    63A      0.094439    64A      0.094811  
      65A      0.098203    66A      0.107592    67A      0.110466  
      68A      0.112611    69A      0.118466    70A      0.124426  
      71A      0.127251    72A      0.139640    73A      0.145460  
      74A      0.147814    75A      0.153025    76A      0.160818  
      77A      0.165574    78A      0.173246    79A      0.175374  
      80A      0.182072    81A      0.194615    82A      0.197011  
      83A      0.202715    84A      0.208056    85A      0.210524  
      86A      0.217539    87A      0.223972    88A      0.224598  
      89A      0.231836    90A      0.238484    91A      0.243048  
      92A      0.250066    93A      0.260634    94A      0.262320  
      95A      0.268737    96A      0.273855    97A      0.276651  
      98A      0.288355    99A      0.291885   100A      0.299563  
     101A      0.304025   102A      0.308073   103A      0.313128  
     104A      0.320676   105A      0.324918   106A      0.332960  
     107A      0.338457   108A      0.343187   109A      0.347310  
     110A      0.356263   111A      0.361389   112A      0.369742  
     113A      0.370542   114A      0.373086   115A      0.380538  
     116A      0.387783   117A      0.391924   118A      0.394717  
     119A      0.402565   120A      0.406250   121A      0.410485  
     122A      0.422760   123A      0.424760   124A      0.431172  
     125A      0.440800   126A      0.445986   127A      0.449957  
     128A      0.454923   129A      0.468350   130A      0.475932  
     131A      0.487550   132A      0.491007   133A      0.493652  
     134A      0.502007   135A      0.519811   136A      0.540244  
     137A      0.548134   138A      0.556419   139A      0.579187  
     140A      0.590860   141A      0.613042   142A      0.629944  
     143A      0.663871   144A      0.694034   145A      0.717956  
     146A      0.747842   147A      0.759929   148A      0.773681  
     149A      0.779116   150A      0.806808   151A      0.819873  
     152A      0.824851   153A      0.831328   154A      0.836630  
     155A      0.855087   156A      0.863956   157A      0.870360  
     158A      0.884521   159A      0.891813   160A      0.900420  
     161A      0.902223   162A      0.907087   163A      0.911477  
     164A      0.925537   165A      0.928866   166A      0.932029  
     167A      0.942416   168A      0.946094   169A      0.950478  
     170A      0.956649   171A      0.957780   172A      0.966689  
     173A      0.972348   174A      0.983219   175A      0.996166  
     176A      1.000250   177A      1.012028   178A      1.016668  
     179A      1.034707   180A      1.037441   181A      1.054243  
     182A      1.058705   183A      1.079032   184A      1.105345  
     185A      1.112159   186A      1.134268   187A      1.138549  
     188A      1.148464   189A      1.172840   190A      1.178177  
     191A      1.212231   192A      1.220681   193A      1.234326  
     194A      1.251781   195A      1.259435   196A      1.276579  
     197A      1.279865   198A      1.290239   199A      1.302937  
     200A      1.320769   201A      1.330336   202A      1.338541  
     203A      1.355381   204A      1.363234   205A      1.386650  
     206A      1.421949   207A      1.448552   208A      1.460301  
     209A      1.484079   210A      1.506006   211A      1.513786  
     212A      1.534149   213A      1.547436   214A      1.553440  
     215A      1.560974   216A      1.582085   217A      1.601372  
     218A      1.603133   219A      1.613097   220A      1.625320  
     221A      1.630515   222A      1.641114   223A      1.658988  
     224A      1.673247   225A      1.693322   226A      1.698418  
     227A      1.707304   228A      1.725849   229A      1.730955  
     230A      1.747299   231A      1.759088   232A      1.793894  
     233A      1.814406   234A      1.822082   235A      1.834484  
     236A      1.858582   237A      1.874611   238A      1.882932  
     239A      1.902859   240A      1.907622   241A      1.918138  
     242A      1.923164   243A      1.930254   244A      1.943677  
     245A      1.954996   246A      1.960200   247A      1.971466  
     248A      1.978025   249A      1.992976   250A      1.995887  
     251A      2.008910   252A      2.012287   253A      2.024241  
     254A      2.030697   255A      2.035391   256A      2.041369  
     257A      2.051554   258A      2.067754   259A      2.088897  
     260A      2.112937   261A      2.121533   262A      2.143660  
     263A      2.150068   264A      2.156085   265A      2.164329  
     266A      2.171888   267A      2.209652   268A      2.220181  
     269A      2.233845   270A      2.260417   271A      2.289748  
     272A      2.294713   273A      2.342845   274A      2.354772  
     275A      2.373957   276A      2.386351   277A      2.391943  
     278A      2.399036   279A      2.415893   280A      2.422968  
     281A      2.430498   282A      2.438338   283A      2.469493  
     284A      2.508552   285A      2.518407   286A      2.542116  
     287A      2.551220   288A      2.612332   289A      2.629262  
     290A      2.667638   291A      2.715825   292A      2.743459  
     293A      2.770298   294A      2.782902   295A      2.794907  
     296A      2.797810   297A      2.817290   298A      2.846280  
     299A      2.861270   300A      2.872274   301A      2.881400  
     302A      2.891947   303A      2.899519   304A      2.924721  
     305A      2.958931   306A      2.970417   307A      3.029941  
     308A      3.036264   309A      3.096443   310A      3.106363  
     311A      3.113312   312A      3.133761   313A      3.142796  
     314A      3.257991   315A      3.266020   316A      3.284554  
     317A      3.314333   318A      3.385711   319A      3.429850  
     320A      3.558682   321A      3.578584   322A      3.659561  
     323A      3.678591   324A      3.759688   325A      3.798690  
     326A      3.820380   327A      3.943856   328A      3.973794  
     329A      4.061931   330A      4.069356  

    Final Occupation by Irrep:
              A 
    DOCC [    55 ]

  Energy converged.

  @DF-RHF Final Energy:  -723.08546183623332

   => Energetics <=

    Nuclear Repulsion Energy =           1018.7357029149119398
    One-Electron Energy =               -3010.6353527454275536
    Two-Electron Energy =                1268.8141879942822925
    DFT Exchange-Correlation Energy =       0.0000000000000000
    Empirical Dispersion Energy =           0.0000000000000000
    PCM Polarization Energy =               0.0000000000000000
    EFP Energy =                            0.0000000000000000
    Total Energy =                       -723.0854618362332076



Properties will be evaluated at   0.000000,   0.000000,   0.000000 Bohr

Properties computed using the SCF density matrix

  Nuclear Dipole Moment: (a.u.)
     X:    -2.2862      Y:     0.1457      Z:    -0.0165

  Electronic Dipole Moment: (a.u.)
     X:     2.1337      Y:     0.1703      Z:    -0.0873

  Dipole Moment: (a.u.)
     X:    -0.1526      Y:     0.3161      Z:    -0.1037     Total:     0.3660

  Dipole Moment: (Debye)
     X:    -0.3878      Y:     0.8034      Z:    -0.2636     Total:     0.9302


*** tstop() called on vega03.cac.cornell.edu at Wed Oct 18 19:28:41 2017
Module time:
	user time   =     645.98 seconds =      10.77 minutes
	system time =       5.30 seconds =       0.09 minutes
	total time  =         26 seconds =       0.43 minutes
Total time:
	user time   =     645.98 seconds =      10.77 minutes
	system time =       5.30 seconds =       0.09 minutes
	total time  =         26 seconds =       0.43 minutes
   => Loading Basis Set <=

    Name: (JUN-CC-PVDZ AUX)
    Role: JKFIT
    Keyword: DF_BASIS_SCF
    atoms 1, 5, 8, 13, 16, 20-25  entry C          line   145 file /opt/software/psi4/psi4conda/share/psi4/basis/jun-cc-pvdz-jkfit.gbs 
    atoms 2-4, 9-12, 17-19, 26-27 entry H          line    69 file /opt/software/psi4/psi4conda/share/psi4/basis/jun-cc-pvdz-jkfit.gbs 
    atoms 6-7, 14-15              entry O          line   257 file /opt/software/psi4/psi4conda/share/psi4/basis/jun-cc-pvdz-jkfit.gbs 

   => Loading Basis Set <=

    Name: (JUN-CC-PVDZ AUX)
    Role: RIFIT
    Keyword: DF_BASIS_SAPT
    atoms 1, 5, 8, 13, 16, 20-25  entry C          line    99 file /opt/software/psi4/psi4conda/share/psi4/basis/jun-cc-pvdz-ri.gbs 
    atoms 2-4, 9-12, 17-19, 26-27 entry H          line    29 file /opt/software/psi4/psi4conda/share/psi4/basis/jun-cc-pvdz-ri.gbs 
    atoms 6-7, 14-15              entry O          line   187 file /opt/software/psi4/psi4conda/share/psi4/basis/jun-cc-pvdz-ri.gbs 

   => Loading Basis Set <=

    Name: CC-PVTZ-MINAO
    Role: ORBITAL
    Keyword: BASIS
    atoms 1, 5, 8, 13, 16, 20-25  entry C          line   130 file /opt/software/psi4/psi4conda/share/psi4/basis/cc-pvtz-minao.gbs 
    atoms 2-4, 9-12, 17-19, 26-27 entry H          line    19 file /opt/software/psi4/psi4conda/share/psi4/basis/cc-pvtz-minao.gbs 
    atoms 6-7, 14-15              entry O          line   190 file /opt/software/psi4/psi4conda/share/psi4/basis/cc-pvtz-minao.gbs 


*** tstart() called on vega03.cac.cornell.edu
*** at Wed Oct 18 19:28:42 2017

	 --------------------------------------------
	                    FISAPT0                  
	                  Rob Parrish                
	 --------------------------------------------

    Do F-SAPT =         Yes
    Do Plot   =          No
    Memory    =      78.580 [GD]

  ==> Localization (IBO) <==

  ==> IBO Localizer 2 <==

    MinAO Basis = CC-PVTZ-MINAO
    Use Ghosts  =       FALSE
    Use Stars   =       FALSE
    Condition   =   1.000E-07
    Power       =           4
    Convergence =   1.000E-12
    Maxiter     =        1000

    @IBO Iter:                   Metric       Gradient
    @IBO    1:   1.8278916172020612E+00   3.472241E+00
    @IBO    2:   2.1838159816563576E+00   2.017046E+00
    @IBO    3:   2.2510490281155753E+00   9.562771E-01
    @IBO    4:   2.2587147333235427E+00   9.893353E-02
    @IBO    5:   2.2589708355351350E+00   2.443952E-02
    @IBO    6:   2.2590008702440931E+00   4.810579E-03
    @IBO    7:   2.2590021088622745E+00   1.148458E-03
    @IBO    8:   2.2590021878658701E+00   2.926890E-04
    @IBO    9:   2.2590021930824795E+00   7.566982E-05
    @IBO   10:   2.2590021934334095E+00   1.993333E-05
    @IBO   11:   2.2590021934577718E+00   5.336126E-06
    @IBO   12:   2.2590021934595104E+00   1.447680E-06
    @IBO   13:   2.2590021934596369E+00   3.970430E-07
    @IBO   14:   2.2590021934596467E+00   1.098399E-07
    @IBO   15:   2.2590021934596476E+00   3.059377E-08
    @IBO   16:   2.2590021934596480E+00   8.566354E-09
    @IBO   17:   2.2590021934596480E+00   2.408351E-09
    @IBO   18:   2.2590021934596476E+00   6.791823E-10
    @IBO   19:   2.2590021934596480E+00   1.919865E-10
    @IBO   20:   2.2590021934596480E+00   5.436529E-11
    @IBO   21:   2.2590021934596476E+00   1.541513E-11
    @IBO   22:   2.2590021934596471E+00   4.375230E-12
    @IBO   23:   2.2590021934596476E+00   1.242700E-12
    @IBO   24:   2.2590021934596476E+00   3.531340E-13

    IBO Localizer 2 converged.

  ==> Partitioning <==

   => Atomic Partitioning <= 

    Monomer A:   4 atoms
    Monomer B:   7 atoms
    Monomer C:  16 atoms

   => Link Bond Identification <=

    Link Bond Selection = AUTOMATIC

    Charge Completeness = 0.800

    Total Link Bonds = 2

    --------------------------
    N     Orb Type Aind1 Aind2
    --------------------------
    1      17   BC     5    21
    2      31   AC     1    25
    --------------------------

   => Link Bond Assignment <=

    Link Bond Assignment      = C

   => Partition Summary <=

    Monomer A:  0 charge,   8 protons,   8 electrons,   4 docc
    Monomer B:  0 charge,  30 protons,  30 electrons,  15 docc
    Monomer C:  0 charge,  72 protons,  72 electrons,  36 docc

  ==> Overlap Integrals <==

  ==> Kinetic Integrals <==

  ==> Nuclear Integrals <==

    Nuclear Repulsion Tot:   1.0187357029149117E+03 [Eh]

  ==> Coulomb Integrals <==

  ==> DFJK: Density-Fitted J/K Matrices <==

    J tasked:                  Yes
    K tasked:                  Yes
    wK tasked:                  No
    OpenMP threads:             48
    Integrals threads:          48
    Memory (MB):            643730
    Algorithm:                Core
    Integral Cache:           NONE
    Schwarz Cutoff:          1E-12
    Fitting Condition:       1E-12

   => Auxiliary Basis Set <=

  Basis Set: (JUN-CC-PVDZ AUX)
    Blend: JUN-CC-PVDZ-JKFIT
    Number of shells: 513
    Number of basis function: 1461
    Number of Cartesian functions: 1665
    Spherical Harmonics?: true
    Max angular momentum: 3

  ==> Relaxed SCF Equations <==

  ==> SCF A: <==

    Maxiter =          50
    E Tol   =   1.000E-06
    D Tol   =   1.000E-08

    Max DIIS Vectors = 5

    Iter   N:                        E          dE         |D|
    Iter   1:  -3.6328297324479095E+01  -3.633E+01   1.661E-03 
    Iter   2:  -3.6330419078157647E+01  -2.122E-03   1.724E-04 DIIS
    Iter   3:  -3.6330480648907340E+01  -6.157E-05   3.748E-05 DIIS
    Iter   4:  -3.6330484817079110E+01  -4.168E-06   1.012E-05 DIIS
    Iter   5:  -3.6330485091570239E+01  -2.745E-07   1.808E-06 DIIS
    Iter   6:  -3.6330485102466184E+01  -1.090E-08   2.758E-07 DIIS
    Iter   7:  -3.6330485102706540E+01  -2.404E-10   3.971E-08 DIIS
    Iter   8:  -3.6330485102710611E+01  -4.071E-12   5.486E-09 DIIS

    FISAPTSCF Converged.

    Final SCF Energy:  -3.6330485102710611E+01 [Eh]

   => Occupied Orbital Energies <=

       1  -11.236761     2   -0.851701     3   -0.559429  
       4   -0.552804  

   => Virtual Orbital Energies <=

       5    0.032315     6    0.051867     7    0.062511  
       8    0.067310     9    0.071274    10    0.081237  
      11    0.090106    12    0.092386    13    0.097411  
      14    0.100949    15    0.106768    16    0.108853  
      17    0.116707    18    0.118774    19    0.126746  
      20    0.132178    21    0.135576    22    0.138403  
      23    0.146904    24    0.149181    25    0.159639  
      26    0.163663    27    0.169783    28    0.172733  
      29    0.177250    30    0.183040    31    0.190408  
      32    0.199330    33    0.205280    34    0.213021  
      35    0.221939    36    0.224080    37    0.229600  
      38    0.236414    39    0.242644    40    0.244939  
      41    0.245170    42    0.259118    43    0.261722  
      44    0.269850    45    0.272504    46    0.278308  
      47    0.286269    48    0.287022    49    0.294868  
      50    0.297989    51    0.304650    52    0.310404  
      53    0.320606    54    0.327279    55    0.329686  
      56    0.332552    57    0.340449    58    0.343849  
      59    0.346493    60    0.353259    61    0.361098  
      62    0.366387    63    0.374050    64    0.381901  
      65    0.388167    66    0.395940    67    0.399845  
      68    0.406061    69    0.410830    70    0.416182  
      71    0.421640    72    0.429866    73    0.439006  
      74    0.451357    75    0.458036    76    0.464319  
      77    0.469624    78    0.485318    79    0.490088  
      80    0.499501    81    0.504329    82    0.519897  
      83    0.521967    84    0.541775    85    0.553869  
      86    0.569339    87    0.576268    88    0.595327  
      89    0.615643    90    0.626486    91    0.628666  
      92    0.659186    93    0.663263    94    0.688521  
      95    0.702822    96    0.748577    97    0.764064  
      98    0.781094    99    0.783975   100    0.801112  
     101    0.816968   102    0.835287   103    0.843475  
     104    0.848011   105    0.870145   106    0.881000  
     107    0.891767   108    0.898254   109    0.909046  
     110    0.918525   111    0.923873   112    0.932035  
     113    0.936949   114    0.940760   115    0.947721  
     116    0.957114   117    0.959462   118    0.964334  
     119    0.979227   120    0.982797   121    0.990612  
     122    0.996004   123    0.997668   124    1.022796  
     125    1.032134   126    1.043363   127    1.056165  
     128    1.062117   129    1.088756   130    1.106444  
     131    1.113131   132    1.114735   133    1.135360  
     134    1.147817   135    1.157258   136    1.185221  
     137    1.200005   138    1.202150   139    1.214308  
     140    1.223248   141    1.239224   142    1.250876  
     143    1.280363   144    1.286382   145    1.307936  
     146    1.311867   147    1.318893   148    1.333226  
     149    1.336347   150    1.374547   151    1.383405  
     152    1.409516   153    1.449534   154    1.467027  
     155    1.511859   156    1.527807   157    1.542124  
     158    1.551651   159    1.571301   160    1.581142  
     161    1.589969   162    1.592048   163    1.611441  
     164    1.623737   165    1.639102   166    1.657358  
     167    1.675849   168    1.679356   169    1.701727  
     170    1.704929   171    1.721753   172    1.731579  
     173    1.767850   174    1.772480   175    1.801359  
     176    1.810722   177    1.827520   178    1.841612  
     179    1.853675   180    1.859883   181    1.883964  
     182    1.898725   183    1.919613   184    1.924344  
     185    1.934272   186    1.950650   187    1.954421  
     188    1.965331   189    1.983811   190    2.002233  
     191    2.004953   192    2.012545   193    2.022925  
     194    2.034460   195    2.052721   196    2.057313  
     197    2.059581   198    2.074260   199    2.086131  
     200    2.103735   201    2.117490   202    2.119371  
     203    2.128604   204    2.148070   205    2.161661  
     206    2.165368   207    2.178650   208    2.188140  
     209    2.203078   210    2.237259   211    2.248622  
     212    2.268405   213    2.284270   214    2.312080  
     215    2.319439   216    2.328327   217    2.352847  
     218    2.362291   219    2.372373   220    2.392943  
     221    2.402357   222    2.403038   223    2.418436  
     224    2.435275   225    2.444643   226    2.487711  
     227    2.504692   228    2.522186   229    2.561022  
     230    2.564108   231    2.602581   232    2.631682  
     233    2.647678   234    2.673604   235    2.681468  
     236    2.694640   237    2.713289   238    2.755801  
     239    2.776988   240    2.795764   241    2.802952  
     242    2.847089   243    2.850387   244    2.854262  
     245    2.865335   246    2.871437   247    2.882262  
     248    2.895729   249    2.899302   250    2.927419  
     251    2.951810   252    2.982479   253    3.028789  
     254    3.050235   255    3.074767   256    3.107019  
     257    3.142540   258    3.155972   259    3.209209  
     260    3.277273   261    3.308974   262    3.420381  
     263    3.463152   264    3.577734   265    3.611072  
     266    3.686128   267    3.745920   268    3.814867  
     269    3.895737   270    3.945073   271    4.008672  
     272    4.075500   273    4.140442   274    4.197660  
     275    4.439486   276    4.512807   277    4.555104  
     278    4.759176   279    4.930343   280    5.040252  
     281    5.067355   282    5.190667   283    5.316271  
     284    5.509592   285    5.629630   286    5.724600  
     287    5.852352   288    6.105706   289    6.329212  
     290    6.692610   291   13.369822   292   18.424102  
     293   33.419321   294   33.474608  

  ==> SCF B: <==

    Maxiter =          50
    E Tol   =   1.000E-06
    D Tol   =   1.000E-08

    Max DIIS Vectors = 5

    Iter   N:                        E          dE         |D|
    Iter   1:  -2.2427984480447853E+02  -2.243E+02   3.909E-03 
    Iter   2:  -2.2428897886796037E+02  -9.134E-03   3.837E-04 DIIS
    Iter   3:  -2.2428930553598440E+02  -3.267E-04   1.376E-04 DIIS
    Iter   4:  -2.2428933160682067E+02  -2.607E-05   7.167E-05 DIIS
    Iter   5:  -2.2428933797257318E+02  -6.366E-06   1.095E-05 DIIS
    Iter   6:  -2.2428933831355076E+02  -3.410E-07   5.388E-06 DIIS
    Iter   7:  -2.2428933837071838E+02  -5.717E-08   2.204E-06 DIIS
    Iter   8:  -2.2428933838607304E+02  -1.535E-08   8.276E-07 DIIS
    Iter   9:  -2.2428933838872862E+02  -2.656E-09   3.289E-07 DIIS
    Iter  10:  -2.2428933838919266E+02  -4.640E-10   1.390E-07 DIIS
    Iter  11:  -2.2428933838925292E+02  -6.025E-11   6.835E-08 DIIS
    Iter  12:  -2.2428933838925727E+02  -4.349E-12   2.292E-08 DIIS
    Iter  13:  -2.2428933838925821E+02  -9.379E-13   9.947E-09 DIIS

    FISAPTSCF Converged.

    Final SCF Energy:  -2.2428933838925821E+02 [Eh]

   => Occupied Orbital Energies <=

       1  -20.610209     2  -20.555386     3  -11.394789  
       4  -11.296425     5   -1.441795     6   -1.362380  
       7   -0.964545     8   -0.769878     9   -0.675213  
      10   -0.666029    11   -0.624575    12   -0.545965  
      13   -0.539229    14   -0.478653    15   -0.464487  

   => Virtual Orbital Energies <=

      16    0.008660    17    0.056939    18    0.062600  
      19    0.068530    20    0.078126    21    0.082215  
      22    0.086837    23    0.091876    24    0.096595  
      25    0.099488    26    0.102337    27    0.112324  
      28    0.115411    29    0.117939    30    0.120279  
      31    0.123137    32    0.128974    33    0.139859  
      34    0.147758    35    0.149867    36    0.156156  
      37    0.166906    38    0.168081    39    0.175014  
      40    0.179596    41    0.186029    42    0.195810  
      43    0.200981    44    0.204860    45    0.210325  
      46    0.215121    47    0.222483    48    0.229483  
      49    0.232723    50    0.239604    51    0.246059  
      52    0.248923    53    0.260340    54    0.265820  
      55    0.271769    56    0.277069    57    0.279135  
      58    0.280915    59    0.288684    60    0.300966  
      61    0.306822    62    0.312671    63    0.314392  
      64    0.319236    65    0.325111    66    0.332864  
      67    0.333604    68    0.348589    69    0.352696  
      70    0.361907    71    0.364652    72    0.368325  
      73    0.374221    74    0.376041    75    0.378015  
      76    0.387417    77    0.394427    78    0.397092  
      79    0.409874    80    0.412034    81    0.412875  
      82    0.422598    83    0.427401    84    0.431427  
      85    0.442253    86    0.445722    87    0.454282  
      88    0.456870    89    0.461936    90    0.476909  
      91    0.485923    92    0.495782    93    0.503727  
      94    0.510817    95    0.526022    96    0.544668  
      97    0.558071    98    0.565044    99    0.571040  
     100    0.590870   101    0.606565   102    0.613707  
     103    0.632373   104    0.647718   105    0.661219  
     106    0.686905   107    0.713848   108    0.756542  
     109    0.769896   110    0.792296   111    0.798043  
     112    0.817335   113    0.826870   114    0.842838  
     115    0.845732   116    0.866481   117    0.878637  
     118    0.885757   119    0.896072   120    0.899860  
     121    0.910031   122    0.916204   123    0.921314  
     124    0.933897   125    0.941043   126    0.944110  
     127    0.951531   128    0.952988   129    0.968171  
     130    0.970257   131    0.985726   132    0.988327  
     133    0.998714   134    1.010731   135    1.022745  
     136    1.042610   137    1.045876   138    1.048225  
     139    1.065435   140    1.076128   141    1.099116  
     142    1.107788   143    1.114996   144    1.158587  
     145    1.175002   146    1.185025   147    1.195881  
     148    1.227721   149    1.240194   150    1.260044  
     151    1.265318   152    1.285284   153    1.292527  
     154    1.305333   155    1.308139   156    1.312668  
     157    1.326292   158    1.346578   159    1.360492  
     160    1.368528   161    1.388706   162    1.395976  
     163    1.403784   164    1.442431   165    1.465534  
     166    1.483655   167    1.497360   168    1.506740  
     169    1.517203   170    1.529249   171    1.534705  
     172    1.561501   173    1.568977   174    1.588942  
     175    1.604177   176    1.617461   177    1.624336  
     178    1.629200   179    1.643546   180    1.652865  
     181    1.660808   182    1.677526   183    1.689589  
     184    1.698908   185    1.714148   186    1.729025  
     187    1.742294   188    1.767214   189    1.774429  
     190    1.786043   191    1.812620   192    1.836086  
     193    1.855697   194    1.866650   195    1.878277  
     196    1.892598   197    1.900657   198    1.907334  
     199    1.914600   200    1.926142   201    1.931512  
     202    1.947740   203    1.948749   204    1.959877  
     205    1.978816   206    1.991583   207    2.002571  
     208    2.005571   209    2.013732   210    2.024035  
     211    2.029605   212    2.034041   213    2.047608  
     214    2.056848   215    2.065412   216    2.077700  
     217    2.088420   218    2.114671   219    2.135766  
     220    2.142916   221    2.154658   222    2.167365  
     223    2.183278   224    2.193191   225    2.203399  
     226    2.238528   227    2.243530   228    2.259704  
     229    2.279458   230    2.322430   231    2.335092  
     232    2.354420   233    2.360108   234    2.378758  
     235    2.388894   236    2.396095   237    2.398724  
     238    2.417891   239    2.428736   240    2.436986  
     241    2.465441   242    2.496298   243    2.519249  
     244    2.543936   245    2.552544   246    2.587592  
     247    2.643170   248    2.661310   249    2.675690  
     250    2.723152   251    2.739879   252    2.746076  
     253    2.780455   254    2.782526   255    2.797521  
     256    2.807035   257    2.817080   258    2.841995  
     259    2.862461   260    2.865619   261    2.876271  
     262    2.892974   263    2.909296   264    2.936473  
     265    2.988164   266    3.004018   267    3.043740  
     268    3.056157   269    3.101739   270    3.127773  
     271    3.137214   272    3.187492   273    3.239612  
     274    3.261802   275    3.277123   276    3.290290  
     277    3.320572   278    3.391103   279    3.437698  
     280    3.563458   281    3.580915   282    3.650318  
     283    3.677715   284    3.713586   285    3.766110  
     286    3.819811   287    3.922326   288    3.961020  
     289    4.061983   290    4.065865   291    4.109189  
     292    4.489629   293    4.542248   294   13.277094  

  ==> Frozen Core <==


    ------------------
    Range      A     B
    ------------------
    nbf      330   330
    nmo      294   294
    nocc       4    15
    nvir     290   279
    nfocc      1     4
    naocc      3    11
    navir    290   279
    nfvir      0     0
    ------------------

  ==> Unification <==

  ==> dHF <==

    E ABC(HF) =  -7.2308546183623332E+02 [Eh]
    E AC(0)   =  -4.9506928921222072E+02 [Eh]
    E BC(0)   =  -6.8296690208514644E+02 [Eh]
    E A(0)    =  -2.5017465810673876E+01 [Eh]
    E B(0)    =  -2.1265651495522528E+02 [Eh]
    E AC(HF)  =  -4.9506710143398948E+02 [Eh]
    E BC(HF)  =  -6.8295740850036862E+02 [Eh]
    E AB(HF)  =  -2.3764015785848127E+02 [Eh]
    E A(HF)   =  -2.5001377602427979E+01 [Eh]
    E B(HF)   =  -2.1263935090634320E+02 [Eh]
    E C       =  -4.5493847744783318E+02 [Eh]
    E HF      =   1.2252013300667386E-02 [Eh]

  ==> Electrostatics <==

    Elst10,r            =     0.009169688158 [Eh]

  ==> Exchange <==

    Exch10(S^2)         =     0.004515583438 [Eh]
    Exch10              =     0.004531662475 [Eh]

  ==> Induction <==

    Ind20,u (A<-B)      =    -0.001167611906 [Eh]
    Ind20,u (B<-A)      =    -0.000706623174 [Eh]
    Ind20,u             =    -0.001874235080 [Eh]
    Exch-Ind20,u (A<-B) =     0.000425928053 [Eh]
    Exch-Ind20,u (B<-A) =     0.000456510561 [Eh]
    Exch-Ind20,u        =     0.000882438614 [Eh]

  ==> CPHF Iterations <==

    Maxiter     =          50
    Convergence =   1.000E-08

    -----------------------------------------
    Iter   Monomer A    Monomer B    Time [s]
    -----------------------------------------
    1      1.536E-01    2.565E-01           1
    2      2.860E-02    9.326E-02           2
    3      6.671E-03    2.142E-02           2
    4      9.198E-04    9.834E-03           3
    5      1.126E-04    3.645E-03           3
    6      1.688E-05    1.533E-03           4
    7      2.374E-06    4.116E-04           5
    8      3.412E-07    1.682E-04           5
    9      3.924E-08    4.747E-05           6
    10     3.979E-09*   1.799E-05           7
    11     3.979E-09*   5.069E-06           7
    12     3.979E-09*   9.930E-07           7
    13     3.979E-09*   1.948E-07           8
    14     3.979E-09*   4.750E-08           8
    15     3.979E-09*   9.918E-09*          9
    -----------------------------------------

    Ind20,r (A<-B)      =    -0.001357039366 [Eh]
    Ind20,r (B<-A)      =    -0.000843530819 [Eh]
    Ind20,r             =    -0.002200570184 [Eh]
    Exch-Ind20,r (A<-B) =     0.000508790600 [Eh]
    Exch-Ind20,r (B<-A) =     0.000600721430 [Eh]
    Exch-Ind20,r        =     0.001109512030 [Eh]

  ==> F-SAPT Localization (IBO) <==

  Local Orbitals for Monomer A:

  ==> IBO Localizer 2 <==

    MinAO Basis = CC-PVTZ-MINAO
    Use Ghosts  =       FALSE
    Use Stars   =       FALSE
    Condition   =   1.000E-07
    Power       =           4
    Convergence =   1.000E-12
    Maxiter     =        1000

    @IBO Iter:                   Metric       Gradient
    @IBO    1:   1.0655490896895290E+00   4.830584E-02
    @IBO    2:   1.0836238026724088E+00   2.320226E-02
    @IBO    3:   1.0840191348047918E+00   3.431251E-04
    @IBO    4:   1.0840192178427073E+00   3.033559E-08
    @IBO    5:   1.0840192178427079E+00   1.354428E-11
    @IBO    6:   1.0840192178427079E+00   1.698882E-15

    IBO Localizer 2 converged.

  Local Orbitals for Monomer B:

  ==> IBO Localizer 2 <==

    MinAO Basis = CC-PVTZ-MINAO
    Use Ghosts  =       FALSE
    Use Stars   =       FALSE
    Condition   =   1.000E-07
    Power       =           4
    Convergence =   1.000E-12
    Maxiter     =        1000

    @IBO Iter:                   Metric       Gradient
    @IBO    1:   1.4804544075535393E+00   1.679868E+00
    @IBO    2:   1.6772465074171130E+00   9.455052E-01
    @IBO    3:   1.7093638764925270E+00   3.204975E-01
    @IBO    4:   1.7106439488893186E+00   3.010693E-03
    @IBO    5:   1.7106442326022848E+00   1.110568E-04
    @IBO    6:   1.7106442327858375E+00   2.539003E-06
    @IBO    7:   1.7106442327859668E+00   8.620568E-08
    @IBO    8:   1.7106442327859674E+00   2.791467E-09
    @IBO    9:   1.7106442327859672E+00   1.026952E-10
    @IBO   10:   1.7106442327859672E+00   4.057748E-12
    @IBO   11:   1.7106442327859674E+00   1.654904E-13

    IBO Localizer 2 converged.

  ==> F-SAPT Electrostatics <==

  ==> DFERI: Density Fitted 3-Index Tensors <==

    Schwarz cutoff =   0.000E+00
    J cutoff       =   1.000E-12
    Mem (GB)       =         628

   => Auxiliary Basis <=

  Basis Set: (JUN-CC-PVDZ AUX)
    Blend: JUN-CC-PVDZ-JKFIT
    Number of shells: 513
    Number of basis function: 1461
    Number of Cartesian functions: 1665
    Spherical Harmonics?: true
    Max angular momentum: 3

    Elst10,r            =     0.009169686981 [Eh]

  ==> F-SAPT Exchange <==

  ==> DFERI: Density Fitted 3-Index Tensors <==

    Schwarz cutoff =   0.000E+00
    J cutoff       =   1.000E-12
    Mem (GB)       =         628

   => Auxiliary Basis <=

  Basis Set: (JUN-CC-PVDZ AUX)
    Blend: JUN-CC-PVDZ-JKFIT
    Number of shells: 513
    Number of basis function: 1461
    Number of Cartesian functions: 1665
    Spherical Harmonics?: true
    Max angular momentum: 3

    Exch10(S^2)         =     0.004515583438 [Eh]

    Scaling F-SAPT Exch10(S^2) by   1.004E+00 to match Exch10

  ==> F-SAPT Induction <==

  ==> DFERI: Density Fitted 3-Index Tensors <==

    Schwarz cutoff =   0.000E+00
    J cutoff       =   1.000E-12
    Mem (GB)       =         628

   => Auxiliary Basis <=

  Basis Set: (JUN-CC-PVDZ AUX)
    Blend: JUN-CC-PVDZ-JKFIT
    Number of shells: 513
    Number of basis function: 1461
    Number of Cartesian functions: 1665
    Spherical Harmonics?: true
    Max angular momentum: 3

    Ind20,u (A<-B)      =    -0.001167611907 [Eh]
    Ind20,u (B<-A)      =    -0.000706623174 [Eh]
    Ind20,u             =    -0.001874235081 [Eh]
    Exch-Ind20,u (A<-B) =     0.000425928053 [Eh]
    Exch-Ind20,u (B<-A) =     0.000456510561 [Eh]
    Exch-Ind20,u        =     0.000882438615 [Eh]

    Scaling for delta HF        =   1.328E+00
    Scaling for response (A<-B) =   1.144E+00
    Scaling for response (B<-A) =   9.708E-01
    Scaling for total (A<-B)    =   1.519E+00
    Scaling for total (B<-A)    =   1.290E+00

  ==> F-SAPT Dispersion <==

  ==> DFERI: Density Fitted 3-Index Tensors <==

    Schwarz cutoff =   0.000E+00
    J cutoff       =   1.000E-12
    Mem (GB)       =         628

   => Auxiliary Basis <=

  Basis Set: (JUN-CC-PVDZ AUX)
    Blend: JUN-CC-PVDZ-RI
    Number of shells: 387
    Number of basis function: 1143
    Number of Cartesian functions: 1320
    Spherical Harmonics?: true
    Max angular momentum: 3

    Disp20              =    -0.002468233890 [Eh]
    Exch-Disp20         =     0.000322640898 [Eh]

  ==> F-SAPT Output <==

    F-SAPT Data Filepath = fsapt/

  ==> Results <==


    SAPT Results  
  --------------------------------------------------------------------------------------------------------
    Electrostatics                  9.16968816 [mEh]       5.75406643 [kcal/mol]      24.07501626 [kJ/mol]
      Elst10,r                      9.16968816 [mEh]       5.75406643 [kcal/mol]      24.07501626 [kJ/mol]

    Exchange                        4.53166248 [mEh]       2.84366125 [kcal/mol]      11.89787983 [kJ/mol]
      Exch10                        4.53166248 [mEh]       2.84366125 [kcal/mol]      11.89787983 [kJ/mol]
      Exch10(S^2)                   4.51558344 [mEh]       2.83357151 [kcal/mol]      11.85566432 [kJ/mol]

    Induction                      -1.44933733 [mEh]      -0.90947294 [kcal/mol]      -3.80523517 [kJ/mol]
      Ind20,r                      -2.20057018 [mEh]      -1.38087870 [kcal/mol]      -5.77759702 [kJ/mol]
      Exch-Ind20,r                  1.10951203 [mEh]       0.69622934 [kcal/mol]       2.91302383 [kJ/mol]
      delta HF,r (2)               -0.35827918 [mEh]      -0.22482359 [kcal/mol]      -0.94066198 [kJ/mol]
      Induction (A<-B)             -1.12679475 [mEh]      -0.70707441 [kcal/mol]      -2.95839962 [kJ/mol]
      Induction (B<-A)             -0.32254258 [mEh]      -0.20239853 [kcal/mol]      -0.84683554 [kJ/mol]

    Dispersion                     -2.14559299 [mEh]      -1.34637999 [kcal/mol]      -5.63325440 [kJ/mol]
      Disp20                       -2.46823389 [mEh]      -1.54884021 [kcal/mol]      -6.48034808 [kJ/mol]
      Exch-Disp20                   0.32264090 [mEh]       0.20246023 [kcal/mol]       0.84709368 [kJ/mol]

  Total HF                         12.25201330 [mEh]       7.68825474 [kcal/mol]      32.16766092 [kJ/mol]
  Total SAPT0                      10.10642031 [mEh]       6.34187475 [kcal/mol]      26.53440652 [kJ/mol]

  --------------------------------------------------------------------------------------------------------
    Han Solo: This is *not* gonna work.
    Luke Skywalker: Why didn't you say so before?
    Han Solo: I *did* say so before.

*** tstop() called on vega03.cac.cornell.edu at Wed Oct 18 19:29:38 2017
Module time:
	user time   =    1482.93 seconds =      24.72 minutes
	system time =       8.56 seconds =       0.14 minutes
	total time  =         56 seconds =       0.93 minutes
Total time:
	user time   =    2129.45 seconds =      35.49 minutes
	system time =      13.86 seconds =       0.23 minutes
	total time  =         83 seconds =       1.38 minutes

*** Psi4 exiting successfully. Buy a developer a beer!
