
    -----------------------------------------------------------------------
          Psi4: An Open-Source Ab Initio Electronic Structure Package
                               Psi4 1.1 release

                         Git: Rev {HEAD} add49b9 


    R. M. Parrish, L. A. Burns, D. G. A. Smith, A. C. Simmonett,
    A. E. DePrince III, E. G. Hohenstein, U. Bozkaya, A. Yu. Sokolov,
    R. Di Remigio, R. M. Richard, J. F. Gonthier, A. M. James,
    H. R. McAlexander, A. Kumar, M. Saitow, X. Wang, B. P. Pritchard,
    P. Verma, H. F. Schaefer III, K. Patkowski, R. A. King, E. F. Valeev,
    F. A. Evangelista, J. M. Turney, T. D. Crawford, and C. D. Sherrill,
    J. Chem. Theory Comput. in press (2017).
    (doi: 10.1021/acs.jctc.7b00174)

    -----------------------------------------------------------------------


    Psi4 started on: Monday, 15 January 2018 06:38PM

    Process ID:  21195
    PSIDATADIR: /home/junteng/Softwares/psi4conda/share/psi4
    Memory:     500.0 MiB
    Threads:    4
    
  ==> Input File <==

--------------------------------------------------------------------------
memory 750000 mb

molecule mol {
0 1
C         -0.68726        1.17083        0.08062
O          0.29457        1.87206        0.18620
O         -1.93038        1.68746        0.01777
C         -2.01773        3.12216        0.09240
H         -1.48338        3.58005       -0.74108
H         -1.59357        3.48050        1.03120
H         -3.08063        3.34773        0.03868
--
0 1
C          1.90079       -0.10879        0.32602
O          2.43672        0.06267        1.39176
O          2.41599        0.25937       -0.85897
C          3.59610        1.08115       -0.79551
H          3.36459        2.01770       -0.28574
H          3.87626        1.26547       -1.83023
H          4.39689        0.56436       -0.26451
--
0 1
C         -3.20182       -0.67174       -0.26953
H         -3.31861       -0.00121       -1.12196
H         -3.52616       -0.11691        0.61239
H         -3.86887       -1.52480       -0.40531
H          1.78580       -2.71658        0.22779
C          0.63715       -0.90790        0.13951
C         -0.64081       -0.32252        0.01904
C          0.79527       -2.29069        0.12326
C         -0.31571       -3.11119       -0.02540
C         -1.57722       -2.54445       -0.15247
C         -1.77714       -1.15931       -0.12965
H         -2.44047       -3.19028       -0.26853
H         -0.20021       -4.18910       -0.04270

symmetry c1
no_reorient
no_com
}

set {
basis jun-cc-pvdz
scf_type df
guess sad
freeze_core true
}

energy('fisapt0')
--------------------------------------------------------------------------

  Memory set to 698.492 GiB by Python driver.

*** tstart() called on ThinkPad-P50
*** at Mon Jan 15 18:38:36 2018

   => Loading Basis Set <=

    Name: JUN-CC-PVDZ
    Role: ORBITAL
    Keyword: BASIS
    atoms 1, 4, 8, 11, 15, 20-25   entry C          line   157 file /home/junteng/Softwares/psi4conda/share/psi4/basis/jun-cc-pvdz.gbs 
    atoms 2-3, 9-10                entry O          line   225 file /home/junteng/Softwares/psi4conda/share/psi4/basis/jun-cc-pvdz.gbs 
    atoms 5-7, 12-14, 16-19, 26-27 entry H          line    35 file /home/junteng/Softwares/psi4conda/share/psi4/basis/jun-cc-pvdz.gbs 


         ---------------------------------------------------------
                                   SCF
            by Justin Turney, Rob Parrish, and Andy Simmonett
                              RHF Reference
                        4 Threads, 715255 MiB Core
         ---------------------------------------------------------

  ==> Geometry <==

    Molecular point group: c1
    Full point group: C1

    Geometry (in Angstrom), charge = 0, multiplicity = 1:

       Center              X                  Y                   Z               Mass       
    ------------   -----------------  -----------------  -----------------  -----------------
           C         -0.687260000000     1.170830000000     0.080620000000    12.000000000000
           O          0.294570000000     1.872060000000     0.186200000000    15.994914619560
           O         -1.930380000000     1.687460000000     0.017770000000    15.994914619560
           C         -2.017730000000     3.122160000000     0.092400000000    12.000000000000
           H         -1.483380000000     3.580050000000    -0.741080000000     1.007825032070
           H         -1.593570000000     3.480500000000     1.031200000000     1.007825032070
           H         -3.080630000000     3.347730000000     0.038680000000     1.007825032070
           C          1.900790000000    -0.108790000000     0.326020000000    12.000000000000
           O          2.436720000000     0.062670000000     1.391760000000    15.994914619560
           O          2.415990000000     0.259370000000    -0.858970000000    15.994914619560
           C          3.596100000000     1.081150000000    -0.795510000000    12.000000000000
           H          3.364590000000     2.017700000000    -0.285740000000     1.007825032070
           H          3.876260000000     1.265470000000    -1.830230000000     1.007825032070
           H          4.396890000000     0.564360000000    -0.264510000000     1.007825032070
           C         -3.201820000000    -0.671740000000    -0.269530000000    12.000000000000
           H         -3.318610000000    -0.001210000000    -1.121960000000     1.007825032070
           H         -3.526160000000    -0.116910000000     0.612390000000     1.007825032070
           H         -3.868870000000    -1.524800000000    -0.405310000000     1.007825032070
           H          1.785800000000    -2.716580000000     0.227790000000     1.007825032070
           C          0.637150000000    -0.907900000000     0.139510000000    12.000000000000
           C         -0.640810000000    -0.322520000000     0.019040000000    12.000000000000
           C          0.795270000000    -2.290690000000     0.123260000000    12.000000000000
           C         -0.315710000000    -3.111190000000    -0.025400000000    12.000000000000
           C         -1.577220000000    -2.544450000000    -0.152470000000    12.000000000000
           C         -1.777140000000    -1.159310000000    -0.129650000000    12.000000000000
           H         -2.440470000000    -3.190280000000    -0.268530000000     1.007825032070
           H         -0.200210000000    -4.189100000000    -0.042700000000     1.007825032070

  Running in c1 symmetry.

  Rotational constants: A =      0.02479  B =      0.01910  C =      0.01171 [cm^-1]
  Rotational constants: A =    743.10061  B =    572.64607  C =    350.92332 [MHz]
  Nuclear repulsion = 1007.827253162041302

  Charge       = 0
  Multiplicity = 1
  Electrons    = 110
  Nalpha       = 55
  Nbeta        = 55

  ==> Algorithm <==

  SCF Algorithm Type is DF.
  DIIS enabled.
  MOM disabled.
  Fractional occupation disabled.
  Guess Type is SAD.
  Energy threshold   = 1.00e-08
  Density threshold  = 1.00e-08
  Integral threshold = 0.00e+00

  ==> Primary Basis <==

  Basis Set: JUN-CC-PVDZ
    Blend: JUN-CC-PVDZ
    Number of shells: 156
    Number of basis function: 330
    Number of Cartesian functions: 345
    Spherical Harmonics?: true
    Max angular momentum: 2

   => Loading Basis Set <=

    Name: (JUN-CC-PVDZ AUX)
    Role: JKFIT
    Keyword: DF_BASIS_SCF
    atoms 1, 4, 8, 11, 15, 20-25   entry C          line   145 file /home/junteng/Softwares/psi4conda/share/psi4/basis/jun-cc-pvdz-jkfit.gbs 
    atoms 2-3, 9-10                entry O          line   257 file /home/junteng/Softwares/psi4conda/share/psi4/basis/jun-cc-pvdz-jkfit.gbs 
    atoms 5-7, 12-14, 16-19, 26-27 entry H          line    69 file /home/junteng/Softwares/psi4conda/share/psi4/basis/jun-cc-pvdz-jkfit.gbs 

  ==> Pre-Iterations <==

   -------------------------------------------------------
    Irrep   Nso     Nmo     Nalpha   Nbeta   Ndocc  Nsocc
   -------------------------------------------------------
     A        330     330       0       0       0       0
   -------------------------------------------------------
    Total     330     330      55      55      55       0
   -------------------------------------------------------

  ==> Integral Setup <==

  ==> DFJK: Density-Fitted J/K Matrices <==

    J tasked:                  Yes
    K tasked:                  Yes
    wK tasked:                  No
    OpenMP threads:              4
    Integrals threads:           4
    Memory (MB):            536441
    Algorithm:                Core
    Integral Cache:           NONE
    Schwarz Cutoff:          1E-12
    Fitting Condition:       1E-12

   => Auxiliary Basis Set <=

  Basis Set: (JUN-CC-PVDZ AUX)
    Blend: JUN-CC-PVDZ-JKFIT
    Number of shells: 513
    Number of basis function: 1461
    Number of Cartesian functions: 1665
    Spherical Harmonics?: true
    Max angular momentum: 3

  Minimum eigenvalue in the overlap matrix is 3.5989976273E-06.
  Using Symmetric Orthogonalization.

  SCF Guess: Superposition of Atomic Densities via on-the-fly atomic UHF.

  ==> Iterations <==

                           Total Energy        Delta E     RMS |[F,P]|

   @DF-RHF iter   0:  -728.52370749215220   -7.28524e+02   4.25219e-02 
   @DF-RHF iter   1:  -722.64379444204349    5.87991e+00   4.64563e-03 
   @DF-RHF iter   2:  -722.99342638965322   -3.49632e-01   2.42525e-03 DIIS
   @DF-RHF iter   3:  -723.06214676666832   -6.87204e-02   8.96412e-04 DIIS
   @DF-RHF iter   4:  -723.07771357515549   -1.55668e-02   2.80278e-04 DIIS
   @DF-RHF iter   5:  -723.07929871790236   -1.58514e-03   1.00206e-04 DIIS
   @DF-RHF iter   6:  -723.07966830241503   -3.69585e-04   3.98566e-05 DIIS
   @DF-RHF iter   7:  -723.07972742545508   -5.91230e-05   1.41437e-05 DIIS
   @DF-RHF iter   8:  -723.07973523624378   -7.81079e-06   4.76205e-06 DIIS
   @DF-RHF iter   9:  -723.07973651967075   -1.28343e-06   1.84122e-06 DIIS
   @DF-RHF iter  10:  -723.07973670429271   -1.84622e-07   7.46240e-07 DIIS
   @DF-RHF iter  11:  -723.07973673619676   -3.19041e-08   3.17371e-07 DIIS
   @DF-RHF iter  12:  -723.07973674176628   -5.56952e-09   1.51740e-07 DIIS
   @DF-RHF iter  13:  -723.07973674302127   -1.25499e-09   6.81679e-08 DIIS
   @DF-RHF iter  14:  -723.07973674329048   -2.69210e-10   2.71512e-08 DIIS
   @DF-RHF iter  15:  -723.07973674332902   -3.85398e-11   1.20735e-08 DIIS
   @DF-RHF iter  16:  -723.07973674333289   -3.86535e-12   4.95244e-09 DIIS

  ==> Post-Iterations <==

    Orbital Energies (a.u.)
    -----------------------

    Doubly Occupied:                                                      

       1A    -20.616674     2A    -20.601236     3A    -20.558151  
       4A    -20.546408     5A    -11.400485     6A    -11.389677  
       7A    -11.300691     8A    -11.284932     9A    -11.279040  
      10A    -11.278405    11A    -11.272595    12A    -11.265458  
      13A    -11.255464    14A    -11.251993    15A    -11.238147  
      16A     -1.474570    17A     -1.457844    18A     -1.370398  
      19A     -1.357952    20A     -1.183344    21A     -1.074903  
      22A     -1.063139    23A     -0.993040    24A     -0.968307  
      25A     -0.951685    26A     -0.877535    27A     -0.844926  
      28A     -0.793461    29A     -0.770667    30A     -0.733668  
      31A     -0.713867    32A     -0.688195    33A     -0.679417  
      34A     -0.673527    35A     -0.668805    36A     -0.658916  
      37A     -0.635893    38A     -0.608132    39A     -0.589277  
      40A     -0.585672    41A     -0.581019    42A     -0.561936  
      43A     -0.558593    44A     -0.546069    45A     -0.536593  
      46A     -0.526235    47A     -0.514860    48A     -0.504806  
      49A     -0.503712    50A     -0.471379    51A     -0.457366  
      52A     -0.450375    53A     -0.443627    54A     -0.357393  
      55A     -0.343499  

    Virtual:                                                              

      56A      0.048791    57A      0.056527    58A      0.064509  
      59A      0.067010    60A      0.071632    61A      0.079506  
      62A      0.085126    63A      0.090910    64A      0.095828  
      65A      0.098977    66A      0.103848    67A      0.109922  
      68A      0.115145    69A      0.116065    70A      0.128372  
      71A      0.131923    72A      0.135931    73A      0.141270  
      74A      0.148124    75A      0.153775    76A      0.161947  
      77A      0.172186    78A      0.176766    79A      0.177938  
      80A      0.185639    81A      0.194774    82A      0.197952  
      83A      0.203377    84A      0.208048    85A      0.209890  
      86A      0.219488    87A      0.227211    88A      0.232307  
      89A      0.233707    90A      0.239661    91A      0.244551  
      92A      0.248767    93A      0.257347    94A      0.258915  
      95A      0.267310    96A      0.268926    97A      0.271100  
      98A      0.284438    99A      0.294761   100A      0.295746  
     101A      0.302342   102A      0.307098   103A      0.310905  
     104A      0.318054   105A      0.323451   106A      0.329336  
     107A      0.340852   108A      0.346011   109A      0.347250  
     110A      0.355028   111A      0.355881   112A      0.366851  
     113A      0.368461   114A      0.380136   115A      0.386610  
     116A      0.388559   117A      0.396145   118A      0.403480  
     119A      0.409771   120A      0.412611   121A      0.419725  
     122A      0.424424   123A      0.429399   124A      0.434287  
     125A      0.438274   126A      0.445650   127A      0.455402  
     128A      0.458610   129A      0.474506   130A      0.479272  
     131A      0.483858   132A      0.494611   133A      0.509108  
     134A      0.520298   135A      0.526630   136A      0.537753  
     137A      0.551157   138A      0.564276   139A      0.587124  
     140A      0.597989   141A      0.620237   142A      0.627446  
     143A      0.662163   144A      0.700039   145A      0.715178  
     146A      0.742138   147A      0.750939   148A      0.767083  
     149A      0.777562   150A      0.783950   151A      0.809016  
     152A      0.819607   153A      0.836011   154A      0.850834  
     155A      0.862142   156A      0.866931   157A      0.878932  
     158A      0.891118   159A      0.898198   160A      0.902569  
     161A      0.907711   162A      0.916251   163A      0.917854  
     164A      0.925233   165A      0.925512   166A      0.942174  
     167A      0.943736   168A      0.951458   169A      0.958271  
     170A      0.959423   171A      0.971932   172A      0.976497  
     173A      0.984181   174A      0.991839   175A      0.994294  
     176A      1.008046   177A      1.020538   178A      1.028785  
     179A      1.032447   180A      1.042278   181A      1.059065  
     182A      1.075956   183A      1.095493   184A      1.108513  
     185A      1.115239   186A      1.124114   187A      1.158541  
     188A      1.168541   189A      1.186165   190A      1.190528  
     191A      1.205061   192A      1.215531   193A      1.224158  
     194A      1.243147   195A      1.252099   196A      1.264235  
     197A      1.273590   198A      1.288509   199A      1.305664  
     200A      1.313631   201A      1.324618   202A      1.344546  
     203A      1.364469   204A      1.374866   205A      1.411274  
     206A      1.421185   207A      1.433501   208A      1.447597  
     209A      1.452578   210A      1.469955   211A      1.525908  
     212A      1.531695   213A      1.543261   214A      1.556562  
     215A      1.560378   216A      1.575837   217A      1.587617  
     218A      1.602353   219A      1.618425   220A      1.635155  
     221A      1.644617   222A      1.658532   223A      1.674605  
     224A      1.684423   225A      1.689308   226A      1.700702  
     227A      1.714977   228A      1.720432   229A      1.736091  
     230A      1.761759   231A      1.765527   232A      1.795558  
     233A      1.800458   234A      1.808573   235A      1.845806  
     236A      1.849581   237A      1.867120   238A      1.885417  
     239A      1.888953   240A      1.900043   241A      1.915822  
     242A      1.924950   243A      1.956941   244A      1.957105  
     245A      1.959919   246A      1.971036   247A      1.983868  
     248A      1.994482   249A      2.000813   250A      2.003123  
     251A      2.013856   252A      2.021693   253A      2.028171  
     254A      2.035739   255A      2.049123   256A      2.056076  
     257A      2.071485   258A      2.074651   259A      2.094259  
     260A      2.112412   261A      2.129780   262A      2.140572  
     263A      2.148379   264A      2.161383   265A      2.167516  
     266A      2.172880   267A      2.198840   268A      2.240664  
     269A      2.256737   270A      2.257025   271A      2.276142  
     272A      2.288418   273A      2.344529   274A      2.354787  
     275A      2.378889   276A      2.382094   277A      2.406449  
     278A      2.409142   279A      2.420948   280A      2.427708  
     281A      2.436178   282A      2.456629   283A      2.477487  
     284A      2.501741   285A      2.513256   286A      2.578287  
     287A      2.594565   288A      2.608858   289A      2.643016  
     290A      2.688039   291A      2.721452   292A      2.749920  
     293A      2.764749   294A      2.780465   295A      2.784366  
     296A      2.808826   297A      2.833945   298A      2.847115  
     299A      2.858167   300A      2.871917   301A      2.875966  
     302A      2.891132   303A      2.913695   304A      2.948344  
     305A      3.001835   306A      3.010763   307A      3.013381  
     308A      3.048575   309A      3.108548   310A      3.113516  
     311A      3.127870   312A      3.151779   313A      3.194293  
     314A      3.242568   315A      3.282415   316A      3.290789  
     317A      3.336170   318A      3.380382   319A      3.439717  
     320A      3.543574   321A      3.579386   322A      3.661470  
     323A      3.679403   324A      3.763113   325A      3.804483  
     326A      3.825923   327A      3.947960   328A      4.006655  
     329A      4.060183   330A      4.101546  

    Final Occupation by Irrep:
              A 
    DOCC [    55 ]

  Energy converged.

  @DF-RHF Final Energy:  -723.07973674333289

   => Energetics <=

    Nuclear Repulsion Energy =           1007.8272531620413019
    One-Electron Energy =               -2989.1860587747719364
    Two-Electron Energy =                1258.2790688693976335
    DFT Exchange-Correlation Energy =       0.0000000000000000
    Empirical Dispersion Energy =           0.0000000000000000
    PCM Polarization Energy =               0.0000000000000000
    EFP Energy =                            0.0000000000000000
    Total Energy =                       -723.0797367433328873



Properties will be evaluated at   0.000000,   0.000000,   0.000000 Bohr

Properties computed using the SCF density matrix

  Nuclear Dipole Moment: (a.u.)
     X:    -0.1577      Y:    -1.6730      Z:    -1.3345

  Electronic Dipole Moment: (a.u.)
     X:    -0.9710      Y:     1.4542      Z:     0.5023

  Dipole Moment: (a.u.)
     X:    -1.1287      Y:    -0.2187      Z:    -0.8322     Total:     1.4193

  Dipole Moment: (Debye)
     X:    -2.8688      Y:    -0.5559      Z:    -2.1153     Total:     3.6074


*** tstop() called on ThinkPad-P50 at Mon Jan 15 18:39:11 2018
Module time:
	user time   =     111.71 seconds =       1.86 minutes
	system time =       0.58 seconds =       0.01 minutes
	total time  =         35 seconds =       0.58 minutes
Total time:
	user time   =     111.71 seconds =       1.86 minutes
	system time =       0.58 seconds =       0.01 minutes
	total time  =         35 seconds =       0.58 minutes
   => Loading Basis Set <=

    Name: (JUN-CC-PVDZ AUX)
    Role: JKFIT
    Keyword: DF_BASIS_SCF
    atoms 1, 4, 8, 11, 15, 20-25   entry C          line   145 file /home/junteng/Softwares/psi4conda/share/psi4/basis/jun-cc-pvdz-jkfit.gbs 
    atoms 2-3, 9-10                entry O          line   257 file /home/junteng/Softwares/psi4conda/share/psi4/basis/jun-cc-pvdz-jkfit.gbs 
    atoms 5-7, 12-14, 16-19, 26-27 entry H          line    69 file /home/junteng/Softwares/psi4conda/share/psi4/basis/jun-cc-pvdz-jkfit.gbs 

   => Loading Basis Set <=

    Name: (JUN-CC-PVDZ AUX)
    Role: RIFIT
    Keyword: DF_BASIS_SAPT
    atoms 1, 4, 8, 11, 15, 20-25   entry C          line    99 file /home/junteng/Softwares/psi4conda/share/psi4/basis/jun-cc-pvdz-ri.gbs 
    atoms 2-3, 9-10                entry O          line   187 file /home/junteng/Softwares/psi4conda/share/psi4/basis/jun-cc-pvdz-ri.gbs 
    atoms 5-7, 12-14, 16-19, 26-27 entry H          line    29 file /home/junteng/Softwares/psi4conda/share/psi4/basis/jun-cc-pvdz-ri.gbs 

   => Loading Basis Set <=

    Name: CC-PVTZ-MINAO
    Role: ORBITAL
    Keyword: BASIS
    atoms 1, 4, 8, 11, 15, 20-25   entry C          line   130 file /home/junteng/Softwares/psi4conda/share/psi4/basis/cc-pvtz-minao.gbs 
    atoms 2-3, 9-10                entry O          line   190 file /home/junteng/Softwares/psi4conda/share/psi4/basis/cc-pvtz-minao.gbs 
    atoms 5-7, 12-14, 16-19, 26-27 entry H          line    19 file /home/junteng/Softwares/psi4conda/share/psi4/basis/cc-pvtz-minao.gbs 


*** tstart() called on ThinkPad-P50
*** at Mon Jan 15 18:39:12 2018

	 --------------------------------------------
	                    FISAPT0                  
	                  Rob Parrish                
	 --------------------------------------------

    Do F-SAPT =         Yes
    Do Plot   =          No
    Memory    =      78.580 [GD]

  ==> Localization (IBO) <==

  ==> IBO Localizer 2 <==

    MinAO Basis = CC-PVTZ-MINAO
    Use Ghosts  =       FALSE
    Use Stars   =       FALSE
    Condition   =   1.000E-07
    Power       =           4
    Convergence =   1.000E-12
    Maxiter     =        1000

    @IBO Iter:                   Metric       Gradient
    @IBO    1:   1.9752728156079391E+00   2.539961E+00
    @IBO    2:   2.1818421057564912E+00   1.963566E+00
    @IBO    3:   2.2513243170234083E+00   9.730790E-01
    @IBO    4:   2.2599112851266328E+00   7.746342E-02
    @IBO    5:   2.2599646625738461E+00   1.209874E-03
    @IBO    6:   2.2599646844603098E+00   4.896954E-05
    @IBO    7:   2.2599646845452086E+00   8.812738E-06
    @IBO    8:   2.2599646845486783E+00   1.889230E-06
    @IBO    9:   2.2599646845488452E+00   4.052016E-07
    @IBO   10:   2.2599646845488532E+00   8.669431E-08
    @IBO   11:   2.2599646845488532E+00   1.849444E-08
    @IBO   12:   2.2599646845488537E+00   3.933608E-09
    @IBO   13:   2.2599646845488537E+00   8.342230E-10
    @IBO   14:   2.2599646845488532E+00   1.764429E-10
    @IBO   15:   2.2599646845488528E+00   3.722803E-11
    @IBO   16:   2.2599646845488528E+00   7.837914E-12
    @IBO   17:   2.2599646845488532E+00   1.647050E-12
    @IBO   18:   2.2599646845488532E+00   3.455397E-13

    IBO Localizer 2 converged.

  ==> Partitioning <==

   => Atomic Partitioning <= 

    Monomer A:   7 atoms
    Monomer B:   7 atoms
    Monomer C:  13 atoms

   => Link Bond Identification <=

    Link Bond Selection = AUTOMATIC

    Charge Completeness = 0.800

    Total Link Bonds = 2

    --------------------------
    N     Orb Type Aind1 Aind2
    --------------------------
    1      18   BC     8    20
    2      30   AC     1    21
    --------------------------

   => Link Bond Assignment <=

    Link Bond Assignment      = C

   => Partition Summary <=

    Monomer A:  0 charge,  30 protons,  30 electrons,  15 docc
    Monomer B:  0 charge,  30 protons,  30 electrons,  15 docc
    Monomer C:  0 charge,  50 protons,  50 electrons,  25 docc

  ==> Overlap Integrals <==

  ==> Kinetic Integrals <==

  ==> Nuclear Integrals <==

    Nuclear Repulsion Tot:   1.0078272531620411E+03 [Eh]

  ==> Coulomb Integrals <==

  ==> DFJK: Density-Fitted J/K Matrices <==

    J tasked:                  Yes
    K tasked:                  Yes
    wK tasked:                  No
    OpenMP threads:              4
    Integrals threads:           4
    Memory (MB):            643730
    Algorithm:                Core
    Integral Cache:           NONE
    Schwarz Cutoff:          1E-12
    Fitting Condition:       1E-12

   => Auxiliary Basis Set <=

  Basis Set: (JUN-CC-PVDZ AUX)
    Blend: JUN-CC-PVDZ-JKFIT
    Number of shells: 513
    Number of basis function: 1461
    Number of Cartesian functions: 1665
    Spherical Harmonics?: true
    Max angular momentum: 3

  ==> Relaxed SCF Equations <==

  ==> SCF A: <==

    Maxiter =          50
    E Tol   =   1.000E-06
    D Tol   =   1.000E-08

    Max DIIS Vectors = 5

    Iter   N:                        E          dE         |D|
    Iter   1:  -2.2390721370246175E+02  -2.239E+02   2.396E-03 
    Iter   2:  -2.2393015066072570E+02  -2.294E-02   1.353E-04 DIIS
    Iter   3:  -2.2393050827075444E+02  -3.576E-04   4.263E-05 DIIS
    Iter   4:  -2.2393053377904653E+02  -2.551E-05   2.082E-05 DIIS
    Iter   5:  -2.2393053959549493E+02  -5.816E-06   3.736E-06 DIIS
    Iter   6:  -2.2393053992324093E+02  -3.277E-07   1.632E-06 DIIS
    Iter   7:  -2.2393053996643332E+02  -4.319E-08   4.642E-07 DIIS
    Iter   8:  -2.2393053997109956E+02  -4.666E-09   1.747E-07 DIIS
    Iter   9:  -2.2393053997169469E+02  -5.951E-10   6.700E-08 DIIS
    Iter  10:  -2.2393053997182344E+02  -1.288E-10   2.734E-08 DIIS
    Iter  11:  -2.2393053997184347E+02  -2.004E-11   1.105E-08 DIIS
    Iter  12:  -2.2393053997184600E+02  -2.530E-12   5.705E-09 DIIS

    FISAPTSCF Converged.

    Final SCF Energy:  -2.2393053997184600E+02 [Eh]

   => Occupied Orbital Energies <=

       1  -20.603691     2  -20.536619     3  -11.382354  
       4  -11.291947     5   -1.435231     6   -1.345723  
       7   -0.959688     8   -0.762732     9   -0.662560  
      10   -0.657526    11   -0.618852    12   -0.531863  
      13   -0.530551    14   -0.464182    15   -0.454622  

   => Virtual Orbital Energies <=

      16    0.040338    17    0.053257    18    0.060069  
      19    0.068751    20    0.073796    21    0.080886  
      22    0.087874    23    0.089630    24    0.095289  
      25    0.100840    26    0.105832    27    0.110025  
      28    0.115737    29    0.118211    30    0.123524  
      31    0.127512    32    0.132828    33    0.143121  
      34    0.147589    35    0.153271    36    0.156048  
      37    0.161595    38    0.173792    39    0.176374  
      40    0.186920    41    0.188817    42    0.192883  
      43    0.198462    44    0.210560    45    0.213220  
      46    0.220646    47    0.225071    48    0.232912  
      49    0.236688    50    0.242918    51    0.250794  
      52    0.251541    53    0.259535    54    0.263038  
      55    0.271974    56    0.273353    57    0.278610  
      58    0.280686    59    0.288141    60    0.294540  
      61    0.301512    62    0.303582    63    0.309825  
      64    0.318250    65    0.322615    66    0.324864  
      67    0.328756    68    0.332789    69    0.343643  
      70    0.348815    71    0.355613    72    0.358964  
      73    0.370790    74    0.379460    75    0.384474  
      76    0.385711    77    0.403370    78    0.406911  
      79    0.411603    80    0.418228    81    0.420571  
      82    0.422987    83    0.433039    84    0.439112  
      85    0.451561    86    0.458640    87    0.467788  
      88    0.475429    89    0.479420    90    0.482604  
      91    0.494256    92    0.511679    93    0.527400  
      94    0.536176    95    0.541241    96    0.561720  
      97    0.568409    98    0.580063    99    0.602516  
     100    0.630572   101    0.638180   102    0.651690  
     103    0.655042   104    0.670410   105    0.685653  
     106    0.706653   107    0.733493   108    0.752063  
     109    0.778362   110    0.791398   111    0.798765  
     112    0.819476   113    0.824731   114    0.841024  
     115    0.879886   116    0.883141   117    0.887153  
     118    0.896985   119    0.908306   120    0.913961  
     121    0.920225   122    0.928391   123    0.936259  
     124    0.940224   125    0.944943   126    0.949479  
     127    0.952285   128    0.974041   129    0.983069  
     130    0.988379   131    0.994256   132    1.003434  
     133    1.007318   134    1.010270   135    1.014546  
     136    1.034596   137    1.054858   138    1.056608  
     139    1.066332   140    1.079799   141    1.088894  
     142    1.105370   143    1.123706   144    1.141204  
     145    1.160435   146    1.161182   147    1.170172  
     148    1.201008   149    1.215623   150    1.227420  
     151    1.230366   152    1.239264   153    1.241691  
     154    1.273646   155    1.296288   156    1.307235  
     157    1.319153   158    1.328701   159    1.333352  
     160    1.345752   161    1.359995   162    1.389123  
     163    1.411266   164    1.444085   165    1.458977  
     166    1.479561   167    1.519274   168    1.526993  
     169    1.549701   170    1.562582   171    1.571797  
     172    1.581007   173    1.581745   174    1.598608  
     175    1.605259   176    1.624733   177    1.655525  
     178    1.667664   179    1.673224   180    1.701994  
     181    1.735445   182    1.738943   183    1.755941  
     184    1.778415   185    1.797097   186    1.815682  
     187    1.831481   188    1.836745   189    1.838908  
     190    1.853039   191    1.874640   192    1.897178  
     193    1.901871   194    1.909032   195    1.929672  
     196    1.957816   197    1.967197   198    1.971296  
     199    1.977694   200    1.988864   201    2.000157  
     202    2.009085   203    2.022225   204    2.029699  
     205    2.036133   206    2.049086   207    2.052121  
     208    2.067373   209    2.078163   210    2.102921  
     211    2.114240   212    2.129401   213    2.131815  
     214    2.135752   215    2.152029   216    2.155683  
     217    2.173113   218    2.179362   219    2.202628  
     220    2.214364   221    2.253256   222    2.255649  
     223    2.266743   224    2.288382   225    2.299612  
     226    2.326197   227    2.330996   228    2.348729  
     229    2.359330   230    2.384316   231    2.387981  
     232    2.394597   233    2.401206   234    2.426496  
     235    2.432355   236    2.482937   237    2.497343  
     238    2.518351   239    2.546848   240    2.573694  
     241    2.600364   242    2.610665   243    2.620687  
     244    2.644477   245    2.648676   246    2.674420  
     247    2.717349   248    2.739816   249    2.761939  
     250    2.793901   251    2.797252   252    2.808923  
     253    2.830438   254    2.860250   255    2.872583  
     256    2.878681   257    2.883275   258    2.889316  
     259    2.896818   260    2.926889   261    2.964092  
     262    2.982053   263    3.010828   264    3.021894  
     265    3.030547   266    3.084324   267    3.121826  
     268    3.172780   269    3.209875   270    3.220865  
     271    3.255928   272    3.306265   273    3.393197  
     274    3.468662   275    3.559005   276    3.607514  
     277    3.697073   278    3.735270   279    3.842420  
     280    3.902547   281    3.958894   282    4.059859  
     283    4.101573   284    4.153445   285    4.201671  
     286    4.454953   287    4.535128   288    4.555671  
     289    4.767437   290    4.934965   291    5.057673  
     292    5.078749   293    5.228222   294    5.330350  
     295    5.497452   296    5.586531   297    5.738038  
     298    5.831630   299    6.079650   300    6.377529  
     301    6.680072   302   13.372469   303   18.438373  
     304   33.432835   305   33.481047  

  ==> SCF B: <==

    Maxiter =          50
    E Tol   =   1.000E-06
    D Tol   =   1.000E-08

    Max DIIS Vectors = 5

    Iter   N:                        E          dE         |D|
    Iter   1:  -2.2443986585527091E+02  -2.244E+02   1.660E-03 
    Iter   2:  -2.2445195662543708E+02  -1.209E-02   1.099E-04 DIIS
    Iter   3:  -2.2445220807806970E+02  -2.515E-04   3.028E-05 DIIS
    Iter   4:  -2.2445222656394506E+02  -1.849E-05   1.343E-05 DIIS
    Iter   5:  -2.2445222978577041E+02  -3.222E-06   5.647E-06 DIIS
    Iter   6:  -2.2445223033505755E+02  -5.493E-07   1.734E-06 DIIS
    Iter   7:  -2.2445223043049000E+02  -9.543E-08   7.445E-07 DIIS
    Iter   8:  -2.2445223044304385E+02  -1.255E-08   2.729E-07 DIIS
    Iter   9:  -2.2445223044487534E+02  -1.831E-09   1.115E-07 DIIS
    Iter  10:  -2.2445223044524727E+02  -3.719E-10   4.132E-08 DIIS
    Iter  11:  -2.2445223044530064E+02  -5.338E-11   2.427E-08 DIIS
    Iter  12:  -2.2445223044531625E+02  -1.560E-11   1.053E-08 DIIS
    Iter  13:  -2.2445223044531787E+02  -1.620E-12   3.763E-09 DIIS

    FISAPTSCF Converged.

    Final SCF Energy:  -2.2445223044531787E+02 [Eh]

   => Occupied Orbital Energies <=

       1  -20.614952     2  -20.559057     3  -11.399181  
       4  -11.298287     5   -1.446597     6   -1.367046  
       7   -0.967553     8   -0.773382     9   -0.677973  
      10   -0.670536    11   -0.626317    12   -0.550456  
      13   -0.540818    14   -0.482109    15   -0.465894  

   => Virtual Orbital Energies <=

      16    0.031883    17    0.053748    18    0.060334  
      19    0.067788    20    0.075394    21    0.077504  
      22    0.081408    23    0.095644    24    0.098162  
      25    0.103214    26    0.105816    27    0.115154  
      28    0.118881    29    0.121976    30    0.124618  
      31    0.130103    32    0.136739    33    0.140420  
      34    0.144737    35    0.150721    36    0.154568  
      37    0.160002    38    0.164999    39    0.176453  
      40    0.179824    41    0.181605    42    0.198668  
      43    0.201187    44    0.203466    45    0.208596  
      46    0.213932    47    0.216635    48    0.226650  
      49    0.233286    50    0.234585    51    0.242085  
      52    0.255921    53    0.257464    54    0.263055  
      55    0.267566    56    0.270107    57    0.274656  
      58    0.276390    59    0.281622    60    0.291209  
      61    0.301678    62    0.308253    63    0.311135  
      64    0.315099    65    0.321367    66    0.324824  
      67    0.338071    68    0.341217    69    0.342667  
      70    0.350760    71    0.352362    72    0.361226  
      73    0.364870    74    0.375709    75    0.384088  
      76    0.386623    77    0.393797    78    0.395874  
      79    0.405023    80    0.412805    81    0.414886  
      82    0.423883    83    0.426998    84    0.431605  
      85    0.448700    86    0.450948    87    0.461063  
      88    0.471305    89    0.485546    90    0.492372  
      91    0.502214    92    0.512555    93    0.513390  
      94    0.538824    95    0.556114    96    0.569002  
      97    0.573150    98    0.589363    99    0.608341  
     100    0.624174   101    0.626491   102    0.630166  
     103    0.640939   104    0.647587   105    0.690952  
     106    0.709583   107    0.718780   108    0.757749  
     109    0.761370   110    0.785957   111    0.794604  
     112    0.800885   113    0.814779   114    0.833850  
     115    0.849498   116    0.864595   117    0.870555  
     118    0.887774   119    0.900198   120    0.908732  
     121    0.921284   122    0.922683   123    0.928761  
     124    0.936773   125    0.939863   126    0.946079  
     127    0.951051   128    0.955248   129    0.963513  
     130    0.970617   131    0.977402   132    0.985877  
     133    0.988910   134    0.999224   135    1.005686  
     136    1.006869   137    1.036229   138    1.039892  
     139    1.051240   140    1.068833   141    1.081503  
     142    1.093761   143    1.125500   144    1.149156  
     145    1.160998   146    1.164225   147    1.176053  
     148    1.208070   149    1.213879   150    1.225394  
     151    1.237445   152    1.274742   153    1.277587  
     154    1.298238   155    1.306509   156    1.316913  
     157    1.328464   158    1.343478   159    1.360850  
     160    1.380514   161    1.397714   162    1.413346  
     163    1.424841   164    1.446424   165    1.466777  
     166    1.489868   167    1.514868   168    1.528570  
     169    1.550954   170    1.552649   171    1.566796  
     172    1.586664   173    1.588719   174    1.612999  
     175    1.630877   176    1.649558   177    1.657159  
     178    1.658919   179    1.687016   180    1.698120  
     181    1.700390   182    1.733083   183    1.759710  
     184    1.770180   185    1.778742   186    1.791982  
     187    1.805752   188    1.812936   189    1.841046  
     190    1.844049   191    1.860840   192    1.884193  
     193    1.891482   194    1.920230   195    1.927240  
     196    1.943295   197    1.950382   198    1.952934  
     199    1.967643   200    1.978663   201    2.001323  
     202    2.006544   203    2.013659   204    2.020901  
     205    2.026804   206    2.039414   207    2.052195  
     208    2.063986   209    2.071661   210    2.077234  
     211    2.083863   212    2.111781   213    2.119982  
     214    2.126925   215    2.146668   216    2.161873  
     217    2.173598   218    2.178722   219    2.194304  
     220    2.198409   221    2.236287   222    2.244714  
     223    2.269937   224    2.290234   225    2.293012  
     226    2.327009   227    2.334562   228    2.356518  
     229    2.358406   230    2.373472   231    2.386895  
     232    2.390454   233    2.410835   234    2.416753  
     235    2.430750   236    2.444162   237    2.460072  
     238    2.510220   239    2.529355   240    2.536579  
     241    2.581408   242    2.586690   243    2.642804  
     244    2.661904   245    2.672512   246    2.689173  
     247    2.698591   248    2.702479   249    2.715526  
     250    2.759663   251    2.791261   252    2.800833  
     253    2.821288   254    2.835546   255    2.841456  
     256    2.867868   257    2.875103   258    2.880261  
     259    2.897813   260    2.904706   261    2.924529  
     262    2.958783   263    2.971679   264    3.033741  
     265    3.044550   266    3.075636   267    3.103897  
     268    3.143636   269    3.164337   270    3.213488  
     271    3.274786   272    3.324333   273    3.375275  
     274    3.472393   275    3.571843   276    3.627136  
     277    3.679780   278    3.755303   279    3.817047  
     280    3.895816   281    3.961504   282    3.979607  
     283    4.049771   284    4.151560   285    4.276389  
     286    4.429829   287    4.507308   288    4.573208  
     289    4.736888   290    4.966904   291    5.039532  
     292    5.063702   293    5.216797   294    5.331121  
     295    5.543092   296    5.563137   297    5.621753  
     298    5.935920   299    6.148629   300    6.354614  
     301    6.731304   302   13.406993   303   18.428390  
     304   33.421115   305   33.478566  

  ==> Frozen Core <==


    ------------------
    Range      A     B
    ------------------
    nbf      330   330
    nmo      305   305
    nocc      15    15
    nvir     290   290
    nfocc      4     4
    naocc     11    11
    navir    290   290
    nfvir      0     0
    ------------------

  ==> Unification <==

  ==> dHF <==

    E ABC(HF) =  -7.2307973674333289E+02 [Eh]
    E AC(0)   =  -4.9512241140423021E+02 [Eh]
    E BC(0)   =  -4.9503760420706226E+02 [Eh]
    E A(0)    =  -2.1262486051846525E+02 [Eh]
    E B(0)    =  -2.1267055298968634E+02 [Eh]
    E AC(HF)  =  -4.9509908513484515E+02 [Eh]
    E BC(HF)  =  -4.9502523961701377E+02 [Eh]
    E AB(HF)  =  -4.2525870937612564E+02 [Eh]
    E A(HF)   =  -2.1259062896743558E+02 [Eh]
    E B(HF)   =  -2.1265013532009206E+02 [Eh]
    E C       =  -2.6706253309712190E+02 [Eh]
    E HF      =   1.7745770837677810E-02 [Eh]

  ==> Electrostatics <==

    Elst10,r            =     0.010692301623 [Eh]

  ==> Exchange <==

    Exch10(S^2)         =     0.010736646832 [Eh]
    Exch10              =     0.010800790595 [Eh]

  ==> Induction <==

    Ind20,u (A<-B)      =    -0.003227235897 [Eh]
    Ind20,u (B<-A)      =    -0.002072884993 [Eh]
    Ind20,u             =    -0.005300120889 [Eh]
    Exch-Ind20,u (A<-B) =     0.001946446197 [Eh]
    Exch-Ind20,u (B<-A) =     0.001083592400 [Eh]
    Exch-Ind20,u        =     0.003030038597 [Eh]

  ==> CPHF Iterations <==

    Maxiter     =          50
    Convergence =   1.000E-08

    -----------------------------------------
    Iter   Monomer A    Monomer B    Time [s]
    -----------------------------------------
    1      2.379E-01    1.546E-01           3
    2      9.310E-02    5.024E-02           6
    3      2.139E-02    1.354E-02          10
    4      8.163E-03    4.976E-03          13
    5      2.515E-03    1.767E-03          16
    6      1.018E-03    6.677E-04          20
    7      3.227E-04    2.812E-04          23
    8      1.211E-04    1.136E-04          26
    9      2.179E-05    2.459E-05          30
    10     6.597E-06    8.731E-06          33
    11     2.040E-06    3.052E-06          36
    12     4.660E-07    7.016E-07          40
    13     1.576E-07    2.259E-07          43
    14     5.021E-08    5.287E-08          46
    15     1.000E-08    9.634E-09*         50
    16     1.638E-09*   9.634E-09*         51
    -----------------------------------------

    Ind20,r (A<-B)      =    -0.004045595259 [Eh]
    Ind20,r (B<-A)      =    -0.002332706840 [Eh]
    Ind20,r             =    -0.006378302099 [Eh]
    Exch-Ind20,r (A<-B) =     0.002608884495 [Eh]
    Exch-Ind20,r (B<-A) =     0.001265683173 [Eh]
    Exch-Ind20,r        =     0.003874567668 [Eh]

  ==> F-SAPT Localization (IBO) <==

  Local Orbitals for Monomer A:

  ==> IBO Localizer 2 <==

    MinAO Basis = CC-PVTZ-MINAO
    Use Ghosts  =       FALSE
    Use Stars   =       FALSE
    Condition   =   1.000E-07
    Power       =           4
    Convergence =   1.000E-12
    Maxiter     =        1000

    @IBO Iter:                   Metric       Gradient
    @IBO    1:   1.4850943538452908E+00   1.587047E+00
    @IBO    2:   1.6783254588718315E+00   9.861723E-01
    @IBO    3:   1.7095899855798984E+00   3.230328E-01
    @IBO    4:   1.7109235361042447E+00   4.938993E-03
    @IBO    5:   1.7109244612615575E+00   1.992585E-04
    @IBO    6:   1.7109244618340613E+00   3.024540E-06
    @IBO    7:   1.7109244618342478E+00   8.072132E-08
    @IBO    8:   1.7109244618342481E+00   2.249149E-09
    @IBO    9:   1.7109244618342481E+00   7.659279E-11
    @IBO   10:   1.7109244618342481E+00   2.885368E-12
    @IBO   11:   1.7109244618342481E+00   1.123827E-13

    IBO Localizer 2 converged.

  Local Orbitals for Monomer B:

  ==> IBO Localizer 2 <==

    MinAO Basis = CC-PVTZ-MINAO
    Use Ghosts  =       FALSE
    Use Stars   =       FALSE
    Condition   =   1.000E-07
    Power       =           4
    Convergence =   1.000E-12
    Maxiter     =        1000

    @IBO Iter:                   Metric       Gradient
    @IBO    1:   1.4824506242667457E+00   1.687048E+00
    @IBO    2:   1.6766954931484437E+00   9.436218E-01
    @IBO    3:   1.7086062174458041E+00   3.348312E-01
    @IBO    4:   1.7100030129814763E+00   3.423896E-03
    @IBO    5:   1.7100034254115200E+00   1.630968E-04
    @IBO    6:   1.7100034257488794E+00   3.267255E-06
    @IBO    7:   1.7100034257491097E+00   1.232430E-07
    @IBO    8:   1.7100034257491101E+00   4.622257E-09
    @IBO    9:   1.7100034257491101E+00   1.900404E-10
    @IBO   10:   1.7100034257491101E+00   8.099750E-12
    @IBO   11:   1.7100034257491099E+00   3.500832E-13

    IBO Localizer 2 converged.

  ==> F-SAPT Electrostatics <==

  ==> DFERI: Density Fitted 3-Index Tensors <==

    Schwarz cutoff =   0.000E+00
    J cutoff       =   1.000E-12
    Mem (GB)       =         628

   => Auxiliary Basis <=

  Basis Set: (JUN-CC-PVDZ AUX)
    Blend: JUN-CC-PVDZ-JKFIT
    Number of shells: 513
    Number of basis function: 1461
    Number of Cartesian functions: 1665
    Spherical Harmonics?: true
    Max angular momentum: 3

    Elst10,r            =     0.010692301699 [Eh]

  ==> F-SAPT Exchange <==

  ==> DFERI: Density Fitted 3-Index Tensors <==

    Schwarz cutoff =   0.000E+00
    J cutoff       =   1.000E-12
    Mem (GB)       =         628

   => Auxiliary Basis <=

  Basis Set: (JUN-CC-PVDZ AUX)
    Blend: JUN-CC-PVDZ-JKFIT
    Number of shells: 513
    Number of basis function: 1461
    Number of Cartesian functions: 1665
    Spherical Harmonics?: true
    Max angular momentum: 3

    Exch10(S^2)         =     0.010736646832 [Eh]

    Scaling F-SAPT Exch10(S^2) by   1.006E+00 to match Exch10

  ==> F-SAPT Induction <==

  ==> DFERI: Density Fitted 3-Index Tensors <==

    Schwarz cutoff =   0.000E+00
    J cutoff       =   1.000E-12
    Mem (GB)       =         628

   => Auxiliary Basis <=

  Basis Set: (JUN-CC-PVDZ AUX)
    Blend: JUN-CC-PVDZ-JKFIT
    Number of shells: 513
    Number of basis function: 1461
    Number of Cartesian functions: 1665
    Spherical Harmonics?: true
    Max angular momentum: 3

    Ind20,u (A<-B)      =    -0.003227235897 [Eh]
    Ind20,u (B<-A)      =    -0.002072884992 [Eh]
    Ind20,u             =    -0.005300120889 [Eh]
    Exch-Ind20,u (A<-B) =     0.001946446197 [Eh]
    Exch-Ind20,u (B<-A) =     0.001083592400 [Eh]
    Exch-Ind20,u        =     0.003030038597 [Eh]

    Scaling for delta HF        =   1.497E+00
    Scaling for response (A<-B) =   1.122E+00
    Scaling for response (B<-A) =   1.079E+00
    Scaling for total (A<-B)    =   1.679E+00
    Scaling for total (B<-A)    =   1.614E+00

  ==> F-SAPT Dispersion <==

  ==> DFERI: Density Fitted 3-Index Tensors <==

    Schwarz cutoff =   0.000E+00
    J cutoff       =   1.000E-12
    Mem (GB)       =         628

   => Auxiliary Basis <=

  Basis Set: (JUN-CC-PVDZ AUX)
    Blend: JUN-CC-PVDZ-RI
    Number of shells: 387
    Number of basis function: 1143
    Number of Cartesian functions: 1320
    Spherical Harmonics?: true
    Max angular momentum: 3

    Disp20              =    -0.004761177213 [Eh]
    Exch-Disp20         =     0.000805660130 [Eh]

  ==> F-SAPT Output <==

    F-SAPT Data Filepath = fsapt/

  ==> Results <==


    SAPT Results  
  --------------------------------------------------------------------------------------------------------
    Electrostatics                 10.69230162 [mEh]       6.70952085 [kcal/mol]      28.07263791 [kJ/mol]
      Elst10,r                     10.69230162 [mEh]       6.70952085 [kcal/mol]      28.07263791 [kJ/mol]

    Exchange                       10.80079060 [mEh]       6.77759871 [kcal/mol]      28.35747571 [kJ/mol]
      Exch10                       10.80079060 [mEh]       6.77759871 [kcal/mol]      28.35747571 [kJ/mol]
      Exch10(S^2)                  10.73664683 [mEh]       6.73734789 [kcal/mol]      28.18906626 [kJ/mol]

    Induction                      -3.74732138 [mEh]      -2.35147977 [kcal/mol]      -9.83859228 [kJ/mol]
      Ind20,r                      -6.37830210 [mEh]      -4.00244516 [kcal/mol]     -16.74623216 [kJ/mol]
      Exch-Ind20,r                  3.87456767 [mEh]       2.43132802 [kcal/mol]      10.17267741 [kJ/mol]
      delta HF,r (2)               -1.24358695 [mEh]      -0.78036262 [kcal/mol]      -3.26503753 [kJ/mol]
      Induction (A<-B)             -2.15031470 [mEh]      -1.34934290 [kcal/mol]      -5.64565125 [kJ/mol]
      Induction (B<-A)             -1.59700668 [mEh]      -1.00213686 [kcal/mol]      -4.19294103 [kJ/mol]

    Dispersion                     -3.95551708 [mEh]      -2.48212455 [kcal/mol]     -10.38521010 [kJ/mol]
      Disp20                       -4.76117721 [mEh]      -2.98768393 [kcal/mol]     -12.50047077 [kJ/mol]
      Exch-Disp20                   0.80566013 [mEh]       0.50555939 [kcal/mol]       2.11526067 [kJ/mol]

  Total HF                         17.74577084 [mEh]      11.13563979 [kcal/mol]      46.59152133 [kJ/mol]
  Total SAPT0                      13.79025375 [mEh]       8.65351524 [kcal/mol]      36.20631123 [kJ/mol]

  --------------------------------------------------------------------------------------------------------
    Han Solo: This is *not* gonna work.
    Luke Skywalker: Why didn't you say so before?
    Han Solo: I *did* say so before.

*** tstop() called on ThinkPad-P50 at Mon Jan 15 18:41:22 2018
Module time:
	user time   =     462.20 seconds =       7.70 minutes
	system time =       2.16 seconds =       0.04 minutes
	total time  =        130 seconds =       2.17 minutes
Total time:
	user time   =     574.95 seconds =       9.58 minutes
	system time =       2.74 seconds =       0.05 minutes
	total time  =        166 seconds =       2.77 minutes

*** Psi4 exiting successfully. Buy a developer a beer!
