
    -----------------------------------------------------------------------
          Psi4: An Open-Source Ab Initio Electronic Structure Package
                               Psi4 1.1 release

                         Git: Rev {HEAD} add49b9 


    R. M. Parrish, L. A. Burns, D. G. A. Smith, A. C. Simmonett,
    A. E. DePrince III, E. G. Hohenstein, U. Bozkaya, A. Yu. Sokolov,
    R. Di Remigio, R. M. Richard, J. F. Gonthier, A. M. James,
    H. R. McAlexander, A. Kumar, M. Saitow, X. Wang, B. P. Pritchard,
    P. Verma, H. F. Schaefer III, K. Patkowski, R. A. King, E. F. Valeev,
    F. A. Evangelista, J. M. Turney, T. D. Crawford, and C. D. Sherrill,
    J. Chem. Theory Comput. in press (2017).
    (doi: 10.1021/acs.jctc.7b00174)

    -----------------------------------------------------------------------


    Psi4 started on: Monday, 15 January 2018 06:41PM

    Process ID:  21235
    PSIDATADIR: /home/junteng/Softwares/psi4conda/share/psi4
    Memory:     500.0 MiB
    Threads:    4
    
  ==> Input File <==

--------------------------------------------------------------------------
memory 750000 mb

molecule mol {
0 1
C         -3.20182       -0.67174       -0.26953
H         -3.31861       -0.00121       -1.12196
H         -3.52616       -0.11691        0.61239
H         -3.86887       -1.52480       -0.40531
--
0 1
C         -0.68726        1.17083        0.08062
O          0.29457        1.87206        0.18620
O         -1.93038        1.68746        0.01777
C         -2.01773        3.12216        0.09240
H         -1.48338        3.58005       -0.74108
H         -1.59357        3.48050        1.03120
H         -3.08063        3.34773        0.03868
--
0 1
H          1.78580       -2.71658        0.22779
C          1.90079       -0.10879        0.32602
O          2.43672        0.06267        1.39176
O          2.41599        0.25937       -0.85897
C          3.59610        1.08115       -0.79551
H          3.36459        2.01770       -0.28574
H          3.87626        1.26547       -1.83023
H          4.39689        0.56436       -0.26451
C          0.63715       -0.90790        0.13951
C         -0.64081       -0.32252        0.01904
C          0.79527       -2.29069        0.12326
C         -0.31571       -3.11119       -0.02540
C         -1.57722       -2.54445       -0.15247
C         -1.77714       -1.15931       -0.12965
H         -2.44047       -3.19028       -0.26853
H         -0.20021       -4.18910       -0.04270

symmetry c1
no_reorient
no_com
}

set {
basis jun-cc-pvdz
scf_type df
guess sad
freeze_core true
}

energy('fisapt0')
--------------------------------------------------------------------------

  Memory set to 698.492 GiB by Python driver.

*** tstart() called on ThinkPad-P50
*** at Mon Jan 15 18:41:22 2018

   => Loading Basis Set <=

    Name: JUN-CC-PVDZ
    Role: ORBITAL
    Keyword: BASIS
    atoms 1, 5, 8, 13, 16, 20-25  entry C          line   157 file /home/junteng/Softwares/psi4conda/share/psi4/basis/jun-cc-pvdz.gbs 
    atoms 2-4, 9-12, 17-19, 26-27 entry H          line    35 file /home/junteng/Softwares/psi4conda/share/psi4/basis/jun-cc-pvdz.gbs 
    atoms 6-7, 14-15              entry O          line   225 file /home/junteng/Softwares/psi4conda/share/psi4/basis/jun-cc-pvdz.gbs 


         ---------------------------------------------------------
                                   SCF
            by Justin Turney, Rob Parrish, and Andy Simmonett
                              RHF Reference
                        4 Threads, 715255 MiB Core
         ---------------------------------------------------------

  ==> Geometry <==

    Molecular point group: c1
    Full point group: C1

    Geometry (in Angstrom), charge = 0, multiplicity = 1:

       Center              X                  Y                   Z               Mass       
    ------------   -----------------  -----------------  -----------------  -----------------
           C         -3.201820000000    -0.671740000000    -0.269530000000    12.000000000000
           H         -3.318610000000    -0.001210000000    -1.121960000000     1.007825032070
           H         -3.526160000000    -0.116910000000     0.612390000000     1.007825032070
           H         -3.868870000000    -1.524800000000    -0.405310000000     1.007825032070
           C         -0.687260000000     1.170830000000     0.080620000000    12.000000000000
           O          0.294570000000     1.872060000000     0.186200000000    15.994914619560
           O         -1.930380000000     1.687460000000     0.017770000000    15.994914619560
           C         -2.017730000000     3.122160000000     0.092400000000    12.000000000000
           H         -1.483380000000     3.580050000000    -0.741080000000     1.007825032070
           H         -1.593570000000     3.480500000000     1.031200000000     1.007825032070
           H         -3.080630000000     3.347730000000     0.038680000000     1.007825032070
           H          1.785800000000    -2.716580000000     0.227790000000     1.007825032070
           C          1.900790000000    -0.108790000000     0.326020000000    12.000000000000
           O          2.436720000000     0.062670000000     1.391760000000    15.994914619560
           O          2.415990000000     0.259370000000    -0.858970000000    15.994914619560
           C          3.596100000000     1.081150000000    -0.795510000000    12.000000000000
           H          3.364590000000     2.017700000000    -0.285740000000     1.007825032070
           H          3.876260000000     1.265470000000    -1.830230000000     1.007825032070
           H          4.396890000000     0.564360000000    -0.264510000000     1.007825032070
           C          0.637150000000    -0.907900000000     0.139510000000    12.000000000000
           C         -0.640810000000    -0.322520000000     0.019040000000    12.000000000000
           C          0.795270000000    -2.290690000000     0.123260000000    12.000000000000
           C         -0.315710000000    -3.111190000000    -0.025400000000    12.000000000000
           C         -1.577220000000    -2.544450000000    -0.152470000000    12.000000000000
           C         -1.777140000000    -1.159310000000    -0.129650000000    12.000000000000
           H         -2.440470000000    -3.190280000000    -0.268530000000     1.007825032070
           H         -0.200210000000    -4.189100000000    -0.042700000000     1.007825032070

  Running in c1 symmetry.

  Rotational constants: A =      0.02479  B =      0.01910  C =      0.01171 [cm^-1]
  Rotational constants: A =    743.10061  B =    572.64607  C =    350.92332 [MHz]
  Nuclear repulsion = 1007.827253162041075

  Charge       = 0
  Multiplicity = 1
  Electrons    = 110
  Nalpha       = 55
  Nbeta        = 55

  ==> Algorithm <==

  SCF Algorithm Type is DF.
  DIIS enabled.
  MOM disabled.
  Fractional occupation disabled.
  Guess Type is SAD.
  Energy threshold   = 1.00e-08
  Density threshold  = 1.00e-08
  Integral threshold = 0.00e+00

  ==> Primary Basis <==

  Basis Set: JUN-CC-PVDZ
    Blend: JUN-CC-PVDZ
    Number of shells: 156
    Number of basis function: 330
    Number of Cartesian functions: 345
    Spherical Harmonics?: true
    Max angular momentum: 2

   => Loading Basis Set <=

    Name: (JUN-CC-PVDZ AUX)
    Role: JKFIT
    Keyword: DF_BASIS_SCF
    atoms 1, 5, 8, 13, 16, 20-25  entry C          line   145 file /home/junteng/Softwares/psi4conda/share/psi4/basis/jun-cc-pvdz-jkfit.gbs 
    atoms 2-4, 9-12, 17-19, 26-27 entry H          line    69 file /home/junteng/Softwares/psi4conda/share/psi4/basis/jun-cc-pvdz-jkfit.gbs 
    atoms 6-7, 14-15              entry O          line   257 file /home/junteng/Softwares/psi4conda/share/psi4/basis/jun-cc-pvdz-jkfit.gbs 

  ==> Pre-Iterations <==

   -------------------------------------------------------
    Irrep   Nso     Nmo     Nalpha   Nbeta   Ndocc  Nsocc
   -------------------------------------------------------
     A        330     330       0       0       0       0
   -------------------------------------------------------
    Total     330     330      55      55      55       0
   -------------------------------------------------------

  ==> Integral Setup <==

  ==> DFJK: Density-Fitted J/K Matrices <==

    J tasked:                  Yes
    K tasked:                  Yes
    wK tasked:                  No
    OpenMP threads:              4
    Integrals threads:           4
    Memory (MB):            536441
    Algorithm:                Core
    Integral Cache:           NONE
    Schwarz Cutoff:          1E-12
    Fitting Condition:       1E-12

   => Auxiliary Basis Set <=

  Basis Set: (JUN-CC-PVDZ AUX)
    Blend: JUN-CC-PVDZ-JKFIT
    Number of shells: 513
    Number of basis function: 1461
    Number of Cartesian functions: 1665
    Spherical Harmonics?: true
    Max angular momentum: 3

  Minimum eigenvalue in the overlap matrix is 3.5989976272E-06.
  Using Symmetric Orthogonalization.

  SCF Guess: Superposition of Atomic Densities via on-the-fly atomic UHF.

  ==> Iterations <==

                           Total Energy        Delta E     RMS |[F,P]|

   @DF-RHF iter   0:  -729.05322894799008   -7.29053e+02   4.32213e-02 
   @DF-RHF iter   1:  -722.59977236503232    6.45346e+00   4.85825e-03 
   @DF-RHF iter   2:  -722.96370073622597   -3.63928e-01   2.84086e-03 DIIS
   @DF-RHF iter   3:  -723.05665834528259   -9.29576e-02   9.52533e-04 DIIS
   @DF-RHF iter   4:  -723.07701126442112   -2.03529e-02   3.05267e-04 DIIS
   @DF-RHF iter   5:  -723.07921175864840   -2.20049e-03   1.11468e-04 DIIS
   @DF-RHF iter   6:  -723.07966711257222   -4.55354e-04   4.12889e-05 DIIS
   @DF-RHF iter   7:  -723.07972823811156   -6.11255e-05   1.37618e-05 DIIS
   @DF-RHF iter   8:  -723.07973522649957   -6.98839e-06   5.12170e-06 DIIS
   @DF-RHF iter   9:  -723.07973646989399   -1.24339e-06   2.24859e-06 DIIS
   @DF-RHF iter  10:  -723.07973669402759   -2.24134e-07   1.01549e-06 DIIS
   @DF-RHF iter  11:  -723.07973673984907   -4.58215e-08   3.75727e-07 DIIS
   @DF-RHF iter  12:  -723.07973674732671   -7.47764e-09   1.66068e-07 DIIS
   @DF-RHF iter  13:  -723.07973674873915   -1.41245e-09   8.49208e-08 DIIS
   @DF-RHF iter  14:  -723.07973674911182   -3.72665e-10   3.25237e-08 DIIS
   @DF-RHF iter  15:  -723.07973674917469   -6.28688e-11   1.40831e-08 DIIS
   @DF-RHF iter  16:  -723.07973674918480   -1.01181e-11   5.14876e-09 DIIS

  ==> Post-Iterations <==

    Orbital Energies (a.u.)
    -----------------------

    Doubly Occupied:                                                      

       1A    -20.616674     2A    -20.601236     3A    -20.558151  
       4A    -20.546408     5A    -11.400485     6A    -11.389677  
       7A    -11.300691     8A    -11.284932     9A    -11.279040  
      10A    -11.278405    11A    -11.272595    12A    -11.265458  
      13A    -11.255464    14A    -11.251993    15A    -11.238147  
      16A     -1.474570    17A     -1.457844    18A     -1.370398  
      19A     -1.357952    20A     -1.183344    21A     -1.074903  
      22A     -1.063139    23A     -0.993040    24A     -0.968307  
      25A     -0.951685    26A     -0.877535    27A     -0.844926  
      28A     -0.793461    29A     -0.770667    30A     -0.733668  
      31A     -0.713867    32A     -0.688195    33A     -0.679417  
      34A     -0.673527    35A     -0.668805    36A     -0.658916  
      37A     -0.635893    38A     -0.608132    39A     -0.589277  
      40A     -0.585672    41A     -0.581019    42A     -0.561936  
      43A     -0.558593    44A     -0.546069    45A     -0.536593  
      46A     -0.526235    47A     -0.514860    48A     -0.504806  
      49A     -0.503712    50A     -0.471379    51A     -0.457366  
      52A     -0.450375    53A     -0.443627    54A     -0.357393  
      55A     -0.343499  

    Virtual:                                                              

      56A      0.048791    57A      0.056527    58A      0.064509  
      59A      0.067010    60A      0.071632    61A      0.079506  
      62A      0.085126    63A      0.090910    64A      0.095828  
      65A      0.098977    66A      0.103848    67A      0.109922  
      68A      0.115145    69A      0.116065    70A      0.128372  
      71A      0.131923    72A      0.135931    73A      0.141270  
      74A      0.148124    75A      0.153775    76A      0.161947  
      77A      0.172186    78A      0.176766    79A      0.177938  
      80A      0.185639    81A      0.194774    82A      0.197951  
      83A      0.203377    84A      0.208049    85A      0.209890  
      86A      0.219488    87A      0.227210    88A      0.232307  
      89A      0.233707    90A      0.239661    91A      0.244551  
      92A      0.248767    93A      0.257347    94A      0.258915  
      95A      0.267309    96A      0.268925    97A      0.271100  
      98A      0.284437    99A      0.294761   100A      0.295747  
     101A      0.302342   102A      0.307098   103A      0.310905  
     104A      0.318054   105A      0.323451   106A      0.329336  
     107A      0.340852   108A      0.346011   109A      0.347250  
     110A      0.355028   111A      0.355881   112A      0.366851  
     113A      0.368461   114A      0.380136   115A      0.386610  
     116A      0.388559   117A      0.396145   118A      0.403480  
     119A      0.409771   120A      0.412611   121A      0.419725  
     122A      0.424424   123A      0.429399   124A      0.434287  
     125A      0.438274   126A      0.445650   127A      0.455402  
     128A      0.458610   129A      0.474506   130A      0.479271  
     131A      0.483858   132A      0.494611   133A      0.509108  
     134A      0.520298   135A      0.526630   136A      0.537754  
     137A      0.551157   138A      0.564276   139A      0.587124  
     140A      0.597989   141A      0.620236   142A      0.627445  
     143A      0.662163   144A      0.700039   145A      0.715178  
     146A      0.742138   147A      0.750939   148A      0.767083  
     149A      0.777562   150A      0.783950   151A      0.809016  
     152A      0.819607   153A      0.836010   154A      0.850834  
     155A      0.862142   156A      0.866931   157A      0.878932  
     158A      0.891118   159A      0.898198   160A      0.902569  
     161A      0.907711   162A      0.916251   163A      0.917854  
     164A      0.925233   165A      0.925512   166A      0.942174  
     167A      0.943736   168A      0.951458   169A      0.958271  
     170A      0.959423   171A      0.971932   172A      0.976497  
     173A      0.984181   174A      0.991839   175A      0.994294  
     176A      1.008046   177A      1.020538   178A      1.028785  
     179A      1.032447   180A      1.042278   181A      1.059065  
     182A      1.075956   183A      1.095492   184A      1.108513  
     185A      1.115239   186A      1.124114   187A      1.158541  
     188A      1.168541   189A      1.186165   190A      1.190528  
     191A      1.205061   192A      1.215531   193A      1.224158  
     194A      1.243147   195A      1.252099   196A      1.264235  
     197A      1.273590   198A      1.288509   199A      1.305664  
     200A      1.313631   201A      1.324618   202A      1.344546  
     203A      1.364469   204A      1.374866   205A      1.411274  
     206A      1.421185   207A      1.433501   208A      1.447597  
     209A      1.452578   210A      1.469955   211A      1.525908  
     212A      1.531695   213A      1.543261   214A      1.556562  
     215A      1.560378   216A      1.575837   217A      1.587617  
     218A      1.602353   219A      1.618425   220A      1.635155  
     221A      1.644617   222A      1.658532   223A      1.674605  
     224A      1.684423   225A      1.689308   226A      1.700702  
     227A      1.714977   228A      1.720432   229A      1.736091  
     230A      1.761759   231A      1.765527   232A      1.795558  
     233A      1.800458   234A      1.808573   235A      1.845806  
     236A      1.849581   237A      1.867120   238A      1.885417  
     239A      1.888953   240A      1.900043   241A      1.915822  
     242A      1.924950   243A      1.956941   244A      1.957105  
     245A      1.959919   246A      1.971036   247A      1.983868  
     248A      1.994482   249A      2.000813   250A      2.003123  
     251A      2.013856   252A      2.021693   253A      2.028171  
     254A      2.035739   255A      2.049123   256A      2.056076  
     257A      2.071485   258A      2.074651   259A      2.094259  
     260A      2.112412   261A      2.129780   262A      2.140572  
     263A      2.148379   264A      2.161383   265A      2.167516  
     266A      2.172880   267A      2.198840   268A      2.240664  
     269A      2.256737   270A      2.257025   271A      2.276141  
     272A      2.288418   273A      2.344529   274A      2.354787  
     275A      2.378889   276A      2.382094   277A      2.406449  
     278A      2.409142   279A      2.420948   280A      2.427708  
     281A      2.436178   282A      2.456629   283A      2.477487  
     284A      2.501741   285A      2.513256   286A      2.578287  
     287A      2.594565   288A      2.608858   289A      2.643016  
     290A      2.688039   291A      2.721452   292A      2.749920  
     293A      2.764749   294A      2.780465   295A      2.784366  
     296A      2.808826   297A      2.833945   298A      2.847115  
     299A      2.858167   300A      2.871917   301A      2.875966  
     302A      2.891132   303A      2.913695   304A      2.948344  
     305A      3.001835   306A      3.010763   307A      3.013381  
     308A      3.048575   309A      3.108548   310A      3.113516  
     311A      3.127870   312A      3.151779   313A      3.194293  
     314A      3.242568   315A      3.282415   316A      3.290789  
     317A      3.336170   318A      3.380382   319A      3.439717  
     320A      3.543574   321A      3.579386   322A      3.661470  
     323A      3.679403   324A      3.763113   325A      3.804483  
     326A      3.825923   327A      3.947961   328A      4.006655  
     329A      4.060183   330A      4.101546  

    Final Occupation by Irrep:
              A 
    DOCC [    55 ]

  Energy converged.

  @DF-RHF Final Energy:  -723.07973674918480

   => Energetics <=

    Nuclear Repulsion Energy =           1007.8272531620410746
    One-Electron Energy =               -2989.1860585788654134
    Two-Electron Energy =                1258.2790686676396490
    DFT Exchange-Correlation Energy =       0.0000000000000000
    Empirical Dispersion Energy =           0.0000000000000000
    PCM Polarization Energy =               0.0000000000000000
    EFP Energy =                            0.0000000000000000
    Total Energy =                       -723.0797367491848036



Properties will be evaluated at   0.000000,   0.000000,   0.000000 Bohr

Properties computed using the SCF density matrix

  Nuclear Dipole Moment: (a.u.)
     X:    -0.1577      Y:    -1.6730      Z:    -1.3345

  Electronic Dipole Moment: (a.u.)
     X:    -0.9710      Y:     1.4542      Z:     0.5023

  Dipole Moment: (a.u.)
     X:    -1.1287      Y:    -0.2187      Z:    -0.8322     Total:     1.4193

  Dipole Moment: (Debye)
     X:    -2.8688      Y:    -0.5559      Z:    -2.1153     Total:     3.6074


*** tstop() called on ThinkPad-P50 at Mon Jan 15 18:41:58 2018
Module time:
	user time   =     112.70 seconds =       1.88 minutes
	system time =       0.51 seconds =       0.01 minutes
	total time  =         36 seconds =       0.60 minutes
Total time:
	user time   =     112.70 seconds =       1.88 minutes
	system time =       0.51 seconds =       0.01 minutes
	total time  =         36 seconds =       0.60 minutes
   => Loading Basis Set <=

    Name: (JUN-CC-PVDZ AUX)
    Role: JKFIT
    Keyword: DF_BASIS_SCF
    atoms 1, 5, 8, 13, 16, 20-25  entry C          line   145 file /home/junteng/Softwares/psi4conda/share/psi4/basis/jun-cc-pvdz-jkfit.gbs 
    atoms 2-4, 9-12, 17-19, 26-27 entry H          line    69 file /home/junteng/Softwares/psi4conda/share/psi4/basis/jun-cc-pvdz-jkfit.gbs 
    atoms 6-7, 14-15              entry O          line   257 file /home/junteng/Softwares/psi4conda/share/psi4/basis/jun-cc-pvdz-jkfit.gbs 

   => Loading Basis Set <=

    Name: (JUN-CC-PVDZ AUX)
    Role: RIFIT
    Keyword: DF_BASIS_SAPT
    atoms 1, 5, 8, 13, 16, 20-25  entry C          line    99 file /home/junteng/Softwares/psi4conda/share/psi4/basis/jun-cc-pvdz-ri.gbs 
    atoms 2-4, 9-12, 17-19, 26-27 entry H          line    29 file /home/junteng/Softwares/psi4conda/share/psi4/basis/jun-cc-pvdz-ri.gbs 
    atoms 6-7, 14-15              entry O          line   187 file /home/junteng/Softwares/psi4conda/share/psi4/basis/jun-cc-pvdz-ri.gbs 

   => Loading Basis Set <=

    Name: CC-PVTZ-MINAO
    Role: ORBITAL
    Keyword: BASIS
    atoms 1, 5, 8, 13, 16, 20-25  entry C          line   130 file /home/junteng/Softwares/psi4conda/share/psi4/basis/cc-pvtz-minao.gbs 
    atoms 2-4, 9-12, 17-19, 26-27 entry H          line    19 file /home/junteng/Softwares/psi4conda/share/psi4/basis/cc-pvtz-minao.gbs 
    atoms 6-7, 14-15              entry O          line   190 file /home/junteng/Softwares/psi4conda/share/psi4/basis/cc-pvtz-minao.gbs 


*** tstart() called on ThinkPad-P50
*** at Mon Jan 15 18:41:58 2018

	 --------------------------------------------
	                    FISAPT0                  
	                  Rob Parrish                
	 --------------------------------------------

    Do F-SAPT =         Yes
    Do Plot   =          No
    Memory    =      78.580 [GD]

  ==> Localization (IBO) <==

  ==> IBO Localizer 2 <==

    MinAO Basis = CC-PVTZ-MINAO
    Use Ghosts  =       FALSE
    Use Stars   =       FALSE
    Condition   =   1.000E-07
    Power       =           4
    Convergence =   1.000E-12
    Maxiter     =        1000

    @IBO Iter:                   Metric       Gradient
    @IBO    1:   1.9752725895053742E+00   2.539971E+00
    @IBO    2:   2.1818421351544974E+00   1.963566E+00
    @IBO    3:   2.2513243225427613E+00   9.730789E-01
    @IBO    4:   2.2599112839027411E+00   7.746334E-02
    @IBO    5:   2.2599646607836466E+00   1.209874E-03
    @IBO    6:   2.2599646826701862E+00   4.896930E-05
    @IBO    7:   2.2599646827550837E+00   8.812663E-06
    @IBO    8:   2.2599646827585542E+00   1.889214E-06
    @IBO    9:   2.2599646827587208E+00   4.051984E-07
    @IBO   10:   2.2599646827587283E+00   8.669365E-08
    @IBO   11:   2.2599646827587287E+00   1.849431E-08
    @IBO   12:   2.2599646827587287E+00   3.933581E-09
    @IBO   13:   2.2599646827587287E+00   8.342174E-10
    @IBO   14:   2.2599646827587287E+00   1.764418E-10
    @IBO   15:   2.2599646827587287E+00   3.722780E-11
    @IBO   16:   2.2599646827587287E+00   7.837861E-12
    @IBO   17:   2.2599646827587287E+00   1.647046E-12
    @IBO   18:   2.2599646827587287E+00   3.455388E-13

    IBO Localizer 2 converged.

  ==> Partitioning <==

   => Atomic Partitioning <= 

    Monomer A:   4 atoms
    Monomer B:   7 atoms
    Monomer C:  16 atoms

   => Link Bond Identification <=

    Link Bond Selection = AUTOMATIC

    Charge Completeness = 0.800

    Total Link Bonds = 2

    --------------------------
    N     Orb Type Aind1 Aind2
    --------------------------
    1      30   BC     5    21
    2      45   AC     1    25
    --------------------------

   => Link Bond Assignment <=

    Link Bond Assignment      = C

   => Partition Summary <=

    Monomer A:  0 charge,   8 protons,   8 electrons,   4 docc
    Monomer B:  0 charge,  30 protons,  30 electrons,  15 docc
    Monomer C:  0 charge,  72 protons,  72 electrons,  36 docc

  ==> Overlap Integrals <==

  ==> Kinetic Integrals <==

  ==> Nuclear Integrals <==

    Nuclear Repulsion Tot:   1.0078272531620412E+03 [Eh]

  ==> Coulomb Integrals <==

  ==> DFJK: Density-Fitted J/K Matrices <==

    J tasked:                  Yes
    K tasked:                  Yes
    wK tasked:                  No
    OpenMP threads:              4
    Integrals threads:           4
    Memory (MB):            643730
    Algorithm:                Core
    Integral Cache:           NONE
    Schwarz Cutoff:          1E-12
    Fitting Condition:       1E-12

   => Auxiliary Basis Set <=

  Basis Set: (JUN-CC-PVDZ AUX)
    Blend: JUN-CC-PVDZ-JKFIT
    Number of shells: 513
    Number of basis function: 1461
    Number of Cartesian functions: 1665
    Spherical Harmonics?: true
    Max angular momentum: 3

  ==> Relaxed SCF Equations <==

  ==> SCF A: <==

    Maxiter =          50
    E Tol   =   1.000E-06
    D Tol   =   1.000E-08

    Max DIIS Vectors = 5

    Iter   N:                        E          dE         |D|
    Iter   1:  -3.6331882821188223E+01  -3.633E+01   7.044E-04 
    Iter   2:  -3.6335076326141966E+01  -3.194E-03   5.880E-05 DIIS
    Iter   3:  -3.6335150963751147E+01  -7.464E-05   1.181E-05 DIIS
    Iter   4:  -3.6335155168103135E+01  -4.204E-06   2.391E-06 DIIS
    Iter   5:  -3.6335155319154005E+01  -1.511E-07   5.164E-07 DIIS
    Iter   6:  -3.6335155325854984E+01  -6.701E-09   7.735E-08 DIIS
    Iter   7:  -3.6335155326032456E+01  -1.775E-10   1.129E-08 DIIS
    Iter   8:  -3.6335155326036173E+01  -3.716E-12   1.384E-09 DIIS

    FISAPTSCF Converged.

    Final SCF Energy:  -3.6335155326036173E+01 [Eh]

   => Occupied Orbital Energies <=

       1  -11.234445     2   -0.849853     3   -0.557315  
       4   -0.555950  

   => Virtual Orbital Energies <=

       5    0.031362     6    0.053397     7    0.060430  
       8    0.067765     9    0.075154    10    0.077129  
      11    0.081495    12    0.095921    13    0.098089  
      14    0.102986    15    0.105605    16    0.115205  
      17    0.118663    18    0.121689    19    0.124100  
      20    0.130020    21    0.136572    22    0.139892  
      23    0.144499    24    0.150499    25    0.154162  
      26    0.159590    27    0.164511    28    0.176296  
      29    0.179511    30    0.181088    31    0.198610  
      32    0.200922    33    0.203554    34    0.208822  
      35    0.213872    36    0.216481    37    0.227237  
      38    0.232980    39    0.234388    40    0.241968  
      41    0.255698    42    0.257441    43    0.262080  
      44    0.267220    45    0.269890    46    0.274457  
      47    0.275906    48    0.281049    49    0.290707  
      50    0.301330    51    0.307706    52    0.310190  
      53    0.314686    54    0.321058    55    0.323684  
      56    0.337625    57    0.340765    58    0.342034  
      59    0.350190    60    0.351793    61    0.360590  
      62    0.364457    63    0.375276    64    0.383724  
      65    0.385774    66    0.393193    67    0.395863  
      68    0.404592    69    0.412033    70    0.414782  
      71    0.423241    72    0.426527    73    0.431393  
      74    0.448600    75    0.450566    76    0.459843  
      77    0.471198    78    0.485048    79    0.492212  
      80    0.501326    81    0.511831    82    0.513277  
      83    0.538532    84    0.555551    85    0.567893  
      86    0.571779    87    0.588498    88    0.607779  
      89    0.623987    90    0.626402    91    0.630108  
      92    0.640591    93    0.646770    94    0.690175  
      95    0.709474    96    0.718136    97    0.756440  
      98    0.760034    99    0.784603   100    0.793839  
     101    0.799797   102    0.814106   103    0.833672  
     104    0.848607   105    0.863310   106    0.869657  
     107    0.886202   108    0.899151   109    0.907847  
     110    0.919835   111    0.921441   112    0.927768  
     113    0.935535   114    0.938737   115    0.944900  
     116    0.950531   117    0.954808   118    0.962016  
     119    0.969739   120    0.976615   121    0.984998  
     122    0.988523   123    0.997856   124    1.004568  
     125    1.006498   126    1.034744   127    1.039816  
     128    1.050894   129    1.068558   130    1.080232  
     131    1.091801   132    1.124762   133    1.147507  
     134    1.160662   135    1.163846   136    1.174745  
     137    1.207018   138    1.212903   139    1.224817  
     140    1.236697   141    1.274194   142    1.276372  
     143    1.297851   144    1.305481   145    1.316140  
     146    1.328303   147    1.342462   148    1.359440  
     149    1.379292   150    1.397267   151    1.412081  
     152    1.423642   153    1.445279   154    1.465916  
     155    1.488907   156    1.514732   157    1.527664  
     158    1.550689   159    1.552264   160    1.565649  
     161    1.585807   162    1.587682   163    1.611979  
     164    1.630712   165    1.648801   166    1.655637  
     167    1.657675   168    1.686349   169    1.698196  
     170    1.699320   171    1.732207   172    1.759515  
     173    1.770111   174    1.777460   175    1.791312  
     176    1.804843   177    1.812405   178    1.840122  
     179    1.843676   180    1.859901   181    1.882140  
     182    1.890770   183    1.919811   184    1.926889  
     185    1.943253   186    1.949816   187    1.952336  
     188    1.966781   189    1.977732   190    2.000632  
     191    2.005522   192    2.011521   193    2.020418  
     194    2.024714   195    2.038589   196    2.051420  
     197    2.063679   198    2.070970   199    2.077050  
     200    2.082950   201    2.111072   202    2.119503  
     203    2.126681   204    2.146189   205    2.161408  
     206    2.173240   207    2.177378   208    2.193628  
     209    2.197828   210    2.235666   211    2.244129  
     212    2.269376   213    2.289987   214    2.292238  
     215    2.326327   216    2.334174   217    2.355906  
     218    2.357173   219    2.372450   220    2.386238  
     221    2.388625   222    2.410156   223    2.415573  
     224    2.430367   225    2.443644   226    2.458975  
     227    2.509014   228    2.528146   229    2.536181  
     230    2.580891   231    2.585532   232    2.641757  
     233    2.662007   234    2.671938   235    2.688527  
     236    2.697550   237    2.701315   238    2.715210  
     239    2.758790   240    2.788904   241    2.799963  
     242    2.821154   243    2.834531   244    2.841260  
     245    2.865043   246    2.873536   247    2.879810  
     248    2.896961   249    2.903480   250    2.923726  
     251    2.957992   252    2.970870   253    3.033296  
     254    3.043792   255    3.074920   256    3.103090  
     257    3.142883   258    3.162933   259    3.212525  
     260    3.273748   261    3.323131   262    3.374372  
     263    3.471407   264    3.570995   265    3.625806  
     266    3.679012   267    3.754599   268    3.815758  
     269    3.895103   270    3.960975   271    3.979836  
     272    4.048655   273    4.147894   274    4.271880  
     275    4.430703   276    4.506496   277    4.572199  
     278    4.734625   279    4.964717   280    5.039602  
     281    5.063963   282    5.216798   283    5.332271  
     284    5.540519   285    5.559753   286    5.621342  
     287    5.929975   288    6.149801   289    6.355225  
     290    6.728363   291   13.405540   292   18.428681  
     293   33.417579   294   33.479311  

  ==> SCF B: <==

    Maxiter =          50
    E Tol   =   1.000E-06
    D Tol   =   1.000E-08

    Max DIIS Vectors = 5

    Iter   N:                        E          dE         |D|
    Iter   1:  -2.2425404968662963E+02  -2.243E+02   1.725E-03 
    Iter   2:  -2.2427338731558552E+02  -1.934E-02   1.656E-04 DIIS
    Iter   3:  -2.2427410005369237E+02  -7.127E-04   4.552E-05 DIIS
    Iter   4:  -2.2427415349027828E+02  -5.344E-05   2.337E-05 DIIS
    Iter   5:  -2.2427416039547492E+02  -6.905E-06   4.547E-06 DIIS
    Iter   6:  -2.2427416088368687E+02  -4.882E-07   1.770E-06 DIIS
    Iter   7:  -2.2427416092808636E+02  -4.440E-08   6.144E-07 DIIS
    Iter   8:  -2.2427416093352946E+02  -5.443E-09   1.521E-07 DIIS
    Iter   9:  -2.2427416093396542E+02  -4.360E-10   6.868E-08 DIIS
    Iter  10:  -2.2427416093405873E+02  -9.331E-11   2.286E-08 DIIS
    Iter  11:  -2.2427416093407166E+02  -1.293E-11   1.304E-08 DIIS
    Iter  12:  -2.2427416093407385E+02  -2.188E-12   4.239E-09 DIIS

    FISAPTSCF Converged.

    Final SCF Energy:  -2.2427416093407385E+02 [Eh]

   => Occupied Orbital Energies <=

       1  -20.615172     2  -20.552179     3  -11.395760  
       4  -11.298848     5   -1.446613     6   -1.361640  
       7   -0.967061     8   -0.773194     9   -0.675229  
      10   -0.665952    11   -0.627838    12   -0.541757  
      13   -0.541402    14   -0.483111    15   -0.466435  

   => Virtual Orbital Energies <=

      16    0.006675    17    0.055632    18    0.063993  
      19    0.070335    20    0.075085    21    0.077408  
      22    0.084551    23    0.090715    24    0.093933  
      25    0.098959    26    0.105353    27    0.107120  
      28    0.110952    29    0.119861    30    0.120951  
      31    0.128975    32    0.131319    33    0.136903  
      34    0.143855    35    0.148278    36    0.157632  
      37    0.165518    38    0.176266    39    0.177657  
      40    0.181505    41    0.190932    42    0.198777  
      43    0.203705    44    0.206120    45    0.211328  
      46    0.215418    47    0.224024    48    0.234406  
      49    0.236328    50    0.243189    51    0.245792  
      52    0.252309    53    0.256834    54    0.264449  
      55    0.269682    56    0.274624    57    0.277237  
      58    0.277696    59    0.286960    60    0.302730  
      61    0.303872    62    0.308942    63    0.310768  
      64    0.320563    65    0.323495    66    0.329233  
      67    0.334654    68    0.342487    69    0.351981  
      70    0.360360    71    0.365355    72    0.367661  
      73    0.372314    74    0.377605    75    0.382602  
      76    0.391702    77    0.399919    78    0.403495  
      79    0.405586    80    0.412154    81    0.421199  
      82    0.424115    83    0.426837    84    0.435530  
      85    0.445498    86    0.452606    87    0.459781  
      88    0.462739    89    0.465854    90    0.483099  
      91    0.491977    92    0.502092    93    0.507958  
      94    0.521616    95    0.530782    96    0.549580  
      97    0.560178    98    0.563619    99    0.573317  
     100    0.586515   101    0.607585   102    0.626881  
     103    0.635343   104    0.652430   105    0.680315  
     106    0.697834   107    0.715528   108    0.725715  
     109    0.773604   110    0.792016   111    0.793607  
     112    0.811062   113    0.826369   114    0.831871  
     115    0.858062   116    0.865980   117    0.869965  
     118    0.889683   119    0.901666   120    0.907412  
     121    0.912486   122    0.924591   123    0.930554  
     124    0.937309   125    0.939712   126    0.947378  
     127    0.956067   128    0.961096   129    0.968398  
     130    0.980704   131    0.987951   132    1.000674  
     133    1.001167   134    1.015240   135    1.025538  
     136    1.035850   137    1.046883   138    1.064035  
     139    1.070239   140    1.081897   141    1.098864  
     142    1.114926   143    1.139073   144    1.181465  
     145    1.186302   146    1.198245   147    1.207439  
     148    1.216781   149    1.228421   150    1.251978  
     151    1.254691   152    1.270413   153    1.280516  
     154    1.299011   155    1.312778   156    1.317658  
     157    1.330420   158    1.336657   159    1.357101  
     160    1.374309   161    1.379055   162    1.399351  
     163    1.424099   164    1.442326   165    1.453837  
     166    1.456010   167    1.477045   168    1.500014  
     169    1.514341   170    1.533937   171    1.541747  
     172    1.561322   173    1.581608   174    1.591456  
     175    1.604520   176    1.615201   177    1.627749  
     178    1.640736   179    1.659225   180    1.663351  
     181    1.669581   182    1.681399   183    1.695151  
     184    1.706611   185    1.716705   186    1.725333  
     187    1.761759   188    1.764774   189    1.777236  
     190    1.791210   191    1.812787   192    1.817453  
     193    1.826783   194    1.842101   195    1.863944  
     196    1.872076   197    1.895263   198    1.900818  
     199    1.920375   200    1.930251   201    1.935099  
     202    1.943433   203    1.964305   204    1.971357  
     205    1.997074   206    1.998551   207    2.003967  
     208    2.007169   209    2.017789   210    2.030710  
     211    2.040382   212    2.049658   213    2.059105  
     214    2.066176   215    2.082877   216    2.093895  
     217    2.102585   218    2.122702   219    2.128222  
     220    2.130362   221    2.161199   222    2.166044  
     223    2.177995   224    2.189366   225    2.201300  
     226    2.237979   227    2.260644   228    2.288045  
     229    2.307177   230    2.320899   231    2.323740  
     232    2.344006   233    2.375613   234    2.384291  
     235    2.391801   236    2.409682   237    2.417432  
     238    2.426571   239    2.434212   240    2.449638  
     241    2.452894   242    2.465602   243    2.498564  
     244    2.514942   245    2.609483   246    2.635778  
     247    2.644151   248    2.679238   249    2.715883  
     250    2.719889   251    2.742745   252    2.777632  
     253    2.786038   254    2.793308   255    2.800587  
     256    2.822365   257    2.833231   258    2.842226  
     259    2.850090   260    2.863850   261    2.886684  
     262    2.897617   263    2.913420   264    2.988371  
     265    3.009993   266    3.019653   267    3.052595  
     268    3.067711   269    3.116243   270    3.152481  
     271    3.176054   272    3.212593   273    3.247221  
     274    3.254263   275    3.288022   276    3.295587  
     277    3.341585   278    3.385556   279    3.449330  
     280    3.549503   281    3.582073   282    3.647440  
     283    3.673689   284    3.704905   285    3.785346  
     286    3.828226   287    3.945715   288    3.983800  
     289    4.054025   290    4.092939   291    4.116260  
     292    4.494002   293    4.553329   294   13.276972  

  ==> Frozen Core <==


    ------------------
    Range      A     B
    ------------------
    nbf      330   330
    nmo      294   294
    nocc       4    15
    nvir     290   279
    nfocc      1     4
    naocc      3    11
    navir    290   279
    nfvir      0     0
    ------------------

  ==> Unification <==

  ==> dHF <==

    E ABC(HF) =  -7.2307973674918480E+02 [Eh]
    E AC(0)   =  -4.9502851214280213E+02 [Eh]
    E BC(0)   =  -6.8295581867735768E+02 [Eh]
    E A(0)    =  -2.5021150475855208E+01 [Eh]
    E B(0)    =  -2.1261944511128951E+02 [Eh]
    E AC(HF)  =  -4.9502523963795443E+02 [Eh]
    E BC(HF)  =  -6.8293570742991301E+02 [Eh]
    E AB(HF)  =  -2.3760524812312596E+02 [Eh]
    E A(HF)   =  -2.5006111898116345E+01 [Eh]
    E B(HF)   =  -2.1259062895338565E+02 [Eh]
    E C       =  -4.5488971759030568E+02 [Eh]
    E HF      =   1.4876480669329339E-02 [Eh]

  ==> Electrostatics <==

    Elst10,r            =     0.005948033384 [Eh]

  ==> Exchange <==

    Exch10(S^2)         =     0.010455881240 [Eh]
    Exch10              =     0.010521274567 [Eh]

  ==> Induction <==

    Ind20,u (A<-B)      =    -0.001614864620 [Eh]
    Ind20,u (B<-A)      =    -0.000871724746 [Eh]
    Ind20,u             =    -0.002486589365 [Eh]
    Exch-Ind20,u (A<-B) =     0.001132872357 [Eh]
    Exch-Ind20,u (B<-A) =     0.000528216534 [Eh]
    Exch-Ind20,u        =     0.001661088891 [Eh]

  ==> CPHF Iterations <==

    Maxiter     =          50
    Convergence =   1.000E-08

    -----------------------------------------
    Iter   Monomer A    Monomer B    Time [s]
    -----------------------------------------
    1      1.252E-01    2.304E-01           4
    2      1.298E-02    7.547E-02           7
    3      3.407E-03    1.887E-02          10
    4      4.601E-04    6.424E-03          13
    5      5.521E-05    2.482E-03          16
    6      9.302E-06    8.762E-04          20
    7      1.529E-06    2.655E-04          23
    8      2.350E-07    1.055E-04          26
    9      2.517E-08    2.431E-05          29
    10     1.679E-09*   5.960E-06          33
    11     1.679E-09*   1.529E-06          34
    12     1.679E-09*   2.197E-07          36
    13     1.679E-09*   4.715E-08          38
    14     1.679E-09*   1.071E-08          39
    15     1.679E-09*   2.118E-09*         41
    -----------------------------------------

    Ind20,r (A<-B)      =    -0.001870665961 [Eh]
    Ind20,r (B<-A)      =    -0.001049929874 [Eh]
    Ind20,r             =    -0.002920595835 [Eh]
    Exch-Ind20,r (A<-B) =     0.001357943760 [Eh]
    Exch-Ind20,r (B<-A) =     0.000707623522 [Eh]
    Exch-Ind20,r        =     0.002065567283 [Eh]

  ==> F-SAPT Localization (IBO) <==

  Local Orbitals for Monomer A:

  ==> IBO Localizer 2 <==

    MinAO Basis = CC-PVTZ-MINAO
    Use Ghosts  =       FALSE
    Use Stars   =       FALSE
    Condition   =   1.000E-07
    Power       =           4
    Convergence =   1.000E-12
    Maxiter     =        1000

    @IBO Iter:                   Metric       Gradient
    @IBO    1:   1.0663183258868887E+00   2.203996E-02
    @IBO    2:   1.0841900229996497E+00   5.056266E-03
    @IBO    3:   1.0842084279776247E+00   3.545711E-06
    @IBO    4:   1.0842084279866591E+00   2.947382E-10
    @IBO    5:   1.0842084279866591E+00   1.338289E-13

    IBO Localizer 2 converged.

  Local Orbitals for Monomer B:

  ==> IBO Localizer 2 <==

    MinAO Basis = CC-PVTZ-MINAO
    Use Ghosts  =       FALSE
    Use Stars   =       FALSE
    Condition   =   1.000E-07
    Power       =           4
    Convergence =   1.000E-12
    Maxiter     =        1000

    @IBO Iter:                   Metric       Gradient
    @IBO    1:   1.4799984123709873E+00   1.566358E+00
    @IBO    2:   1.6742593423989227E+00   1.079763E+00
    @IBO    3:   1.7086034789790547E+00   2.909634E-01
    @IBO    4:   1.7098082017085503E+00   9.768252E-03
    @IBO    5:   1.7098111981219732E+00   3.648635E-04
    @IBO    6:   1.7098111999914007E+00   5.469975E-06
    @IBO    7:   1.7098111999919936E+00   1.471524E-07
    @IBO    8:   1.7098111999919940E+00   3.991054E-09
    @IBO    9:   1.7098111999919943E+00   1.317845E-10
    @IBO   10:   1.7098111999919940E+00   4.903536E-12
    @IBO   11:   1.7098111999919940E+00   1.907517E-13

    IBO Localizer 2 converged.

  ==> F-SAPT Electrostatics <==

  ==> DFERI: Density Fitted 3-Index Tensors <==

    Schwarz cutoff =   0.000E+00
    J cutoff       =   1.000E-12
    Mem (GB)       =         628

   => Auxiliary Basis <=

  Basis Set: (JUN-CC-PVDZ AUX)
    Blend: JUN-CC-PVDZ-JKFIT
    Number of shells: 513
    Number of basis function: 1461
    Number of Cartesian functions: 1665
    Spherical Harmonics?: true
    Max angular momentum: 3

    Elst10,r            =     0.005948033589 [Eh]

  ==> F-SAPT Exchange <==

  ==> DFERI: Density Fitted 3-Index Tensors <==

    Schwarz cutoff =   0.000E+00
    J cutoff       =   1.000E-12
    Mem (GB)       =         628

   => Auxiliary Basis <=

  Basis Set: (JUN-CC-PVDZ AUX)
    Blend: JUN-CC-PVDZ-JKFIT
    Number of shells: 513
    Number of basis function: 1461
    Number of Cartesian functions: 1665
    Spherical Harmonics?: true
    Max angular momentum: 3

    Exch10(S^2)         =     0.010455881240 [Eh]

    Scaling F-SAPT Exch10(S^2) by   1.006E+00 to match Exch10

  ==> F-SAPT Induction <==

  ==> DFERI: Density Fitted 3-Index Tensors <==

    Schwarz cutoff =   0.000E+00
    J cutoff       =   1.000E-12
    Mem (GB)       =         628

   => Auxiliary Basis <=

  Basis Set: (JUN-CC-PVDZ AUX)
    Blend: JUN-CC-PVDZ-JKFIT
    Number of shells: 513
    Number of basis function: 1461
    Number of Cartesian functions: 1665
    Spherical Harmonics?: true
    Max angular momentum: 3

    Ind20,u (A<-B)      =    -0.001614864621 [Eh]
    Ind20,u (B<-A)      =    -0.000871724745 [Eh]
    Ind20,u             =    -0.002486589366 [Eh]
    Exch-Ind20,u (A<-B) =     0.001132872356 [Eh]
    Exch-Ind20,u (B<-A) =     0.000528216534 [Eh]
    Exch-Ind20,u        =     0.001661088890 [Eh]

    Scaling for delta HF        =   1.863E+00
    Scaling for response (A<-B) =   1.064E+00
    Scaling for response (B<-A) =   9.965E-01
    Scaling for total (A<-B)    =   1.982E+00
    Scaling for total (B<-A)    =   1.856E+00

  ==> F-SAPT Dispersion <==

  ==> DFERI: Density Fitted 3-Index Tensors <==

    Schwarz cutoff =   0.000E+00
    J cutoff       =   1.000E-12
    Mem (GB)       =         628

   => Auxiliary Basis <=

  Basis Set: (JUN-CC-PVDZ AUX)
    Blend: JUN-CC-PVDZ-RI
    Number of shells: 387
    Number of basis function: 1143
    Number of Cartesian functions: 1320
    Spherical Harmonics?: true
    Max angular momentum: 3

    Disp20              =    -0.003683577558 [Eh]
    Exch-Disp20         =     0.000634231944 [Eh]

  ==> F-SAPT Output <==

    F-SAPT Data Filepath = fsapt/

  ==> Results <==


    SAPT Results  
  --------------------------------------------------------------------------------------------------------
    Electrostatics                  5.94803338 [mEh]       3.73244746 [kcal/mol]      15.61656165 [kJ/mol]
      Elst10,r                      5.94803338 [mEh]       3.73244746 [kcal/mol]      15.61656165 [kJ/mol]

    Exchange                       10.52127457 [mEh]       6.60219974 [kcal/mol]      27.62360638 [kJ/mol]
      Exch10                       10.52127457 [mEh]       6.60219974 [kcal/mol]      27.62360638 [kJ/mol]
      Exch10(S^2)                  10.45588124 [mEh]       6.56116481 [kcal/mol]      27.45191620 [kJ/mol]

    Induction                      -1.59282728 [mEh]      -0.99951425 [kcal/mol]      -4.18196803 [kJ/mol]
      Ind20,r                      -2.92059583 [mEh]      -1.83270163 [kcal/mol]      -7.66802436 [kJ/mol]
      Exch-Ind20,r                  2.06556728 [mEh]       1.29616309 [kcal/mol]       5.42314690 [kJ/mol]
      delta HF,r (2)               -0.73779873 [mEh]      -0.46297571 [kcal/mol]      -1.93709057 [kJ/mol]
      Induction (A<-B)             -0.95514694 [mEh]      -0.59936378 [kcal/mol]      -2.50773830 [kJ/mol]
      Induction (B<-A)             -0.63768034 [mEh]      -0.40015047 [kcal/mol]      -1.67422973 [kJ/mol]

    Dispersion                     -3.04934561 [mEh]      -1.91349334 [kcal/mol]      -8.00605691 [kJ/mol]
      Disp20                       -3.68357756 [mEh]      -2.31147991 [kcal/mol]      -9.67123288 [kJ/mol]
      Exch-Disp20                   0.63423194 [mEh]       0.39798657 [kcal/mol]       1.66517597 [kJ/mol]

  Total HF                         14.87648067 [mEh]       9.33513295 [kcal/mol]      39.05820000 [kJ/mol]
  Total SAPT0                      11.82713506 [mEh]       7.42163961 [kcal/mol]      31.05214309 [kJ/mol]

  --------------------------------------------------------------------------------------------------------
    Han Solo: This is *not* gonna work.
    Luke Skywalker: Why didn't you say so before?
    Han Solo: I *did* say so before.

*** tstop() called on ThinkPad-P50 at Mon Jan 15 18:43:47 2018
Module time:
	user time   =     382.49 seconds =       6.37 minutes
	system time =       1.64 seconds =       0.03 minutes
	total time  =        109 seconds =       1.82 minutes
Total time:
	user time   =     496.22 seconds =       8.27 minutes
	system time =       2.16 seconds =       0.04 minutes
	total time  =        145 seconds =       2.42 minutes

*** Psi4 exiting successfully. Buy a developer a beer!
