r0213.ten.osc.edu 10.25.156
Q-Chem Developer Version! Running on 10.25.156.*
                  Welcome to Q-Chem
     A Quantum Leap Into The Future Of Chemistry


 Q-Chem 5.0, Q-Chem, Inc., Pleasanton, CA (2017)

 Yihan Shao,  Zhengting Gan,  E. Epifanovsky,  A. T. B. Gilbert,  M. Wormit,  
 J. Kussmann,  A. W. Lange,  A. Behn,  Jia Deng,  Xintian Feng,  D. Ghosh,  
 M. Goldey,  P. R. Horn,  L. D. Jacobson,  I. Kaliman,  T. Kus,  A. Landau,  
 Jie Liu,  E. I. Proynov,  R. M. Richard,  R. P. Steele,  E. J. Sundstrom,  
 H. L. Woodcock III,  P. M. Zimmerman,  D. Zuev,  B. Albrecht,  E. Alguire,  
 S. A. Baeppler,  Z. Benda,  Y. A. Bernard,  E. J. Berquist,  K. B. Bravaya,  
 D. Casanova,  Chun-Min Chang,  Yunqing Chen,  A. Chien,  K. D. Closser,  
 M. P. Coons,  S. Dasgupta,  M. Diedenhofen,  Hainam Do,  R. G. Edgar,  
 Po-Tung Fang,  S. Fatehi,  Qingguo Feng,  Qinghui Ge,  A. Ghysels,  
 J. Gomes,  J. Gonthier,  A. Gunina,  M. W. D. Hanson-Heine,  
 P. H. P. Harbach,  A. W. Hauser,  J. E. Herr,  E. G. Hohenstein,  
 Z. C. Holden,  Kerwin Hui,  T.-C. Jagau,  Hyunjun Ji,  B. Kaduk,  
 K. Khistyaev,  Jaehoon Kim,  P. Klunzinger,  K. Koh,  D. Kosenkov,  
 T. Kowalczyk,  C. M. Krauter,  A. Kunitsa,  Ka Un Lao,  A. Laurent,  
 K. V. Lawler,  Joonho Lee,  D. Lefrancois,  S. Lehtola,  D. S. Levine,  
 Yi-Pei Li,  You-Sheng Lin,  Fenglai Liu,  E. Livshits,  A. Luenser,  
 P. Manohar,  E. Mansoor,  S. F. Manzer,  Shan-Ping Mao,  Yuezhi Mao,  
 N. Mardirossian,  A. V. Marenich,  L. A. Martinez-Martinez,  S. A. Maurer,  
 N. J. Mayhall,  S. C. McKenzie,  J.-M. Mewes,  A. F. Morrison,  K. Nanda,  
 T. S. Nguyen-Beck,  R. Olivares-Amaya,  J. A. Parkhill,  T. M. Perrine,  
 F. Plasser,  S. Prager,  A. Prociuk,  D. R. Rehn,  F. Rob,  M. Schneider,  
 N. Sergueev,  S. M. Sharada,  S. Sharma,  D. W. Small,  T. Stauch,  
 T. Stein,  Yu-Chuan Su,  A. J. W. Thom,  T. Tsuchimochi,  L. Vogt,  
 O. Vydrov,  M. A. Watson,  J. Wenzel,  M. de Wergifosse,  T. A. Wesolowski,  
 A. White,  J. Witte,  A. Yamada,  Jun Yang,  K. Yao,  S. Yeganeh,  
 S. R. Yost,  Zhi-Qiang You,  A. Zech,  Igor Ying Zhang,  Xing Zhang,  
 Yan Zhao,  Ying Zhu,  B. R. Brooks,  G. K. L. Chan,  C. J. Cramer,  
 M. S. Gordon,  W. J. Hehre,  A. Klamt,  M. W. Schmidt,  C. D. Sherrill,  
 D. G. Truhlar,  A. Aspuru-Guzik,  R. Baer,  A. T. Bell,  N. A. Besley,  
 Jeng-Da Chai,  A. Dreuw,  B. D. Dunietz,  T. R. Furlani,  Chao-Ping Hsu,  
 Yousung Jung,  Jing Kong,  D. S. Lambrecht,  WanZhen Liang,  C. Ochsenfeld,  
 V. A. Rassolov,  L. V. Slipchenko,  J. E. Subotnik,  T. Van Voorhis,  
 J. M. Herbert,  A. I. Krylov,  P. M. W. Gill,  M. Head-Gordon

 Contributors to earlier versions of Q-Chem not listed above: 
 R. D. Adamson,  B. Austin,  J. Baker,  G. J. O. Beran,  K. Brandhorst,  
 S. T. Brown,  E. F. C. Byrd,  A. K. Chakraborty,  C.-L. Cheng,  
 Siu Hung Chien,  D. M. Chipman,  D. L. Crittenden,  H. Dachsel,  
 R. A. DiStasio Jr.,  R. J. Doerksen,  A. D. Dutoi,  L. Fusti-Molnar,  
 W. A. Goddard III,  A. Golubeva-Zadorozhnaya,  S. R. Gwaltney,  G. Hawkins,  
 A. Heyden,  S. Hirata,  G. Kedziora,  F. J. Keil,  C. Kelley,  Jihan Kim,  
 R. A. King,  R. Z. Khaliullin,  P. P. Korambath,  W. Kurlancheek,  
 A. M. Lee,  M. S. Lee,  S. V. Levchenko,  Ching Yeh Lin,  D. Liotard,  
 R. C. Lochan,  I. Lotan,  P. E. Maslen,  N. Nair,  D. P. O'Neill,  
 D. Neuhauser,  E. Neuscamman,  C. M. Oana,  R. Olson,  B. Peters,  
 R. Peverati,  P. A. Pieniazek,  Y. M. Rhee,  J. Ritchie,  M. A. Rohrdanz,  
 E. Rosta,  N. J. Russ,  H. F. Schaefer III,  N. E. Schultz,  N. Shenvi,  
 A. C. Simmonett,  A. Sodt,  D. Stuck,  K. S. Thanthiriwatte,  V. Vanovschi,  
 Tao Wang,  A. Warshel,  C. F. Williams,  Q. Wu,  X. Xu,  W. Zhang

 Please cite Q-Chem as follows:
 Y. Shao et al., Mol. Phys. 113, 184-215 (2015)
 DOI: 10.1080/00268976.2014.952696

 Q-Chem 5.0.1 for Intel X86 EM64T Linux

 Parts of Q-Chem use Armadillo 5.200.1 (Boston Tea Smuggler).
 http://arma.sourceforge.net/

 Q-Chem begins on Tue Oct 24 03:12:25 2017  

Host: r0213.ten.osc.edu
0

     Scratch files written to /tmp/pbstmp.1324356/02//
Processing $rem in /users/PAS0291/osu6415/.qchemrc.
molden_format             true

Checking the input file for inconsistencies... 	...done.

--------------------------------------------------------------
User input:
--------------------------------------------------------------
$molecule
0 1
C -0.28306514 -1.08701608 0.53836837
C -0.78188609 0.38614421 0.82615098
C 1.12412054 -1.29755173 0.02806117
C 0.00884486 1.53872616 0.20732261
O 2.02502992 -0.84503192 0.93113802
O 1.43063834 -1.86774686 -0.98917197
O 0.87863737 1.15029551 -0.74004909
O -0.17922453 2.69920205 0.49008180
C 1.56211841 2.18869756 -1.46153031
C 3.40586320 -0.95700056 0.55093223
C -1.40481553 -1.69678271 -0.36438987
C -1.44424425 -0.91657815 -1.66792361
C -1.93982246 0.29502422 -1.39868193
C -2.20628892 0.35669792 0.09824012
C -2.64350768 -1.10403741 0.34709054
C -0.92404208 0.66055229 2.33085397
H 0.84385060 2.82017496 -1.98700093
H 3.59247457 -0.39152517 -0.36399668
H -2.01745172 1.13823829 -2.07277370
H 2.20371500 1.66938369 -2.17007802
H 2.15078882 2.80442114 -0.78026692
H 3.97255530 -0.53886036 1.38021917
H 3.67795342 -2.00097689 0.38782758
H -2.85864877 1.15631875 0.44528118
H -1.34206530 -2.77984411 -0.45495646
H -1.60381428 -0.05878695 2.79137348
H 0.04513476 0.57725858 2.82939227
H -1.31030385 1.66606640 2.49965858
H -3.57646515 -1.34384331 -0.16496332
H -2.72410303 -1.37940549 1.40140750
H -1.03286655 -1.26979889 -2.60255063
H -0.30372801 -1.61052684 1.49984940
$end

$rem
sym_ignore      true
jobtype         opt
method          b3lyp
basis           6-311++G(d,p)
dft_d           d3_op
mem_total       62000
MEM_STATIC      4000
ao2mo_disk      350000
max_scf_cycles  200
geom_opt_max_cycles 1000
geom_opt_tol_displacement 1
GEOM_OPT_TOL_GRADIENT       1
GEOM_OPT_TOL_ENERGY         1
$end

--------------------------------------------------------------
 Adding empirical dispersion correction 
 ----------------------------------------------------------------
 Doing -D3(op) with
 s6 =   1.00000
 s8 =   0.78311
 a1 =   0.30000
 a2 =   4.25000
 n  =  10.00000
 -D3 energy without 3body term =     -0.0407618158 hartrees
 ----------------------------------------------------------------
             Standard Nuclear Orientation (Angstroms)
    I     Atom           X                Y                Z
 ----------------------------------------------------------------
    1      C      -0.2830651400    -1.0870160800     0.5383683700
    2      C      -0.7818860900     0.3861442100     0.8261509800
    3      C       1.1241205400    -1.2975517300     0.0280611700
    4      C       0.0088448600     1.5387261600     0.2073226100
    5      O       2.0250299200    -0.8450319200     0.9311380200
    6      O       1.4306383400    -1.8677468600    -0.9891719700
    7      O       0.8786373700     1.1502955100    -0.7400490900
    8      O      -0.1792245300     2.6992020500     0.4900818000
    9      C       1.5621184100     2.1886975600    -1.4615303100
   10      C       3.4058632000    -0.9570005600     0.5509322300
   11      C      -1.4048155300    -1.6967827100    -0.3643898700
   12      C      -1.4442442500    -0.9165781500    -1.6679236100
   13      C      -1.9398224600     0.2950242200    -1.3986819300
   14      C      -2.2062889200     0.3566979200     0.0982401200
   15      C      -2.6435076800    -1.1040374100     0.3470905400
   16      C      -0.9240420800     0.6605522900     2.3308539700
   17      H       0.8438506000     2.8201749600    -1.9870009300
   18      H       3.5924745700    -0.3915251700    -0.3639966800
   19      H      -2.0174517200     1.1382382900    -2.0727737000
   20      H       2.2037150000     1.6693836900    -2.1700780200
   21      H       2.1507888200     2.8044211400    -0.7802669200
   22      H       3.9725553000    -0.5388603600     1.3802191700
   23      H       3.6779534200    -2.0009768900     0.3878275800
   24      H      -2.8586487700     1.1563187500     0.4452811800
   25      H      -1.3420653000    -2.7798441100    -0.4549564600
   26      H      -1.6038142800    -0.0587869500     2.7913734800
   27      H       0.0451347600     0.5772585800     2.8293922700
   28      H      -1.3103038500     1.6660664000     2.4996585800
   29      H      -3.5764651500    -1.3438433100    -0.1649633200
   30      H      -2.7241030300    -1.3794054900     1.4014075000
   31      H      -1.0328665500    -1.2697988900    -2.6025506300
   32      H      -0.3037280100    -1.6105268400     1.4998494000
 ----------------------------------------------------------------
 Nuclear Repulsion Energy =  1239.1273774385 hartrees
 There are       60 alpha and       60 beta electrons
 Requested basis set is 6-311++G(d,p)
 There are 176 shells and 464 basis functions

 Total QAlloc Memory Limit  62000 MB
 Mega-Array Size      3911 MB
 MEM_STATIC part      4000 MB
 A cutoff of  1.0D-11 yielded  13047 shell pairs
 There are     92941 function pairs (     99288 Cartesian)
 
 -------------------------------------------------------
 OpenMP Integral Computing Module                       
 Release: version 1.0, May 2013, Q-Chem Inc. Pittsburgh 
 -------------------------------------------------------
 Integral Job Info:
 Integral job number is                      11
 Integral operator is                         1
 short-range coefficients                     0
 long-range coefficients              100000000
 Omega coefficients                           0
 if combine SR and LR in K                    0
 Integral screening is                        0
 Integral computing path is                   2
 max size of driver memory is            800000
 size of driver memory is                593474
 size of scratch memory is              2361544
 max col of scratch BK array               1296
 max len of scratch array in speh3          155
 max len of scratch index in speh4           18
 max int batch size is                      520
 min int batch size is                       52
 fixed nKL is                                52
 max L of basis functions is                  2
 order of int derivative is                   0
 number of shells is                        176
 number of basis is                         480
 number of cartesian basis is               480
 number of contracted shell pairs         13047
 number of primitive shell pairs          29073
 maxK2 (contraction) of shell pair           36
 max number of K2 of shell pair               1
 max number of CS2 of shell pair           2414
 max number of PS2 of shell pair           4152
 mem total for path MDJ                  167432
 -------------------------------------------------------
 Smallest overlap matrix eigenvalue = 1.21E-06

 Q-Chem warning in module /fs/scratch/osu6415/qchem-kaunlao-vdw/stvman/mkSTV.C, line 281:

 Overlap eigenvalue is smaller than square root of threshold


 Scale SEOQF with 1.000000e-01/1.000000e-01/1.000000e-01

 Standard Electronic Orientation quadrupole field applied
 Nucleus-field energy     =     0.0000000143 hartrees
 Guess from superposition of atomic densities
 Warning:  Energy on first SCF cycle will be non-variational
 A restricted hybrid HF-DFT SCF calculation will be
 performed using Pulay DIIS extrapolation
 Exchange:     0.2000 Hartree-Fock + 0.0800 Slater + 0.7200 B88
 Correlation:  0.1900 VWN1RPA + 0.8100 LYP
 Using SG-1 standard quadrature grid
 Dispersion:   Grimme D3
 SCF converges when DIIS error is below 1.0E-08
 using 20 threads for integral computing
 -------------------------------------------------------
 OpenMP Integral computing Module                
 Release: version 1.0, May 2013, Q-Chem Inc. Pittsburgh 
 -------------------------------------------------------
 -------------------------------------------------------
 OpenMP BLAS3 based DFT computing Module                
 Release: version 1.0, May 2013, Q-Chem Inc. Pittsburgh 
 -------------------------------------------------------
 ---------------------------------------
  Cycle       Energy         DIIS Error
 ---------------------------------------
    1    -771.3998234011      2.94E-02
    2    -767.7025215629      3.82E-03
    3    -767.2003975766      6.33E-03
    4    -767.9939984634      1.44E-03
    5    -768.0359602240      3.90E-04
    6    -768.0386952783      1.29E-04
    7    -768.0390250494      3.36E-05
    8    -768.0390455239      1.16E-05
    9    -768.0390481552      3.35E-06
   10    -768.0390483335      1.59E-06
   11    -768.0390483837      3.71E-07
   12    -768.0390483874      9.17E-08
   13    -768.0390483873      1.98E-08
   14    -768.0390483867      6.96E-09 Convergence criterion met
 ---------------------------------------
 SCF time:  CPU 971.80 s  wall 61.40 s
 SCF   energy in the final basis set = -768.03904839
 Total energy in the final basis set = -768.03904839
 
 --------------------------------------------------------------
 
                    Orbital Energies (a.u.)
 --------------------------------------------------------------
 
 Alpha MOs
 -- Occupied --
-19.174 -19.169 -19.114 -19.112 -10.304 -10.303 -10.231 -10.228
-10.214 -10.200 -10.193 -10.189 -10.177 -10.170 -10.169 -10.167
 -1.118  -1.109  -1.027  -1.024  -0.901  -0.801  -0.767  -0.743
 -0.727  -0.710  -0.678  -0.627  -0.588  -0.567  -0.562  -0.540
 -0.532  -0.521  -0.498  -0.495  -0.481  -0.474  -0.461  -0.458
 -0.438  -0.434  -0.421  -0.414  -0.398  -0.398  -0.383  -0.381
 -0.375  -0.363  -0.356  -0.354  -0.345  -0.338  -0.321  -0.320
 -0.308  -0.286  -0.278  -0.250
 -- Virtual --
 -0.014  -0.009  -0.008  -0.002   0.003   0.008   0.011   0.018
  0.021   0.027   0.030   0.034   0.042   0.044   0.049   0.051
  0.054   0.065   0.071   0.074   0.083   0.085   0.088   0.093
  0.098   0.102   0.104   0.108   0.111   0.115   0.121   0.122
  0.124   0.124   0.129   0.130   0.132   0.135   0.138   0.142
  0.144   0.146   0.150   0.151   0.153   0.155   0.162   0.164
  0.165   0.167   0.170   0.176   0.179   0.185   0.187   0.188
  0.194   0.201   0.204   0.207   0.208   0.214   0.216   0.221
  0.223   0.226   0.228   0.230   0.240   0.247   0.253   0.257
  0.260   0.264   0.268   0.275   0.278   0.288   0.292   0.292
  0.296   0.303   0.305   0.311   0.314   0.320   0.325   0.327
  0.333   0.337   0.339   0.343   0.346   0.351   0.354   0.359
  0.368   0.372   0.377   0.379   0.385   0.388   0.389   0.396
  0.404   0.409   0.425   0.428   0.433   0.440   0.452   0.465
  0.475   0.486   0.493   0.503   0.513   0.521   0.526   0.536
  0.544   0.545   0.565   0.581   0.591   0.594   0.597   0.615
  0.620   0.624   0.630   0.634   0.644   0.651   0.655   0.665
  0.670   0.677   0.681   0.682   0.692   0.700   0.707   0.708
  0.712   0.717   0.726   0.728   0.732   0.739   0.749   0.754
  0.765   0.777   0.781   0.786   0.791   0.798   0.805   0.817
  0.828   0.836   0.841   0.864   0.874   0.888   0.903   0.933
  0.940   0.964   0.971   1.005   1.021   1.039   1.043   1.058
  1.070   1.087   1.093   1.111   1.127   1.147   1.161   1.170
  1.192   1.197   1.209   1.216   1.231   1.251   1.258   1.268
  1.275   1.298   1.303   1.320   1.335   1.354   1.368   1.376
  1.394   1.407   1.429   1.434   1.444   1.454   1.465   1.480
  1.491   1.508   1.516   1.525   1.535   1.557   1.560   1.565
  1.570   1.578   1.584   1.592   1.600   1.607   1.616   1.643
  1.646   1.659   1.673   1.686   1.692   1.702   1.706   1.709
  1.723   1.728   1.740   1.752   1.761   1.770   1.779   1.791
  1.801   1.812   1.820   1.827   1.848   1.859   1.863   1.878
  1.886   1.897   1.907   1.916   1.943   1.957   1.972   1.975
  1.986   1.996   2.005   2.022   2.030   2.038   2.053   2.056
  2.089   2.121   2.127   2.133   2.148   2.160   2.172   2.178
  2.211   2.215   2.236   2.238   2.253   2.275   2.308   2.337
  2.356   2.382   2.413   2.419   2.446   2.466   2.471   2.475
  2.500   2.505   2.510   2.529   2.535   2.547   2.569   2.577
  2.584   2.604   2.614   2.626   2.637   2.643   2.665   2.674
  2.701   2.714   2.737   2.749   2.765   2.783   2.788   2.812
  2.833   2.843   2.850   2.863   2.868   2.885   2.902   2.924
  2.936   2.950   2.972   2.988   3.015   3.027   3.033   3.053
  3.058   3.064   3.082   3.098   3.107   3.112   3.120   3.155
  3.166   3.219   3.225   3.240   3.247   3.281   3.320   3.329
  3.349   3.394   3.400   3.424   3.462   3.515   3.604   3.608
  3.616   3.713   3.775   3.780   3.783   3.791   3.824   3.830
  3.849   3.869   3.952   4.056   4.078   4.086   4.094   4.131
  4.145   4.162   4.185   4.240   4.267   4.329   4.356   4.436
  5.045   5.127   5.147   5.153   5.264   5.270   5.422   5.467
  5.642   5.652   5.887   5.908  23.800  23.834  23.861  23.879
 23.888  23.912  23.937  23.947  23.996  24.022  24.050  24.314
 49.916  49.945  50.030  50.069
 --------------------------------------------------------------
 
          Ground-State Mulliken Net Atomic Charges

     Atom                 Charge (a.u.)
  ----------------------------------------
      1 C                     0.545818
      2 C                     0.169919
      3 C                    -0.976641
      4 C                    -0.545345
      5 O                    -0.027094
      6 O                    -0.186552
      7 O                    -0.029310
      8 O                    -0.198471
      9 C                    -0.240563
     10 C                    -0.185804
     11 C                     0.210605
     12 C                    -0.312410
     13 C                    -0.496055
     14 C                     0.370877
     15 C                    -0.725802
     16 C                    -0.309790
     17 H                     0.179620
     18 H                     0.173685
     19 H                     0.146104
     20 H                     0.163658
     21 H                     0.194433
     22 H                     0.152698
     23 H                     0.171926
     24 H                     0.275611
     25 H                     0.264082
     26 H                     0.135964
     27 H                     0.165169
     28 H                     0.188191
     29 H                     0.188255
     30 H                     0.114338
     31 H                     0.170413
     32 H                     0.252471
  ----------------------------------------
  Sum of atomic charges =     0.000000

 -----------------------------------------------------------------
                    Cartesian Multipole Moments
 -----------------------------------------------------------------
    Charge (ESU x 10^10)
                 0.0000
    Dipole Moment (Debye)
         X       0.7846      Y      -0.4385      Z       0.4861
       Tot       1.0219
    Quadrupole Moments (Debye-Ang)
        XX     -86.2226     XY       4.8107     YY    -102.7345
        XZ      -0.5844     YZ      -8.9530     ZZ     -94.3082
    Octopole Moments (Debye-Ang^2)
       XXX      59.8928    XXY       7.1311    XYY       9.8290
       YYY     -16.2686    XXZ       8.6260    XYZ      -7.8447
       YYZ      -7.8938    XZZ       7.6456    YZZ      11.3808
       ZZZ      -6.4347
    Hexadecapole Moments (Debye-Ang^3)
      XXXX   -1733.8718   XXXY     -26.8602   XXYY    -495.1434
      XYYY      29.8623   YYYY   -1324.0519   XXXZ       6.0197
      XXYZ     -22.1401   XYYZ       7.7230   YYYZ     -52.7702
      XXZZ    -452.8302   XYZZ      11.4330   YYZZ    -338.6562
      XZZZ      -5.1732   YZZZ     -10.2912   ZZZZ    -825.3469
 -----------------------------------------------------------------
 Calculating analytic gradient of the SCF energy
 Gradient of SCF Energy
            1           2           3           4           5           6
    1  -0.0004760   0.0002157   0.0000310   0.0004783  -0.0000146   0.0000396
    2  -0.0002754  -0.0000065   0.0008705  -0.0000945   0.0000121  -0.0006079
    3  -0.0008189   0.0007793  -0.0002321   0.0003253  -0.0000005   0.0003357
            7           8           9          10          11          12
    1  -0.0000294  -0.0003769   0.0000020   0.0000278   0.0000446  -0.0000103
    2   0.0000015   0.0000805  -0.0000073   0.0000115   0.0000214  -0.0000227
    3   0.0000457  -0.0004318  -0.0000790  -0.0000026  -0.0000113   0.0000244
           13          14          15          16          17          18
    1  -0.0000053   0.0000723  -0.0000655   0.0000408  -0.0000180  -0.0000028
    2  -0.0000477  -0.0000057   0.0000122   0.0000541  -0.0000287  -0.0000067
    3  -0.0000155   0.0000452   0.0000160  -0.0000201  -0.0000437  -0.0000190
           19          20          21          22          23          24
    1  -0.0000182  -0.0000227  -0.0000072   0.0000075   0.0000023  -0.0000099
    2  -0.0000292  -0.0000347  -0.0000148   0.0000248   0.0000079   0.0000113
    3   0.0000060  -0.0000433  -0.0000586  -0.0000183   0.0000066  -0.0000282
           25          26          27          28          29          30
    1  -0.0000305   0.0000182   0.0000171   0.0000069  -0.0000002   0.0000499
    2  -0.0000175   0.0000377   0.0000388   0.0000345  -0.0000085   0.0000210
    3   0.0000958   0.0000194  -0.0000121  -0.0000187   0.0000481   0.0000438
           31          32
    1  -0.0000100   0.0000436
    2  -0.0000498   0.0000178
    3   0.0000328   0.0000298
 Max gradient component =       8.705E-04
 RMS gradient           =       1.958E-04
 Gradient time:  CPU 334.04 s  wall 24.57 s
 Geometry Optimization Parameters
   NAtoms,    NIC,     NZ,  NCons,   NDum,   NFix, NCnnct, MaxDiis
       32     251       0       0       0       0       0       0


** GEOMETRY OPTIMIZATION IN DELOCALIZED INTERNAL COORDINATES **
   Searching for a Minimum

   Optimization Cycle:   1

                       Coordinates (Angstroms)
     ATOM                X               Y               Z
      1  C        -0.2830651400   -1.0870160800    0.5383683700
      2  C        -0.7818860900    0.3861442100    0.8261509800
      3  C         1.1241205400   -1.2975517300    0.0280611700
      4  C         0.0088448600    1.5387261600    0.2073226100
      5  O         2.0250299200   -0.8450319200    0.9311380200
      6  O         1.4306383400   -1.8677468600   -0.9891719700
      7  O         0.8786373700    1.1502955100   -0.7400490900
      8  O        -0.1792245300    2.6992020500    0.4900818000
      9  C         1.5621184100    2.1886975600   -1.4615303100
     10  C         3.4058632000   -0.9570005600    0.5509322300
     11  C        -1.4048155300   -1.6967827100   -0.3643898700
     12  C        -1.4442442500   -0.9165781500   -1.6679236100
     13  C        -1.9398224600    0.2950242200   -1.3986819300
     14  C        -2.2062889200    0.3566979200    0.0982401200
     15  C        -2.6435076800   -1.1040374100    0.3470905400
     16  C        -0.9240420800    0.6605522900    2.3308539700
     17  H         0.8438506000    2.8201749600   -1.9870009300
     18  H         3.5924745700   -0.3915251700   -0.3639966800
     19  H        -2.0174517200    1.1382382900   -2.0727737000
     20  H         2.2037150000    1.6693836900   -2.1700780200
     21  H         2.1507888200    2.8044211400   -0.7802669200
     22  H         3.9725553000   -0.5388603600    1.3802191700
     23  H         3.6779534200   -2.0009768900    0.3878275800
     24  H        -2.8586487700    1.1563187500    0.4452811800
     25  H        -1.3420653000   -2.7798441100   -0.4549564600
     26  H        -1.6038142800   -0.0587869500    2.7913734800
     27  H         0.0451347600    0.5772585800    2.8293922700
     28  H        -1.3103038500    1.6660664000    2.4996585800
     29  H        -3.5764651500   -1.3438433100   -0.1649633200
     30  H        -2.7241030300   -1.3794054900    1.4014075000
     31  H        -1.0328665500   -1.2697988900   -2.6025506300
     32  H        -0.3037280100   -1.6105268400    1.4998494000
   Point Group: c1    Number of degrees of freedom:    90


   Energy is   -768.039048387


 Attempting to Generate Delocalized Internal Coordinates

 90 Hessian modes will be used to form the next step
  Hessian Eigenvalues:
     0.004105    0.004402    0.005394    0.007645    0.009942    0.010705
     0.010805    0.011267    0.012983    0.016698    0.016947    0.020034
     0.021797    0.023122    0.025767    0.032341    0.040590    0.041791
     0.044315    0.046503    0.047467    0.051200    0.053774    0.055191
     0.056368    0.056703    0.057265    0.067744    0.069349    0.075802
     0.090508    0.097352    0.101293    0.101400    0.105894    0.106265
     0.113531    0.119248    0.143585    0.156382    0.158562    0.160000
     0.160000    0.160000    0.160000    0.160000    0.160000    0.160000
     0.160000    0.160000    0.168813    0.211076    0.225922    0.239884
     0.249424    0.249683    0.250000    0.250000    0.250000    0.250000
     0.252061    0.254995    0.272547    0.288662    0.295521    0.299139
     0.311910    0.342457    0.344613    0.345070    0.346236    0.346270
     0.346704    0.346846    0.347060    0.347244    0.347781    0.349560
     0.349690    0.350473    0.350647    0.357144    0.359315    0.399519
     0.400567    0.514190    0.542836    0.564328    1.003599    1.019850

 Minimum Search - Taking Simple RFO Step
 Searching for Lamda that Minimizes Along All modes
 Value Taken    Lamda =  -0.00010253
 Step Taken.  Stepsize is  0.115232

                             Maximum     Tolerance    Cnvgd?
         Gradient           0.000443      0.000001      NO
         Displacement       0.054401      0.000001      NO
         Energy change     *********      0.000000      NO


 New Cartesian Coordinates Obtained by Inverse Iteration

 Displacement from previous Coordinates is:  0.159812
 Adding empirical dispersion correction 
 ----------------------------------------------------------------
 Doing -D3(op) with
 s6 =   1.00000
 s8 =   0.78311
 a1 =   0.30000
 a2 =   4.25000
 n  =  10.00000
 -D3 energy without 3body term =     -0.0407775027 hartrees
 ----------------------------------------------------------------
             Standard Nuclear Orientation (Angstroms)
    I     Atom           X                Y                Z
 ----------------------------------------------------------------
    1      C      -0.2835589573    -1.0878512339     0.5429319208
    2      C      -0.7836091321     0.3860571837     0.8244396954
    3      C       1.1236584771    -1.2986683630     0.0328792393
    4      C       0.0087213877     1.5366925322     0.2042432198
    5      O       2.0253416694    -0.8587829024     0.9414186388
    6      O       1.4291672244    -1.8357997801    -1.0024760496
    7      O       0.8638332974     1.1485943499    -0.7566039059
    8      O      -0.1477953740     2.6943233966     0.5162866147
    9      C       1.5592650209     2.1865155616    -1.4672011489
   10      C       3.4053844458    -0.9561682459     0.5544919316
   11      C      -1.4037362993    -1.6986482816    -0.3614194755
   12      C      -1.4415314043    -0.9203408260    -1.6662667296
   13      C      -1.9396652130     0.2909241130    -1.4002389368
   14      C      -2.2076879719     0.3549754731     0.0961774716
   15      C      -2.6440524966    -1.1056745710     0.3470300171
   16      C      -0.9262117119     0.6643049498     2.3284115989
   17      H       0.8478428698     2.8380103590    -1.9773236321
   18      H       3.5858959312    -0.3722223879    -0.3499983328
   19      H      -2.0173831188     1.1327502318    -2.0760558900
   20      H       2.1867267647     1.6676421208    -2.1886199215
   21      H       2.1633135499     2.7816320467    -0.7811030720
   22      H       3.9727563418    -0.5510608438     1.3897657702
   23      H       3.6823478741    -1.9953685172     0.3704429289
   24      H      -2.8606092887     1.1548042265     0.4416615743
   25      H      -1.3402056265    -2.7817503097    -0.4509076650
   26      H      -1.6065498913    -0.0535220103     2.7904282948
   27      H       0.0427186161     0.5818370214     2.8275665320
   28      H      -1.3120188508     1.6704462050     2.4945098952
   29      H      -3.5759277749    -1.3470722464    -0.1662499398
   30      H      -2.7264885843    -1.3792632664     1.4016667774
   31      H      -1.0283014537    -1.2746664500    -2.5996596376
   32      H      -0.3062585507    -1.6107612359     1.5046877462
 ----------------------------------------------------------------
 Nuclear Repulsion Energy =  1239.3063474360 hartrees
 There are       60 alpha and       60 beta electrons
 Applying Cartesian multipole field
    Component          Value
    ---------          -----
     (2,0,0)        1.00000E-11
     (0,2,0)        2.00000E-11
     (0,0,2)       -3.00000E-11
 Nucleus-field energy     =     0.0000000141 hartrees
 Requested basis set is 6-311++G(d,p)
 There are 176 shells and 464 basis functions
 A cutoff of  1.0D-11 yielded  13048 shell pairs
 There are     92957 function pairs (     99312 Cartesian)
 Smallest overlap matrix eigenvalue = 1.21E-06

 Q-Chem warning in module /fs/scratch/osu6415/qchem-kaunlao-vdw/stvman/mkSTV.C, line 281:

 Overlap eigenvalue is smaller than square root of threshold

 Guess MOs from SCF MO coefficient file
 Reading MOs from coefficient file
 Reading MOs from coefficient file
 A restricted hybrid HF-DFT SCF calculation will be
 performed using Pulay DIIS extrapolation
 Exchange:     0.2000 Hartree-Fock + 0.0800 Slater + 0.7200 B88
 Correlation:  0.1900 VWN1RPA + 0.8100 LYP
 Using SG-1 standard quadrature grid
 Dispersion:   Grimme D3
 SCF converges when DIIS error is below 1.0E-08
 Geometry optimization detected.  Setting ReadMinima to 0
 Setting SaveMinima to 0
 using 20 threads for integral computing
 -------------------------------------------------------
 OpenMP Integral computing Module                
 Release: version 1.0, May 2013, Q-Chem Inc. Pittsburgh 
 -------------------------------------------------------
 -------------------------------------------------------
 OpenMP BLAS3 based DFT computing Module                
 Release: version 1.0, May 2013, Q-Chem Inc. Pittsburgh 
 -------------------------------------------------------
 ---------------------------------------
  Cycle       Energy         DIIS Error
 ---------------------------------------
    1    -768.0325302778      4.30E-04
    2    -768.0389938203      3.12E-05
    3    -768.0390098930      3.36E-05
    4    -768.0390331656      1.19E-05
    5    -768.0390354373      5.75E-06
    6    -768.0390360804      1.76E-06
    7    -768.0390361330      8.70E-07
    8    -768.0390361498      2.06E-07
    9    -768.0390361511      6.31E-08
   10    -768.0390361515      2.81E-08
   11    -768.0390361497      1.05E-08
   12    -768.0390361451      4.27E-09 Convergence criterion met
 ---------------------------------------
 SCF time:  CPU 823.45 s  wall 52.73 s
 SCF   energy in the final basis set = -768.03903615
 Total energy in the final basis set = -768.03903615
 
 --------------------------------------------------------------
 
                    Orbital Energies (a.u.)
 --------------------------------------------------------------
 
 Alpha MOs
 -- Occupied --
-19.174 -19.170 -19.114 -19.112 -10.304 -10.303 -10.231 -10.228
-10.214 -10.200 -10.194 -10.189 -10.177 -10.170 -10.169 -10.167
 -1.118  -1.109  -1.027  -1.024  -0.901  -0.801  -0.767  -0.742
 -0.727  -0.710  -0.678  -0.627  -0.588  -0.567  -0.562  -0.540
 -0.532  -0.521  -0.498  -0.495  -0.481  -0.475  -0.461  -0.458
 -0.438  -0.434  -0.421  -0.413  -0.398  -0.398  -0.383  -0.381
 -0.375  -0.363  -0.356  -0.354  -0.345  -0.338  -0.321  -0.320
 -0.308  -0.286  -0.278  -0.249
 -- Virtual --
 -0.014  -0.009  -0.008  -0.002   0.004   0.008   0.011   0.018
  0.021   0.027   0.030   0.034   0.042   0.044   0.049   0.051
  0.053   0.065   0.071   0.074   0.083   0.085   0.088   0.093
  0.098   0.101   0.105   0.108   0.111   0.115   0.121   0.122
  0.124   0.124   0.129   0.130   0.132   0.135   0.138   0.142
  0.144   0.147   0.150   0.151   0.153   0.155   0.162   0.163
  0.165   0.167   0.171   0.176   0.180   0.185   0.188   0.188
  0.194   0.201   0.205   0.207   0.208   0.213   0.215   0.220
  0.223   0.226   0.228   0.230   0.240   0.247   0.253   0.257
  0.260   0.264   0.268   0.275   0.279   0.288   0.291   0.292
  0.296   0.302   0.305   0.312   0.314   0.319   0.325   0.327
  0.333   0.337   0.340   0.343   0.346   0.351   0.353   0.359
  0.368   0.373   0.377   0.379   0.384   0.389   0.390   0.397
  0.405   0.410   0.425   0.429   0.432   0.439   0.451   0.465
  0.475   0.487   0.492   0.504   0.513   0.521   0.526   0.535
  0.544   0.546   0.566   0.581   0.591   0.594   0.597   0.615
  0.620   0.624   0.631   0.633   0.645   0.651   0.656   0.665
  0.670   0.677   0.680   0.681   0.692   0.700   0.707   0.708
  0.712   0.717   0.726   0.728   0.731   0.739   0.750   0.754
  0.766   0.777   0.781   0.786   0.792   0.798   0.805   0.816
  0.827   0.837   0.841   0.864   0.873   0.887   0.903   0.932
  0.942   0.963   0.971   1.003   1.021   1.040   1.044   1.058
  1.070   1.088   1.095   1.113   1.126   1.145   1.160   1.169
  1.192   1.197   1.207   1.215   1.232   1.251   1.256   1.267
  1.276   1.299   1.303   1.319   1.333   1.354   1.369   1.377
  1.393   1.407   1.425   1.434   1.443   1.456   1.465   1.480
  1.493   1.507   1.514   1.524   1.534   1.556   1.561   1.566
  1.571   1.579   1.583   1.591   1.600   1.606   1.616   1.644
  1.646   1.660   1.672   1.686   1.692   1.703   1.706   1.708
  1.723   1.727   1.740   1.751   1.760   1.770   1.780   1.790
  1.801   1.816   1.820   1.827   1.848   1.859   1.863   1.878
  1.885   1.896   1.907   1.918   1.945   1.958   1.972   1.977
  1.987   1.995   2.005   2.023   2.033   2.041   2.054   2.056
  2.090   2.122   2.127   2.133   2.150   2.160   2.171   2.179
  2.211   2.216   2.234   2.237   2.252   2.273   2.310   2.337
  2.357   2.380   2.414   2.420   2.446   2.467   2.471   2.475
  2.499   2.506   2.510   2.530   2.536   2.546   2.569   2.577
  2.585   2.604   2.615   2.625   2.637   2.644   2.665   2.675
  2.701   2.714   2.736   2.749   2.763   2.784   2.788   2.812
  2.833   2.842   2.849   2.864   2.868   2.886   2.903   2.923
  2.935   2.951   2.971   2.988   3.015   3.027   3.034   3.053
  3.057   3.064   3.083   3.097   3.109   3.111   3.119   3.156
  3.166   3.218   3.226   3.239   3.247   3.281   3.321   3.330
  3.350   3.394   3.400   3.422   3.461   3.516   3.603   3.608
  3.616   3.715   3.774   3.780   3.783   3.790   3.824   3.831
  3.848   3.870   3.956   4.055   4.077   4.087   4.094   4.132
  4.144   4.162   4.185   4.240   4.266   4.330   4.356   4.435
  5.049   5.127   5.143   5.154   5.265   5.270   5.421   5.469
  5.642   5.653   5.888   5.909  23.801  23.834  23.862  23.879
 23.888  23.912  23.937  23.947  23.996  24.022  24.050  24.314
 49.915  49.945  50.030  50.069
 --------------------------------------------------------------
 
          Ground-State Mulliken Net Atomic Charges

     Atom                 Charge (a.u.)
  ----------------------------------------
      1 C                     0.528688
      2 C                     0.166191
      3 C                    -0.952664
      4 C                    -0.555514
      5 O                    -0.024817
      6 O                    -0.188404
      7 O                    -0.032449
      8 O                    -0.197941
      9 C                    -0.243785
     10 C                    -0.185257
     11 C                     0.216613
     12 C                    -0.316740
     13 C                    -0.498816
     14 C                     0.376393
     15 C                    -0.728185
     16 C                    -0.300452
     17 H                     0.179663
     18 H                     0.173299
     19 H                     0.145050
     20 H                     0.165106
     21 H                     0.194311
     22 H                     0.153214
     23 H                     0.171807
     24 H                     0.275231
     25 H                     0.263782
     26 H                     0.135133
     27 H                     0.165951
     28 H                     0.187948
     29 H                     0.188125
     30 H                     0.114471
     31 H                     0.170679
     32 H                     0.253370
  ----------------------------------------
  Sum of atomic charges =    -0.000000

 -----------------------------------------------------------------
                    Cartesian Multipole Moments
 -----------------------------------------------------------------
    Charge (ESU x 10^10)
                -0.0000
    Dipole Moment (Debye)
         X       0.7605      Y      -0.4781      Z       0.4602
       Tot       1.0093
    Quadrupole Moments (Debye-Ang)
        XX     -86.1684     XY       4.5403     YY    -102.4856
        XZ      -0.5927     YZ      -9.0435     ZZ     -94.4952
    Octopole Moments (Debye-Ang^2)
       XXX      59.9718    XXY       7.1374    XYY       9.5189
       YYY     -16.8055    XXZ       8.7133    XYZ      -7.8050
       YYZ      -8.6359    XZZ       7.5422    YZZ      11.3123
       ZZZ      -6.5951
    Hexadecapole Moments (Debye-Ang^3)
      XXXX   -1732.1015   XXXY     -28.9161   XXYY    -493.7179
      XYYY      25.1183   YYYY   -1317.4443   XXXZ       6.1155
      XXYZ     -22.0255   XYYZ       6.8593   YYYZ     -53.3554
      XXZZ    -453.4085   XYZZ      10.9755   YYZZ    -339.0363
      XZZZ      -5.4647   YZZZ     -10.5967   ZZZZ    -828.8573
 -----------------------------------------------------------------
 Calculating analytic gradient of the SCF energy
 Gradient of SCF Energy
            1           2           3           4           5           6
    1  -0.0002957   0.0004776   0.0001767  -0.0022845   0.0002500  -0.0001660
    2   0.0008843  -0.0003492  -0.0020969   0.0000835   0.0004444   0.0008224
    3  -0.0006589   0.0007904   0.0018780  -0.0024104  -0.0002075  -0.0006592
            7           8           9          10          11          12
    1   0.0005931   0.0006279  -0.0000229  -0.0001297   0.0000387   0.0002472
    2  -0.0000822  -0.0001393   0.0000391   0.0000208   0.0000056   0.0000679
    3   0.0003043   0.0008032  -0.0001318   0.0000313   0.0001281   0.0001328
           13          14          15          16          17          18
    1   0.0000867  -0.0000530   0.0000620   0.0001659  -0.0000410   0.0000327
    2   0.0001561   0.0003031   0.0000691   0.0000139  -0.0000385   0.0000022
    3   0.0000153   0.0001653   0.0000148  -0.0000368  -0.0000122  -0.0000152
           19          20          21          22          23          24
    1  -0.0000341  -0.0000169   0.0000230   0.0000200   0.0000093   0.0000151
    2  -0.0000097  -0.0000057  -0.0000705   0.0000373   0.0000005   0.0000050
    3   0.0000252  -0.0000575  -0.0000703  -0.0000209   0.0000102  -0.0000717
           25          26          27          28          29          30
    1   0.0000281   0.0000191   0.0000389  -0.0000567  -0.0000021   0.0000031
    2   0.0000437   0.0000955  -0.0000226   0.0001151   0.0000031   0.0000008
    3   0.0000804   0.0000647   0.0000141  -0.0000583   0.0000519   0.0000307
           31          32
    1  -0.0000208   0.0002084
    2  -0.0000799  -0.0003191
    3  -0.0000286  -0.0001015
 Max gradient component =       2.410E-03
 RMS gradient           =       5.082E-04
 Gradient time:  CPU 339.08 s  wall 24.70 s
 Geometry Optimization Parameters
   NAtoms,    NIC,     NZ,  NCons,   NDum,   NFix, NCnnct, MaxDiis
       32     251       0       0       0       0       0       0

 Cartesian Hessian Update
 Hessian Updated using BFGS Update


** GEOMETRY OPTIMIZATION IN DELOCALIZED INTERNAL COORDINATES **
   Searching for a Minimum

   Optimization Cycle:   2

                       Coordinates (Angstroms)
     ATOM                X               Y               Z
      1  C        -0.2835589573   -1.0878512339    0.5429319208
      2  C        -0.7836091321    0.3860571837    0.8244396954
      3  C         1.1236584771   -1.2986683630    0.0328792393
      4  C         0.0087213877    1.5366925322    0.2042432198
      5  O         2.0253416694   -0.8587829024    0.9414186388
      6  O         1.4291672244   -1.8357997801   -1.0024760496
      7  O         0.8638332974    1.1485943499   -0.7566039059
      8  O        -0.1477953740    2.6943233966    0.5162866147
      9  C         1.5592650209    2.1865155616   -1.4672011489
     10  C         3.4053844458   -0.9561682459    0.5544919316
     11  C        -1.4037362993   -1.6986482816   -0.3614194755
     12  C        -1.4415314043   -0.9203408260   -1.6662667296
     13  C        -1.9396652130    0.2909241130   -1.4002389368
     14  C        -2.2076879719    0.3549754731    0.0961774716
     15  C        -2.6440524966   -1.1056745710    0.3470300171
     16  C        -0.9262117119    0.6643049498    2.3284115989
     17  H         0.8478428698    2.8380103590   -1.9773236321
     18  H         3.5858959312   -0.3722223879   -0.3499983328
     19  H        -2.0173831188    1.1327502318   -2.0760558900
     20  H         2.1867267647    1.6676421208   -2.1886199215
     21  H         2.1633135499    2.7816320467   -0.7811030720
     22  H         3.9727563418   -0.5510608438    1.3897657702
     23  H         3.6823478741   -1.9953685172    0.3704429289
     24  H        -2.8606092887    1.1548042265    0.4416615743
     25  H        -1.3402056265   -2.7817503097   -0.4509076650
     26  H        -1.6065498913   -0.0535220103    2.7904282948
     27  H         0.0427186161    0.5818370214    2.8275665320
     28  H        -1.3120188508    1.6704462050    2.4945098952
     29  H        -3.5759277749   -1.3470722464   -0.1662499398
     30  H        -2.7264885843   -1.3792632664    1.4016667774
     31  H        -1.0283014537   -1.2746664500   -2.5996596376
     32  H        -0.3062585507   -1.6107612359    1.5046877462
   Point Group: c1    Number of degrees of freedom:    90


   Energy is   -768.039036145

 Hessian Updated using BFGS Update

 81 Hessian modes will be used to form the next step
  Hessian Eigenvalues:
     0.003537    0.004402    0.005497    0.007102    0.010557    0.010696
     0.010805    0.012982    0.016591    0.016938    0.019933    0.021791
     0.023021    0.024156    0.026256    0.034173    0.040480    0.041754
     0.045614    0.046524    0.049090    0.051569    0.053774    0.055305
     0.056381    0.056703    0.057403    0.067870    0.069542    0.076397
     0.091306    0.098808    0.101301    0.101401    0.105895    0.106267
     0.113584    0.119395    0.145326    0.156479    0.158561    0.159999
     0.160141    0.172744    0.212404    0.226338    0.239911    0.249509
     0.249761    0.249996    0.251784    0.252114    0.255324    0.272623
     0.288662    0.295634    0.299140    0.311935    0.342466    0.344619
     0.345070    0.346237    0.346271    0.346704    0.346846    0.347061
     0.347246    0.347823    0.349566    0.349705    0.350473    0.350647
     0.357144    0.359334    0.399514    0.400620    0.514211    0.542952
     0.564585    1.003592    1.019935

 Minimum Search - Taking Simple RFO Step
 Searching for Lamda that Minimizes Along All modes
 Value Taken    Lamda =  -0.00011702
 Step Taken.  Stepsize is  0.075865

                             Maximum     Tolerance    Cnvgd?
         Gradient           0.000995      0.000001      NO
         Displacement       0.028564      0.000001      NO
         Energy change      0.000012      0.000000      NO


 New Cartesian Coordinates Obtained by Inverse Iteration

 Displacement from previous Coordinates is:  0.140911
 Adding empirical dispersion correction 
 ----------------------------------------------------------------
 Doing -D3(op) with
 s6 =   1.00000
 s8 =   0.78311
 a1 =   0.30000
 a2 =   4.25000
 n  =  10.00000
 -D3 energy without 3body term =     -0.0407480649 hartrees
 ----------------------------------------------------------------
             Standard Nuclear Orientation (Angstroms)
    I     Atom           X                Y                Z
 ----------------------------------------------------------------
    1      C      -0.2807089262    -1.0841000667     0.5456345690
    2      C      -0.7837497763     0.3891640184     0.8251294970
    3      C       1.1235742223    -1.2902436810     0.0255696036
    4      C       0.0152732900     1.5410055716     0.2157169610
    5      O       2.0296883396    -0.8593774256     0.9339290975
    6      O       1.4240672732    -1.8338177091    -1.0078382087
    7      O       0.8662412526     1.1560361253    -0.7499718556
    8      O      -0.1492236694     2.6988202213     0.5229058020
    9      C       1.5580837593     2.1961095756    -1.4608325859
   10      C       3.4083165439    -0.9642865804     0.5437928726
   11      C      -1.4032572925    -1.7011986485    -0.3522678259
   12      C      -1.4396483176    -0.9338371356    -1.6633992840
   13      C      -1.9321904372     0.2815621998    -1.4062793884
   14      C      -2.2039394588     0.3571069810     0.0890925127
   15      C      -2.6435898063    -1.1007591141     0.3499535087
   16      C      -0.9370305207     0.6636660666     2.3287432738
   17      H       0.8444206370     2.8469235068    -1.9686933586
   18      H       3.5906298522    -0.3781907524    -0.3589361486
   19      H      -2.0060847692     1.1185889945    -2.0884561980
   20      H       2.1848413140     1.6791411422    -2.1842375799
   21      H       2.1625721538     2.7916015844    -0.7754249296
   22      H       3.9800173112    -0.5659806889     1.3793790796
   23      H       3.6781223209    -2.0045732589     0.3553227882
   24      H      -2.8565894537     1.1603365356     0.4271783093
   25      H      -1.3411429410    -2.7850856916    -0.4332405078
   26      H      -1.6197250922    -0.0561824600     2.7840989252
   27      H       0.0285258292     0.5811225584     2.8343322576
   28      H      -1.3249638596     1.6689280326     2.4948270976
   29      H      -3.5750429454    -1.3441957257    -0.1631379196
   30      H      -2.7283956772    -1.3662955638     1.4064606923
   31      H      -1.0268182516    -1.2964491809    -2.5937383075
   32      H      -0.2968911340    -1.6036511308     1.5093027805
 ----------------------------------------------------------------
 Nuclear Repulsion Energy =  1239.0857082201 hartrees
 There are       60 alpha and       60 beta electrons
 Applying Cartesian multipole field
    Component          Value
    ---------          -----
     (2,0,0)        1.00000E-11
     (0,2,0)        2.00000E-11
     (0,0,2)       -3.00000E-11
 Nucleus-field energy     =     0.0000000142 hartrees
 Requested basis set is 6-311++G(d,p)
 There are 176 shells and 464 basis functions
 A cutoff of  1.0D-11 yielded  13039 shell pairs
 There are     92882 function pairs (     99226 Cartesian)
 Smallest overlap matrix eigenvalue = 1.20E-06

 Q-Chem warning in module /fs/scratch/osu6415/qchem-kaunlao-vdw/stvman/mkSTV.C, line 281:

 Overlap eigenvalue is smaller than square root of threshold

 Guess MOs from SCF MO coefficient file
 Reading MOs from coefficient file
 Reading MOs from coefficient file
 A restricted hybrid HF-DFT SCF calculation will be
 performed using Pulay DIIS extrapolation
 Exchange:     0.2000 Hartree-Fock + 0.0800 Slater + 0.7200 B88
 Correlation:  0.1900 VWN1RPA + 0.8100 LYP
 Using SG-1 standard quadrature grid
 Dispersion:   Grimme D3
 SCF converges when DIIS error is below 1.0E-08
 Geometry optimization detected.  Setting ReadMinima to 0
 Setting SaveMinima to 0
 using 20 threads for integral computing
 -------------------------------------------------------
 OpenMP Integral computing Module                
 Release: version 1.0, May 2013, Q-Chem Inc. Pittsburgh 
 -------------------------------------------------------
 -------------------------------------------------------
 OpenMP BLAS3 based DFT computing Module                
 Release: version 1.0, May 2013, Q-Chem Inc. Pittsburgh 
 -------------------------------------------------------
 ---------------------------------------
  Cycle       Energy         DIIS Error
 ---------------------------------------
    1    -768.0426754786      2.23E-04
    2    -768.0390197211      4.73E-05
    3    -768.0389358854      7.68E-05
    4    -768.0390784472      1.34E-05
    5    -768.0390817665      4.47E-06
    6    -768.0390821413      1.41E-06
    7    -768.0390821754      5.83E-07
    8    -768.0390821831      2.00E-07
    9    -768.0390821840      6.19E-08
   10    -768.0390821828      1.89E-08
   11    -768.0390821826      9.17E-09 Convergence criterion met
 ---------------------------------------
 SCF time:  CPU 781.25 s  wall 51.41 s
 SCF   energy in the final basis set = -768.03908218
 Total energy in the final basis set = -768.03908218
 
 --------------------------------------------------------------
 
                    Orbital Energies (a.u.)
 --------------------------------------------------------------
 
 Alpha MOs
 -- Occupied --
-19.174 -19.169 -19.114 -19.112 -10.304 -10.303 -10.231 -10.228
-10.214 -10.200 -10.194 -10.189 -10.177 -10.170 -10.169 -10.167
 -1.118  -1.109  -1.027  -1.024  -0.901  -0.801  -0.767  -0.743
 -0.727  -0.710  -0.678  -0.627  -0.588  -0.567  -0.562  -0.540
 -0.532  -0.521  -0.498  -0.495  -0.481  -0.475  -0.462  -0.458
 -0.438  -0.434  -0.421  -0.413  -0.398  -0.398  -0.383  -0.381
 -0.375  -0.363  -0.356  -0.354  -0.345  -0.338  -0.321  -0.320
 -0.308  -0.286  -0.278  -0.249
 -- Virtual --
 -0.013  -0.009  -0.008  -0.002   0.003   0.008   0.011   0.018
  0.021   0.027   0.030   0.034   0.042   0.044   0.049   0.051
  0.054   0.065   0.071   0.074   0.083   0.085   0.088   0.093
  0.098   0.101   0.105   0.108   0.111   0.115   0.121   0.122
  0.124   0.124   0.129   0.130   0.132   0.135   0.138   0.142
  0.144   0.147   0.150   0.151   0.153   0.155   0.162   0.163
  0.165   0.167   0.170   0.176   0.179   0.185   0.188   0.189
  0.195   0.201   0.205   0.207   0.208   0.213   0.215   0.220
  0.223   0.226   0.228   0.230   0.240   0.247   0.253   0.257
  0.260   0.264   0.268   0.276   0.279   0.288   0.291   0.292
  0.296   0.302   0.306   0.312   0.314   0.319   0.326   0.327
  0.333   0.337   0.339   0.343   0.346   0.351   0.353   0.359
  0.368   0.373   0.377   0.379   0.384   0.389   0.390   0.396
  0.404   0.410   0.425   0.429   0.433   0.439   0.451   0.464
  0.475   0.486   0.492   0.504   0.514   0.521   0.526   0.535
  0.544   0.546   0.566   0.581   0.590   0.594   0.597   0.615
  0.620   0.624   0.631   0.633   0.644   0.650   0.655   0.665
  0.670   0.677   0.680   0.681   0.692   0.700   0.707   0.709
  0.712   0.718   0.726   0.728   0.731   0.739   0.750   0.754
  0.766   0.778   0.781   0.786   0.792   0.798   0.805   0.816
  0.827   0.837   0.841   0.865   0.874   0.887   0.903   0.932
  0.941   0.963   0.972   1.003   1.019   1.041   1.044   1.058
  1.071   1.088   1.096   1.112   1.126   1.146   1.160   1.168
  1.190   1.198   1.207   1.215   1.232   1.250   1.257   1.267
  1.276   1.299   1.303   1.319   1.335   1.355   1.367   1.377
  1.394   1.407   1.427   1.434   1.444   1.454   1.464   1.479
  1.493   1.507   1.514   1.524   1.534   1.556   1.560   1.565
  1.571   1.579   1.582   1.591   1.600   1.607   1.616   1.643
  1.646   1.659   1.672   1.687   1.692   1.704   1.706   1.707
  1.723   1.727   1.740   1.751   1.759   1.770   1.779   1.790
  1.801   1.815   1.821   1.826   1.848   1.860   1.864   1.878
  1.886   1.896   1.907   1.917   1.945   1.958   1.971   1.976
  1.987   1.996   2.004   2.023   2.032   2.040   2.053   2.056
  2.090   2.122   2.126   2.133   2.149   2.160   2.171   2.179
  2.212   2.216   2.234   2.237   2.251   2.272   2.310   2.336
  2.356   2.380   2.413   2.420   2.446   2.466   2.471   2.474
  2.499   2.506   2.511   2.530   2.536   2.546   2.569   2.577
  2.584   2.604   2.615   2.625   2.637   2.644   2.665   2.675
  2.701   2.714   2.736   2.749   2.764   2.783   2.788   2.813
  2.833   2.841   2.848   2.862   2.867   2.886   2.902   2.923
  2.935   2.951   2.970   2.988   3.016   3.028   3.034   3.053
  3.058   3.065   3.083   3.096   3.108   3.111   3.120   3.155
  3.166   3.218   3.226   3.238   3.246   3.280   3.322   3.330
  3.350   3.395   3.399   3.422   3.461   3.516   3.604   3.608
  3.616   3.715   3.775   3.780   3.783   3.791   3.825   3.831
  3.848   3.869   3.956   4.056   4.078   4.086   4.093   4.131
  4.144   4.162   4.184   4.241   4.265   4.329   4.355   4.435
  5.048   5.127   5.143   5.154   5.265   5.271   5.422   5.467
  5.641   5.653   5.888   5.908  23.801  23.834  23.861  23.879
 23.887  23.912  23.937  23.947  23.996  24.022  24.050  24.315
 49.916  49.945  50.030  50.069
 --------------------------------------------------------------
 
          Ground-State Mulliken Net Atomic Charges

     Atom                 Charge (a.u.)
  ----------------------------------------
      1 C                     0.552685
      2 C                     0.148381
      3 C                    -0.976420
      4 C                    -0.536801
      5 O                    -0.024697
      6 O                    -0.186852
      7 O                    -0.031626
      8 O                    -0.199365
      9 C                    -0.242238
     10 C                    -0.183827
     11 C                     0.206502
     12 C                    -0.305637
     13 C                    -0.509197
     14 C                     0.387248
     15 C                    -0.728217
     16 C                    -0.306006
     17 H                     0.179691
     18 H                     0.173153
     19 H                     0.143887
     20 H                     0.165012
     21 H                     0.194401
     22 H                     0.153113
     23 H                     0.171772
     24 H                     0.275659
     25 H                     0.263205
     26 H                     0.133499
     27 H                     0.166227
     28 H                     0.187780
     29 H                     0.188327
     30 H                     0.113857
     31 H                     0.171219
     32 H                     0.255267
  ----------------------------------------
  Sum of atomic charges =    -0.000000

 -----------------------------------------------------------------
                    Cartesian Multipole Moments
 -----------------------------------------------------------------
    Charge (ESU x 10^10)
                -0.0000
    Dipole Moment (Debye)
         X       0.7718      Y      -0.4738      Z       0.4572
       Tot       1.0145
    Quadrupole Moments (Debye-Ang)
        XX     -86.1521     XY       4.5329     YY    -102.4679
        XZ      -0.6215     YZ      -9.0636     ZZ     -94.5307
    Octopole Moments (Debye-Ang^2)
       XXX      59.8164    XXY       6.9434    XYY       9.6748
       YYY     -17.0291    XXZ       8.5588    XYZ      -7.7613
       YYZ      -8.8410    XZZ       7.4301    YZZ      11.2061
       ZZZ      -6.5891
    Hexadecapole Moments (Debye-Ang^3)
      XXXX   -1731.4156   XXXY     -29.5099   XXYY    -494.0021
      XYYY      25.1607   YYYY   -1321.1530   XXXZ       7.3517
      XXYZ     -22.4511   XYYZ       7.2488   YYYZ     -55.1162
      XXZZ    -453.3576   XYZZ      10.9015   YYZZ    -339.6518
      XZZZ      -3.6284   YZZZ     -12.0974   ZZZZ    -827.9330
 -----------------------------------------------------------------
 Calculating analytic gradient of the SCF energy
 Gradient of SCF Energy
            1           2           3           4           5           6
    1   0.0001739  -0.0001916   0.0001340   0.0004763   0.0000819  -0.0001373
    2   0.0003614  -0.0001718   0.0004464  -0.0001648  -0.0002548  -0.0000265
    3  -0.0004193   0.0002476   0.0003200   0.0000693   0.0000328  -0.0000779
            7           8           9          10          11          12
    1  -0.0000134  -0.0002235  -0.0001090  -0.0000984   0.0001074  -0.0000692
    2   0.0000833  -0.0000159   0.0000293  -0.0000201   0.0000394  -0.0001762
    3  -0.0001647  -0.0001643  -0.0000852   0.0000154   0.0002886   0.0000847
           13          14          15          16          17          18
    1   0.0001454  -0.0003001  -0.0000496   0.0002784  -0.0000028  -0.0000175
    2  -0.0000013  -0.0000288   0.0001921   0.0000546  -0.0000213  -0.0000040
    3  -0.0001483   0.0001705  -0.0000180  -0.0001236  -0.0000385  -0.0000165
           19          20          21          22          23          24
    1  -0.0000241  -0.0000329   0.0000181   0.0000161   0.0000304   0.0000116
    2  -0.0000080  -0.0000271  -0.0000531   0.0000169   0.0000045  -0.0000330
    3  -0.0000075  -0.0000595  -0.0000457  -0.0000083   0.0000173  -0.0000078
           25          26          27          28          29          30
    1   0.0000148  -0.0000969   0.0000219  -0.0000263  -0.0000336   0.0000655
    2   0.0000288  -0.0000424  -0.0000119   0.0000617   0.0000144   0.0000314
    3   0.0000128  -0.0000333  -0.0000197  -0.0000694   0.0000583   0.0001196
           31          32
    1  -0.0000066  -0.0001428
    2  -0.0000910  -0.0002121
    3  -0.0000165   0.0000869
 Max gradient component =       4.763E-04
 RMS gradient           =       1.395E-04
 Gradient time:  CPU 334.00 s  wall 25.10 s
 Geometry Optimization Parameters
   NAtoms,    NIC,     NZ,  NCons,   NDum,   NFix, NCnnct, MaxDiis
       32     251       0       0       0       0       0       0

 Cartesian Hessian Update
 Hessian Updated using BFGS Update


** GEOMETRY OPTIMIZATION IN DELOCALIZED INTERNAL COORDINATES **
   Searching for a Minimum

   Optimization Cycle:   3

                       Coordinates (Angstroms)
     ATOM                X               Y               Z
      1  C        -0.2807089262   -1.0841000667    0.5456345690
      2  C        -0.7837497763    0.3891640184    0.8251294970
      3  C         1.1235742223   -1.2902436810    0.0255696036
      4  C         0.0152732900    1.5410055716    0.2157169610
      5  O         2.0296883396   -0.8593774256    0.9339290975
      6  O         1.4240672732   -1.8338177091   -1.0078382087
      7  O         0.8662412526    1.1560361253   -0.7499718556
      8  O        -0.1492236694    2.6988202213    0.5229058020
      9  C         1.5580837593    2.1961095756   -1.4608325859
     10  C         3.4083165439   -0.9642865804    0.5437928726
     11  C        -1.4032572925   -1.7011986485   -0.3522678259
     12  C        -1.4396483176   -0.9338371356   -1.6633992840
     13  C        -1.9321904372    0.2815621998   -1.4062793884
     14  C        -2.2039394588    0.3571069810    0.0890925127
     15  C        -2.6435898063   -1.1007591141    0.3499535087
     16  C        -0.9370305207    0.6636660666    2.3287432738
     17  H         0.8444206370    2.8469235068   -1.9686933586
     18  H         3.5906298522   -0.3781907524   -0.3589361486
     19  H        -2.0060847692    1.1185889945   -2.0884561980
     20  H         2.1848413140    1.6791411422   -2.1842375799
     21  H         2.1625721538    2.7916015844   -0.7754249296
     22  H         3.9800173112   -0.5659806889    1.3793790796
     23  H         3.6781223209   -2.0045732589    0.3553227882
     24  H        -2.8565894537    1.1603365356    0.4271783093
     25  H        -1.3411429410   -2.7850856916   -0.4332405078
     26  H        -1.6197250922   -0.0561824600    2.7840989252
     27  H         0.0285258292    0.5811225584    2.8343322576
     28  H        -1.3249638596    1.6689280326    2.4948270976
     29  H        -3.5750429454   -1.3441957257   -0.1631379196
     30  H        -2.7283956772   -1.3662955638    1.4064606923
     31  H        -1.0268182516   -1.2964491809   -2.5937383075
     32  H        -0.2968911340   -1.6036511308    1.5093027805
   Point Group: c1    Number of degrees of freedom:    90


   Energy is   -768.039082183

 Hessian Updated using BFGS Update

 83 Hessian modes will be used to form the next step
  Hessian Eigenvalues:
     0.003409    0.004402    0.005283    0.007264    0.010628    0.010645
     0.010805    0.012982    0.016488    0.016914    0.019883    0.021778
     0.023104    0.025339    0.029964    0.035896    0.039701    0.041707
     0.045922    0.046507    0.047294    0.052876    0.053836    0.055231
     0.056406    0.056770    0.057679    0.067814    0.069520    0.076517
     0.090427    0.097124    0.101291    0.101404    0.105894    0.106264
     0.113522    0.119214    0.146870    0.156374    0.158538    0.159936
     0.160000    0.160831    0.169200    0.211727    0.227054    0.240190
     0.248041    0.249522    0.249796    0.250000    0.250217    0.252805
     0.254998    0.273272    0.289301    0.296071    0.299162    0.311946
     0.342588    0.344617    0.345117    0.346236    0.346423    0.346704
     0.346846    0.347066    0.347248    0.347784    0.349557    0.349683
     0.350472    0.350647    0.357149    0.359302    0.399512    0.400549
     0.514178    0.543035    0.564473    1.003595    1.019787

 Minimum Search - Taking Simple RFO Step
 Searching for Lamda that Minimizes Along All modes
 Value Taken    Lamda =  -0.00003981
 Step Taken.  Stepsize is  0.067363

                             Maximum     Tolerance    Cnvgd?
         Gradient           0.000455      0.000001      NO
         Displacement       0.027757      0.000001      NO
         Energy change     -0.000046      0.000000      NO


 New Cartesian Coordinates Obtained by Inverse Iteration

 Displacement from previous Coordinates is:  0.328541
 Adding empirical dispersion correction 
 ----------------------------------------------------------------
 Doing -D3(op) with
 s6 =   1.00000
 s8 =   0.78311
 a1 =   0.30000
 a2 =   4.25000
 n  =  10.00000
 -D3 energy without 3body term =     -0.0408349109 hartrees
 ----------------------------------------------------------------
             Standard Nuclear Orientation (Angstroms)
    I     Atom           X                Y                Z
 ----------------------------------------------------------------
    1      C      -0.2862675865    -1.0868865977     0.5482913062
    2      C      -0.7887368971     0.3876125455     0.8250225762
    3      C       1.1149348211    -1.2927194569     0.0192859409
    4      C       0.0158453972     1.5377062027     0.2200455565
    5      O       2.0255335498    -0.8346597231     0.9096927357
    6      O       1.4111965164    -1.8518870899    -1.0069542913
    7      O       0.8835396291     1.1470978442    -0.7282740648
    8      O      -0.1462457501     2.6962668879     0.5257371888
    9      C       1.5926751547     2.1821835978    -1.4292827845
   10      C       3.4011681464    -0.9327285221     0.5069598905
   11      C      -1.4116172270    -1.7073443408    -0.3445349200
   12      C      -1.4458085964    -0.9471141980    -1.6599875912
   13      C      -1.9340097471     0.2713323443    -1.4093888318
   14      C      -2.2067153868     0.3557239432     0.0850678318
   15      C      -2.6507282058    -1.0997857981     0.3533300572
   16      C      -0.9476624601     0.6633957923     2.3282382720
   17      H       0.8914603001     2.8307748633    -1.9569620682
   18      H       3.5679628138    -0.3621358447    -0.4086146280
   19      H      -2.0047097228     1.1048590193    -2.0961252719
   20      H       2.2348954019     1.6601590835    -2.1352947681
   21      H       2.1822758287     2.7811969918    -0.7340407970
   22      H       3.9773798749    -0.5127977125     1.3287211560
   23      H       3.6796258338    -1.9736344338     0.3352762161
   24      H      -2.8579174597     1.1623622405     0.4179761578
   25      H      -1.3521404839    -2.7918956219    -0.4190766300
   26      H      -1.6303293451    -0.0567766907     2.7827622303
   27      H       0.0164652150     0.5831376465     2.8368936371
   28      H      -1.3371823700     1.6682910207     2.4924294181
   29      H      -3.5820802652    -1.3435064581    -0.1597600065
   30      H      -2.7378763974    -1.3596381571     1.4109614653
   31      H      -1.0336212316    -1.3156908921    -2.5881587725
   32      H      -0.2959275801    -1.6010101857     1.5146793190
 ----------------------------------------------------------------
 Nuclear Repulsion Energy =  1239.8939507177 hartrees
 There are       60 alpha and       60 beta electrons
 Applying Cartesian multipole field
    Component          Value
    ---------          -----
     (2,0,0)        1.00000E-11
     (0,2,0)        2.00000E-11
     (0,0,2)       -3.00000E-11
 Nucleus-field energy     =     0.0000000144 hartrees
 Requested basis set is 6-311++G(d,p)
 There are 176 shells and 464 basis functions
 A cutoff of  1.0D-11 yielded  13043 shell pairs
 There are     92887 function pairs (     99229 Cartesian)
 Smallest overlap matrix eigenvalue = 1.19E-06

 Q-Chem warning in module /fs/scratch/osu6415/qchem-kaunlao-vdw/stvman/mkSTV.C, line 281:

 Overlap eigenvalue is smaller than square root of threshold

 Guess MOs from SCF MO coefficient file
 Reading MOs from coefficient file
 Reading MOs from coefficient file
 A restricted hybrid HF-DFT SCF calculation will be
 performed using Pulay DIIS extrapolation
 Exchange:     0.2000 Hartree-Fock + 0.0800 Slater + 0.7200 B88
 Correlation:  0.1900 VWN1RPA + 0.8100 LYP
 Using SG-1 standard quadrature grid
 Dispersion:   Grimme D3
 SCF converges when DIIS error is below 1.0E-08
 Geometry optimization detected.  Setting ReadMinima to 0
 Setting SaveMinima to 0
 using 20 threads for integral computing
 -------------------------------------------------------
 OpenMP Integral computing Module                
 Release: version 1.0, May 2013, Q-Chem Inc. Pittsburgh 
 -------------------------------------------------------
 -------------------------------------------------------
 OpenMP BLAS3 based DFT computing Module                
 Release: version 1.0, May 2013, Q-Chem Inc. Pittsburgh 
 -------------------------------------------------------
 ---------------------------------------
  Cycle       Energy         DIIS Error
 ---------------------------------------
    1    -768.0432003914      3.08E-04
    2    -768.0389843358      4.26E-05
    3    -768.0389516325      5.90E-05
    4    -768.0390360019      1.36E-05
    5    -768.0390394991      5.37E-06
    6    -768.0390400469      2.00E-06
    7    -768.0390401145      8.60E-07
    8    -768.0390401298      2.15E-07
    9    -768.0390401311      7.93E-08
   10    -768.0390401304      2.60E-08
   11    -768.0390401311      1.41E-08
   12    -768.0390401352      5.12E-09 Convergence criterion met
 ---------------------------------------
 SCF time:  CPU 833.83 s  wall 55.29 s
 SCF   energy in the final basis set = -768.03904014
 Total energy in the final basis set = -768.03904014
 
 --------------------------------------------------------------
 
                    Orbital Energies (a.u.)
 --------------------------------------------------------------
 
 Alpha MOs
 -- Occupied --
-19.174 -19.169 -19.114 -19.112 -10.305 -10.303 -10.231 -10.228
-10.214 -10.200 -10.194 -10.189 -10.177 -10.170 -10.169 -10.167
 -1.118  -1.109  -1.027  -1.024  -0.901  -0.801  -0.767  -0.743
 -0.726  -0.710  -0.678  -0.627  -0.588  -0.567  -0.563  -0.540
 -0.532  -0.521  -0.498  -0.495  -0.481  -0.474  -0.462  -0.458
 -0.438  -0.433  -0.421  -0.413  -0.399  -0.398  -0.383  -0.381
 -0.375  -0.363  -0.356  -0.354  -0.345  -0.338  -0.321  -0.320
 -0.307  -0.286  -0.278  -0.249
 -- Virtual --
 -0.013  -0.009  -0.008  -0.002   0.004   0.008   0.011   0.018
  0.021   0.027   0.031   0.034   0.042   0.044   0.049   0.051
  0.053   0.065   0.071   0.074   0.083   0.085   0.089   0.093
  0.098   0.101   0.105   0.108   0.111   0.115   0.121   0.123
  0.124   0.124   0.129   0.130   0.132   0.135   0.139   0.142
  0.144   0.147   0.150   0.151   0.153   0.155   0.161   0.163
  0.165   0.168   0.170   0.176   0.179   0.186   0.187   0.189
  0.195   0.202   0.205   0.207   0.208   0.214   0.216   0.220
  0.223   0.226   0.228   0.230   0.240   0.247   0.253   0.257
  0.260   0.265   0.267   0.276   0.278   0.287   0.291   0.292
  0.296   0.303   0.306   0.312   0.314   0.319   0.326   0.328
  0.333   0.338   0.339   0.343   0.346   0.351   0.353   0.359
  0.368   0.373   0.376   0.379   0.383   0.389   0.389   0.396
  0.404   0.409   0.426   0.429   0.433   0.440   0.451   0.465
  0.475   0.487   0.493   0.504   0.514   0.520   0.526   0.535
  0.544   0.547   0.565   0.582   0.590   0.593   0.598   0.615
  0.620   0.626   0.631   0.633   0.644   0.650   0.654   0.665
  0.671   0.676   0.680   0.681   0.692   0.701   0.706   0.709
  0.712   0.718   0.726   0.728   0.732   0.739   0.749   0.753
  0.764   0.777   0.780   0.785   0.791   0.798   0.805   0.817
  0.828   0.837   0.842   0.864   0.874   0.886   0.903   0.931
  0.941   0.963   0.971   1.004   1.018   1.040   1.042   1.056
  1.069   1.088   1.095   1.111   1.128   1.149   1.162   1.168
  1.194   1.199   1.207   1.215   1.232   1.248   1.257   1.268
  1.275   1.297   1.305   1.319   1.334   1.355   1.368   1.376
  1.396   1.407   1.428   1.435   1.446   1.455   1.467   1.479
  1.493   1.507   1.516   1.524   1.534   1.556   1.560   1.567
  1.572   1.579   1.582   1.592   1.599   1.608   1.615   1.643
  1.646   1.659   1.673   1.686   1.692   1.704   1.706   1.707
  1.725   1.731   1.740   1.751   1.760   1.770   1.779   1.789
  1.801   1.814   1.820   1.825   1.848   1.860   1.863   1.877
  1.886   1.896   1.907   1.917   1.945   1.957   1.970   1.978
  1.987   1.996   2.004   2.024   2.032   2.039   2.053   2.056
  2.091   2.123   2.127   2.134   2.149   2.161   2.172   2.179
  2.212   2.217   2.234   2.238   2.252   2.274   2.309   2.335
  2.356   2.380   2.413   2.420   2.446   2.465   2.471   2.474
  2.500   2.506   2.510   2.530   2.536   2.548   2.570   2.577
  2.585   2.604   2.616   2.626   2.636   2.643   2.665   2.674
  2.702   2.714   2.736   2.748   2.763   2.782   2.786   2.813
  2.834   2.841   2.848   2.863   2.868   2.885   2.901   2.922
  2.933   2.950   2.971   2.989   3.016   3.028   3.035   3.053
  3.058   3.065   3.084   3.096   3.107   3.111   3.121   3.154
  3.166   3.217   3.226   3.239   3.248   3.281   3.322   3.329
  3.351   3.394   3.399   3.420   3.461   3.516   3.604   3.607
  3.616   3.715   3.776   3.780   3.784   3.790   3.825   3.831
  3.850   3.869   3.954   4.055   4.078   4.087   4.094   4.131
  4.145   4.162   4.184   4.241   4.264   4.328   4.355   4.436
  5.042   5.128   5.151   5.157   5.266   5.271   5.423   5.467
  5.642   5.652   5.889   5.908  23.801  23.834  23.861  23.880
 23.887  23.912  23.937  23.946  23.995  24.022  24.049  24.315
 49.915  49.945  50.031  50.068
 --------------------------------------------------------------
 
          Ground-State Mulliken Net Atomic Charges

     Atom                 Charge (a.u.)
  ----------------------------------------
      1 C                     0.544536
      2 C                     0.132282
      3 C                    -0.960277
      4 C                    -0.525358
      5 O                    -0.021055
      6 O                    -0.187536
      7 O                    -0.038119
      8 O                    -0.199411
      9 C                    -0.244214
     10 C                    -0.183506
     11 C                     0.205156
     12 C                    -0.307349
     13 C                    -0.506354
     14 C                     0.389996
     15 C                    -0.727402
     16 C                    -0.308309
     17 H                     0.178801
     18 H                     0.173669
     19 H                     0.144223
     20 H                     0.163459
     21 H                     0.196241
     22 H                     0.152733
     23 H                     0.172105
     24 H                     0.275682
     25 H                     0.263592
     26 H                     0.133720
     27 H                     0.166721
     28 H                     0.187899
     29 H                     0.188366
     30 H                     0.113419
     31 H                     0.171415
     32 H                     0.254875
  ----------------------------------------
  Sum of atomic charges =    -0.000000

 -----------------------------------------------------------------
                    Cartesian Multipole Moments
 -----------------------------------------------------------------
    Charge (ESU x 10^10)
                -0.0000
    Dipole Moment (Debye)
         X       0.7792      Y      -0.4427      Z       0.4586
       Tot       1.0067
    Quadrupole Moments (Debye-Ang)
        XX     -86.0975     XY       4.6694     YY    -102.6538
        XZ      -0.7439     YZ      -9.0135     ZZ     -94.5397
    Octopole Moments (Debye-Ang^2)
       XXX      60.1330    XXY       7.5533    XYY       9.5719
       YYY     -16.2918    XXZ       7.9748    XYZ      -7.6203
       YYZ      -8.4375    XZZ       7.3909    YZZ      11.1290
       ZZZ      -6.3152
    Hexadecapole Moments (Debye-Ang^3)
      XXXX   -1738.6831   XXXY     -34.1727   XXYY    -494.7158
      XYYY      19.7289   YYYY   -1318.3051   XXXZ       9.5693
      XXYZ     -23.5328   XYYZ       8.8474   YYYZ     -60.0344
      XXZZ    -453.3335   XYZZ       8.6700   YYZZ    -337.9485
      XZZZ       0.7870   YZZZ     -16.8475   ZZZZ    -820.0150
 -----------------------------------------------------------------
 Calculating analytic gradient of the SCF energy
 Gradient of SCF Energy
            1           2           3           4           5           6
    1   0.0001491   0.0003468  -0.0003981  -0.0007626  -0.0003084   0.0001153
    2   0.0002167  -0.0001105  -0.0003801   0.0001466   0.0009024   0.0001181
    3  -0.0001311   0.0006927  -0.0002087  -0.0009483  -0.0004317  -0.0000190
            7           8           9          10          11          12
    1   0.0008905   0.0002624   0.0000134   0.0001988   0.0000850  -0.0003334
    2  -0.0007459   0.0000777  -0.0000544   0.0000259   0.0000434  -0.0002024
    3   0.0010651   0.0003791  -0.0000824  -0.0001075   0.0000360   0.0000404
           13          14          15          16          17          18
    1  -0.0001633  -0.0001292   0.0000177   0.0000867  -0.0000266   0.0000086
    2  -0.0002292  -0.0000600   0.0001624   0.0000403  -0.0000156   0.0000162
    3  -0.0002264  -0.0001993   0.0000233  -0.0000663  -0.0000294  -0.0000244
           19          20          21          22          23          24
    1  -0.0000026   0.0000143   0.0000221  -0.0000013  -0.0000246   0.0000386
    2  -0.0000324  -0.0000844   0.0000242   0.0000272  -0.0000034  -0.0000065
    3   0.0000099   0.0000172  -0.0000910  -0.0000290   0.0000200   0.0000313
           25          26          27          28          29          30
    1  -0.0000013  -0.0000534  -0.0000172   0.0000152   0.0000032   0.0000492
    2  -0.0000434  -0.0000078   0.0000032   0.0000262   0.0000050   0.0000305
    3   0.0000301  -0.0000078  -0.0000235  -0.0000195   0.0000555   0.0000976
           31          32
    1   0.0000014  -0.0000961
    2  -0.0000392   0.0001493
    3   0.0000454   0.0001016
 Max gradient component =       1.065E-03
 RMS gradient           =       2.686E-04
 Gradient time:  CPU 335.97 s  wall 25.02 s
 Geometry Optimization Parameters
   NAtoms,    NIC,     NZ,  NCons,   NDum,   NFix, NCnnct, MaxDiis
       32     251       0       0       0       0       0       0

 Cartesian Hessian Update
 Hessian Updated using BFGS Update


** GEOMETRY OPTIMIZATION IN DELOCALIZED INTERNAL COORDINATES **
   Searching for a Minimum

   Optimization Cycle:   4

                       Coordinates (Angstroms)
     ATOM                X               Y               Z
      1  C        -0.2862675865   -1.0868865977    0.5482913062
      2  C        -0.7887368971    0.3876125455    0.8250225762
      3  C         1.1149348211   -1.2927194569    0.0192859409
      4  C         0.0158453972    1.5377062027    0.2200455565
      5  O         2.0255335498   -0.8346597231    0.9096927357
      6  O         1.4111965164   -1.8518870899   -1.0069542913
      7  O         0.8835396291    1.1470978442   -0.7282740648
      8  O        -0.1462457501    2.6962668879    0.5257371888
      9  C         1.5926751547    2.1821835978   -1.4292827845
     10  C         3.4011681464   -0.9327285221    0.5069598905
     11  C        -1.4116172270   -1.7073443408   -0.3445349200
     12  C        -1.4458085964   -0.9471141980   -1.6599875912
     13  C        -1.9340097471    0.2713323443   -1.4093888318
     14  C        -2.2067153868    0.3557239432    0.0850678318
     15  C        -2.6507282058   -1.0997857981    0.3533300572
     16  C        -0.9476624601    0.6633957923    2.3282382720
     17  H         0.8914603001    2.8307748633   -1.9569620682
     18  H         3.5679628138   -0.3621358447   -0.4086146280
     19  H        -2.0047097228    1.1048590193   -2.0961252719
     20  H         2.2348954019    1.6601590835   -2.1352947681
     21  H         2.1822758287    2.7811969918   -0.7340407970
     22  H         3.9773798749   -0.5127977125    1.3287211560
     23  H         3.6796258338   -1.9736344338    0.3352762161
     24  H        -2.8579174597    1.1623622405    0.4179761578
     25  H        -1.3521404839   -2.7918956219   -0.4190766300
     26  H        -1.6303293451   -0.0567766907    2.7827622303
     27  H         0.0164652150    0.5831376465    2.8368936371
     28  H        -1.3371823700    1.6682910207    2.4924294181
     29  H        -3.5820802652   -1.3435064581   -0.1597600065
     30  H        -2.7378763974   -1.3596381571    1.4109614653
     31  H        -1.0336212316   -1.3156908921   -2.5881587725
     32  H        -0.2959275801   -1.6010101857    1.5146793190
   Point Group: c1    Number of degrees of freedom:    90


   Energy is   -768.039040135

 Hessian Updated using BFGS Update

 85 Hessian modes will be used to form the next step
  Hessian Eigenvalues:
     0.003617    0.004310    0.005809    0.010266    0.010554    0.010804
     0.012979    0.014030    0.016816    0.016989    0.020083    0.021772
     0.023104    0.025328    0.033189    0.038798    0.041432    0.045624
     0.046302    0.046649    0.050481    0.053774    0.054911    0.056290
     0.056666    0.057446    0.062586    0.068031    0.072003    0.077058
     0.092640    0.101208    0.101380    0.102075    0.105894    0.106294
     0.113554    0.119962    0.155387    0.157201    0.158698    0.159816
     0.159999    0.160218    0.161127    0.177792    0.211981    0.229829
     0.239620    0.247251    0.249541    0.249940    0.250000    0.250044
     0.251667    0.254929    0.270595    0.278338    0.288034    0.298782
     0.299962    0.312095    0.342030    0.344628    0.345015    0.346142
     0.346241    0.346705    0.346846    0.347063    0.347249    0.347786
     0.349529    0.349701    0.350473    0.350647    0.357141    0.359251
     0.399512    0.400876    0.514461    0.543065    0.564479    1.003723
     1.019730

 Minimum Search - Taking Simple RFO Step
 Searching for Lamda that Minimizes Along All modes
 Value Taken    Lamda =  -0.00015355
 Step Taken.  Stepsize is  0.061110

                             Maximum     Tolerance    Cnvgd?
         Gradient           0.002572      0.000001      NO
         Displacement       0.024089      0.000001      NO
         Energy change      0.000042      0.000000      NO


 New Cartesian Coordinates Obtained by Inverse Iteration

 Displacement from previous Coordinates is:  0.286979
 Adding empirical dispersion correction 
 ----------------------------------------------------------------
 Doing -D3(op) with
 s6 =   1.00000
 s8 =   0.78311
 a1 =   0.30000
 a2 =   4.25000
 n  =  10.00000
 -D3 energy without 3body term =     -0.0407585032 hartrees
 ----------------------------------------------------------------
[...]
     0.00009787      0.00000900      0.00008090
     0.00003145      0.00011465      0.00014011
     0.00001340      0.00003028     -0.00000587
    -0.00000173      0.00017290      0.00009494
    -0.00002140     -0.00052232      0.00033085
     0.00016074     -0.00009384      0.00006862
    -0.00045471     -0.00688570     -0.00025577
    -0.00024849     -0.00024972     -0.00000186
    -0.00040672     -0.00002025     -0.00006292
    -0.00430126      0.00435587      0.00238857
     0.04339981      0.02577596     -0.04193939
    -0.00758928     -0.00508462     -0.00825862
    -0.00617144      0.00558747     -0.00443593
    -0.00028293     -0.00050407      0.00076123
     0.00175975     -0.00097126      0.00101460
     0.00305296     -0.00246294     -0.00342167
     0.00334804      0.00313029      0.00382309
    -0.00092906     -0.00076239     -0.00153787
    -0.00059685      0.00236347      0.00032871
     0.05321221     -0.06005503     -0.02754370
    -0.00199933      0.08638763      0.00452728
    -0.01843569     -0.01816625      0.00952874
     0.14240446     -0.01295242      0.07380907
    -0.03699229      0.08640062      0.01270906
    -0.44891503     -0.11374713     -0.26797536
    -0.04849535     -0.18328193      0.76702030
     0.00078835      0.00140262      0.00129046
    -0.00498127     -0.08545971      0.16383711
vibration 80
     0.00043133      0.00033260     -0.00063843
    -0.00087591     -0.00023912     -0.00028398
    -0.00007525     -0.00013107     -0.00026876
     0.00029580     -0.00008336     -0.00050094
     0.00000462      0.00005523      0.00009004
     0.00000734      0.00005342      0.00011507
    -0.00003295      0.00002110      0.00008297
     0.00004255      0.00018946     -0.00000577
     0.00044621      0.00010895      0.00041835
     0.00017300      0.00026209     -0.00011770
    -0.00055950      0.00248770     -0.00030506
     0.00014741      0.00004941      0.00006311
     0.00006300      0.00055223     -0.00022619
     0.00647656     -0.00835349     -0.00373274
    -0.02323000     -0.00301757     -0.02686437
    -0.08275515     -0.01320808      0.00154817
    -0.00225751      0.00202459     -0.00155233
    -0.00065794     -0.00194354      0.00314268
     0.00082105     -0.00774851      0.00580571
     0.00000720     -0.00000454      0.00012417
    -0.00301554     -0.00305978     -0.00369123
    -0.00094536     -0.00070957     -0.00148640
    -0.00005334     -0.00030728     -0.00004596
    -0.07749740      0.09613513      0.04237811
     0.00165314     -0.02799597     -0.00113587
     0.38776181      0.43100343     -0.25945913
     0.53563175     -0.04871521      0.28356262
     0.06726436     -0.22293719     -0.03344922
     0.29291600      0.07659580      0.16235319
    -0.01695940     -0.04128848      0.15817811
    -0.00018137      0.00048211      0.00111358
    -0.00055245     -0.00370105      0.00770243
vibration 81
     0.00012196      0.00126839     -0.00200899
     0.00096838      0.00034515      0.00003968
     0.00027015     -0.00002678     -0.00007817
     0.00001627     -0.00014056      0.00000273
    -0.00004595     -0.00001291     -0.00002668
    -0.00006966      0.00003516      0.00008424
    -0.00001370      0.00000754      0.00005358
    -0.00008423     -0.00003207      0.00011453
     0.00037801     -0.00003421      0.00038873
     0.00013892     -0.00110498      0.00049917
    -0.00113812      0.00894435     -0.00033241
     0.00004842      0.00022677      0.00013206
     0.00028623     -0.00055128      0.00015002
    -0.00180057      0.00117947     -0.00038485
    -0.04940654     -0.00358325     -0.07073468
     0.03540684     -0.00455460     -0.00054133
    -0.00290244      0.00254887     -0.00198878
     0.00121420      0.00446271     -0.00729637
     0.00057835      0.00139601      0.00024569
     0.00021834     -0.00014476     -0.00015706
    -0.00209678     -0.00214640     -0.00254940
    -0.00044484     -0.00050145     -0.00053285
    -0.00223838      0.00920228      0.00164005
     0.01272952     -0.01607670     -0.00575363
     0.00540228     -0.10511364     -0.00604487
    -0.13484931     -0.15239438      0.09223568
    -0.22486936      0.01785090     -0.11826668
    -0.06610612      0.18655738      0.02909777
     0.63529681      0.16716749      0.35024801
    -0.04353647     -0.12445938      0.50204475
    -0.00099649      0.00161548      0.00396176
     0.00113894     -0.01336612      0.02715751
vibration 82
    -0.00034176      0.00021719      0.00023117
     0.00025039      0.00000783     -0.00028602
    -0.00001010     -0.00016309     -0.00025675
     0.00008530     -0.00067535      0.00001874
     0.00003210      0.00001787      0.00005770
     0.00002211      0.00010432      0.00011185
    -0.00002507      0.00006701      0.00005356
    -0.00011588      0.00033575      0.00002373
    -0.00025593      0.00007231     -0.00002319
    -0.00008043      0.00095231     -0.00026683
     0.00136790     -0.03096390     -0.00177715
    -0.00064098      0.00092625      0.00140850
    -0.00074627      0.00421197     -0.00196865
     0.04632394     -0.05794457     -0.02491549
     0.00169820      0.00259239     -0.00399193
     0.01012479      0.00781720     -0.00157313
     0.00099563     -0.00090929      0.00058853
    -0.00086652     -0.00317691      0.00522823
     0.00454564     -0.04545715      0.03236959
     0.00114984     -0.00094488     -0.00141086
     0.00084575      0.00083327      0.00096327
    -0.00040846     -0.00009595     -0.00063113
     0.00195035     -0.00801922     -0.00144087
    -0.54428536      0.67353116      0.28322410
    -0.01957004      0.36673310      0.02616122
    -0.07630551     -0.08315955      0.05090942
    -0.05506632      0.00711223     -0.02829970
     0.01004867     -0.01697312     -0.00203974
    -0.01359554     -0.00613164     -0.00855290
    -0.00363736     -0.01632789      0.05651629
     0.00815769     -0.00755068     -0.01607408
    -0.00049624      0.00079745     -0.00373418
vibration 83
    -0.00002993     -0.00015258     -0.00002774
     0.00002700     -0.00003657     -0.00002809
    -0.00001510      0.00017557     -0.00004498
    -0.00016629     -0.00000096      0.00012569
    -0.00003924      0.00028473     -0.00014597
    -0.00005737      0.00010198     -0.00008291
     0.00004931      0.00002956     -0.00008532
     0.00002360     -0.00000580     -0.00003512
     0.00678202     -0.00124370      0.00482066
     0.00687824     -0.08486635      0.04036864
    -0.00025018      0.00426321      0.00030314
     0.00008995     -0.00012569     -0.00011373
    -0.00002888      0.00020281     -0.00009070
     0.00160475     -0.00203162     -0.00084910
     0.00126874      0.00024841      0.00101548
    -0.00047177      0.00087703     -0.00007601
    -0.04311939      0.03961586     -0.02997505
     0.10018305      0.35517388     -0.58210581
     0.00013095     -0.00208347      0.00148555
    -0.00648720      0.00618152      0.00987087
    -0.03040380     -0.03090883     -0.03701214
    -0.01677524     -0.02999597     -0.01844098
    -0.16402096      0.67878861      0.12328302
    -0.01857916      0.02306398      0.00969716
     0.00267176     -0.04912830     -0.00351001
    -0.00119251     -0.00111100      0.00068740
     0.00333750     -0.00016105      0.00182636
     0.00353875     -0.00916568     -0.00140422
    -0.01489320     -0.00382105     -0.00814312
     0.00032796      0.00109906     -0.00434913
    -0.00095965      0.00091498      0.00177315
    -0.00018267     -0.00040085      0.00125480
vibration 84
     0.00071107     -0.00216374      0.00407412
     0.00017768      0.00070106      0.00046248
     0.00021068     -0.00038242     -0.00056891
    -0.00000159      0.00041125     -0.00004998
    -0.00011289      0.00004508      0.00007225
    -0.00005517      0.00024943      0.00023924
    -0.00002979     -0.00003537      0.00000458
     0.00003937     -0.00020361     -0.00001077
    -0.00119792      0.00020239     -0.00107930
     0.00048823     -0.00514474      0.00244510
     0.00459581     -0.07863664     -0.00527422
    -0.00144063      0.00207794      0.00197664
     0.00023502     -0.00154620      0.00043865
    -0.01838800      0.02366021      0.00978560
    -0.01192305     -0.00343263     -0.00320729
    -0.00225680     -0.00199915      0.00063630
     0.00858102     -0.00786620      0.00600125
     0.00592601      0.02111962     -0.03471071
    -0.00214924      0.01725092     -0.01206813
     0.00003648     -0.00028224     -0.00047633
     0.00573742      0.00592766      0.00710004
    -0.00183159     -0.00228889     -0.00201985
    -0.01017252      0.04178585      0.00757745
     0.21307702     -0.26393902     -0.11076398
    -0.04860452      0.90845667      0.06495263
     0.01988624      0.02161679     -0.01307728
     0.00921898     -0.00166785      0.00421754
    -0.00227758      0.00358984     -0.00004155
     0.12935807      0.03288276      0.07026178
     0.00345321      0.00590910     -0.02809641
     0.01648719     -0.01685005     -0.03234794
    -0.00142096      0.02232906     -0.04612542
vibration 85
    -0.00000267      0.00007531     -0.00015468
    -0.00015907      0.00000562     -0.00017602
    -0.00014372     -0.00004154     -0.00011045
     0.00021116     -0.00002008      0.00005428
     0.00008588      0.00006387      0.00002641
     0.00002214      0.00002375      0.00003978
     0.00024942     -0.00008089      0.00029238
     0.00012440      0.00000349      0.00006113
    -0.07354796      0.00690774     -0.05898780
     0.00044093     -0.00736470      0.00373820
    -0.00011563      0.00186162      0.00010880
     0.00001247     -0.00001556     -0.00002091
     0.00002866     -0.00013145      0.00010944
     0.00039302     -0.00057038     -0.00022362
    -0.00001561      0.00008108     -0.00043325
    -0.00027908     -0.00067126      0.00002119
     0.45915454     -0.42001438      0.31566805
     0.00930211      0.03206903     -0.05333872
     0.00030515      0.00152212     -0.00107521
     0.03747993     -0.04162499     -0.07056775
     0.37196085      0.38061827      0.45234816
    -0.00103216     -0.00242748     -0.00097121
    -0.01358107      0.05713250      0.01015187
    -0.00475577      0.00592138      0.00252241
     0.00117150     -0.02145024     -0.00144859
     0.00351402      0.00363630     -0.00227756
     0.00215646     -0.00033689      0.00130951
    -0.00206472      0.00486301      0.00075797
     0.00085739      0.00021081      0.00045414
    -0.00048103     -0.00119091      0.00474868
    -0.00033506      0.00045286      0.00069102
     0.00000860     -0.00092949      0.00203636
vibration 86
    -0.00018270     -0.00091943      0.00242138
     0.00025349     -0.00144554      0.00003836
    -0.00019334      0.00003452      0.00005981
     0.00017717     -0.00076938     -0.00065574
     0.00005340      0.00001663     -0.00000634
     0.00006952     -0.00004265     -0.00006954
    -0.00006561      0.00009364      0.00010694
    -0.00023926      0.00031923      0.00049979
     0.00035097      0.00029414      0.00071331
    -0.00001500     -0.00046197      0.00041919
     0.00021560     -0.00120935     -0.00002216
    -0.00000378     -0.00003083      0.00002058
    -0.00008767      0.00048011     -0.00025372
     0.00372185     -0.00461226     -0.00190948
     0.00407435     -0.00037936      0.00890723
     0.01093768     -0.09022520      0.01231313
    -0.00244512      0.00224297     -0.00165440
     0.00098639      0.00300349     -0.00493200
     0.00028811     -0.00395879      0.00277450
     0.00234553     -0.00181217     -0.00243450
    -0.00363634     -0.00369549     -0.00447488
    -0.00040709     -0.00045792     -0.00058968
    -0.00058925      0.00283549      0.00055291
    -0.04491664      0.05446064      0.02256203
    -0.00095703      0.01549998      0.00101199
     0.32130741      0.32605023     -0.20158821
    -0.14168605     -0.00716368     -0.06980425
    -0.30608282      0.76768434      0.12452341
    -0.05558917     -0.01456895     -0.03049344
     0.00534323      0.01813418     -0.07904986
     0.00016090     -0.00005915     -0.00081659
    -0.00042328      0.01734712     -0.02657887
vibration 87
    -0.00000264      0.00004961      0.00004295
    -0.00000551     -0.00001602     -0.00000277
     0.00088221     -0.00041151     -0.00081592
     0.00003790     -0.00000765     -0.00007545
     0.00012519      0.00020533      0.00028049
    -0.00028649      0.00021994      0.00041942
    -0.00000428      0.00000729      0.00001634
    -0.00000455      0.00001896      0.00002161
    -0.00241418      0.00364255      0.00336156
    -0.02934479     -0.04081417     -0.07971626
     0.00001528     -0.00009699     -0.00000340
    -0.00001989      0.00002003      0.00005228
    -0.00000498      0.00002769     -0.00002795
     0.00006205     -0.00007134     -0.00002719
     0.00000893      0.00001391     -0.00004541
    -0.00004451     -0.00010419     -0.00001318
     0.00973559     -0.00806880      0.00777703
    -0.04484427     -0.16347369      0.22521287
     0.00005004     -0.00037463      0.00032144
     0.03026602     -0.02538824     -0.03453833
    -0.01177325     -0.01007507     -0.01298792
     0.46535707      0.34129124      0.68880392
    -0.07858509      0.30580263      0.03260095
    -0.00076034      0.00092042      0.00036403
     0.00000763      0.00121384      0.00007651
     0.00046918      0.00045047     -0.00026590
     0.00033045     -0.00007298      0.00023204
    -0.00038685      0.00095040      0.00018625
    -0.00004084      0.00000283     -0.00002126
    -0.00003912     -0.00014589      0.00054397
     0.00031071     -0.00025233     -0.00054715
    -0.00030962     -0.00025049      0.00057624
vibration 88
    -0.00000222      0.00001275      0.00000527
    -0.00000949      0.00004629      0.00002193
     0.00015101     -0.00005700     -0.00013655
    -0.00030118     -0.00120059      0.00019777
    -0.00002913      0.00001798      0.00002802
    -0.00005266      0.00003304      0.00007417
    -0.00013778      0.00026673      0.00019824
     0.00004724      0.00053359      0.00003034
     0.03978640     -0.06286119     -0.05824588
    -0.00163324     -0.00173647     -0.00506524
    -0.00000369     -0.00004880     -0.00001389
    -0.00004437      0.00004929      0.00010609
    -0.00000766      0.00001409     -0.00002154
     0.00009445     -0.00010916     -0.00007003
    -0.00003249     -0.00000803     -0.00003991
     0.00001092     -0.00045942      0.00004608
    -0.16286562      0.13587114     -0.12967621
    -0.00387393     -0.01280786      0.01858456
    -0.00002666     -0.00046747      0.00020827
    -0.51516672      0.43147290      0.58670285
     0.20905711      0.18154035      0.23090686
     0.02691208      0.01976095      0.03997461
    -0.00364789      0.01362396      0.00135950
    -0.00120407      0.00137871      0.00061475
    -0.00000665      0.00077000      0.00007993
     0.00183360      0.00193921     -0.00117965
    -0.00025311     -0.00013697     -0.00006010
    -0.00164763      0.00383771      0.00073359
     0.00051139      0.00018293      0.00028500
    -0.00004626     -0.00008990      0.00023750
     0.00061738     -0.00041974     -0.00120753
    -0.00001549      0.00014494     -0.00011627
vibration 89
     0.00004573      0.00015977     -0.00002319
    -0.00017674      0.00008717     -0.00004950
    -0.00001326     -0.00011795     -0.00016449
    -0.00003819     -0.00029288      0.00026395
     0.00003093      0.00003172      0.00003597
     0.00004329      0.00003230      0.00010067
    -0.00002357      0.00004461     -0.00009288
    -0.00002375      0.00011942     -0.00004783
     0.00023750     -0.00003826      0.00006355
    -0.00004537     -0.00006496     -0.00002158
    -0.00001797     -0.00154864     -0.00011723
     0.01019522     -0.00701347     -0.02584894
     0.00658545     -0.06360181      0.04991838
     0.00304570     -0.00362814     -0.00324711
     0.00016862      0.00065913     -0.00042168
    -0.00002865     -0.00007098     -0.00002746
    -0.00057269      0.00123559     -0.00071639
     0.00007911      0.00012068     -0.00030702
    -0.06214597      0.71436011     -0.58313375
    -0.00055578      0.00053201      0.00069640
    -0.00076079     -0.00068831     -0.00101326
     0.00035866      0.00026167      0.00055173
    -0.00006575      0.00030188     -0.00000070
    -0.03338164      0.04064524      0.02144334
    -0.00030512      0.01732733      0.00086788
     0.00030659      0.00043083     -0.00035092
     0.00135851     -0.00006420      0.00121094
    -0.00029901      0.00049709      0.00015588
    -0.00131068     -0.00066660     -0.00084067
    -0.00004896     -0.00179379      0.00330087
    -0.14030418      0.12267319      0.31631575
    -0.00041524     -0.00017585     -0.00011695
vibration 90
     0.00014057     -0.00004826      0.00041985
    -0.00001895      0.00004964      0.00015312
     0.00016538     -0.00020109     -0.00043058
     0.00012295      0.00008407     -0.00021243
    -0.00002010      0.00004376      0.00007076
     0.00002582      0.00004844      0.00027354
    -0.00003518      0.00000136      0.00010216
    -0.00002145     -0.00002999      0.00003912
    -0.00004311     -0.00007682     -0.00011788
    -0.00001010     -0.00000057     -0.00006819
     0.00044590     -0.00429113      0.00183417
     0.03284089     -0.03381556     -0.07103328
    -0.00517058      0.03166016     -0.01865088
    -0.00089449      0.00126266      0.00200990
    -0.00076432     -0.00026745      0.00087170
     0.00012278      0.00005864     -0.00000547
     0.00009982     -0.00039581      0.00012223
    -0.00011949     -0.00027763      0.00036977
     0.02537168     -0.28048206      0.22490171
    -0.00060997      0.00037390      0.00053494
     0.00060335      0.00055344      0.00077461
     0.00010257      0.00014347      0.00028620
    -0.00007940      0.00009085     -0.00002992
     0.00984261     -0.01293067     -0.00828194
    -0.00261354      0.03986634     -0.00195533
    -0.00064259     -0.00073287      0.00054898
    -0.00113525      0.00015536     -0.00060883
     0.00022622     -0.00024084     -0.00008923
     0.00361429      0.00077961      0.00170694
     0.00062217      0.00072114     -0.00416623
    -0.35461728      0.31699884      0.79574279
    -0.00058902      0.00087593     -0.00274959
[INT]
    2.254947
    0.847789
    1.139363
    1.146907
    1.081769
    1.397046
    0.114402
    0.007777
    3.350239
    5.249641
    0.167619
    0.953133
    3.366453
   11.654696
    0.309445
    3.267619
   14.067950
    1.029936
    1.159862
    2.916237
   12.883493
    2.585782
    5.369493
   21.761262
   14.960309
    6.451171
    7.557577
    4.138808
    8.492371
   19.886161
    9.432456
   14.236873
    5.210211
    4.323372
    3.982663
    4.441782
    7.020992
    0.423274
    1.551348
   12.558023
   39.474235
    6.487739
   12.186256
    7.021691
    5.999717
   37.781044
   16.196261
    2.567276
    4.469574
   76.869605
  138.159347
   49.236238
   67.991064
   69.198659
  118.998642
   43.836224
   12.219830
   72.008206
   44.038142
   11.839693
   24.460857
   10.454297
    7.608488
   20.925787
    5.546517
    9.355915
    3.874762
   12.679218
    7.427227
    1.797122
   11.967419
    2.802111
  292.379289
  197.593465
    6.134698
   23.620181
   23.411390
   36.866910
   41.341523
   27.600259
   18.249729
   31.777969
   22.115529
   21.107547
   16.272492
   14.176922
   13.045588
   10.390194
    5.916997
    5.559019

======= END OF MOLDEN-FORMATTED INPUT FILE =======


        *************************************************************
        *                                                           *
        *  Thank you very much for using Q-Chem.  Have a nice day.  *
        *                                                           *
        *************************************************************


