r0215.ten.osc.edu 10.25.156
Q-Chem Developer Version! Running on 10.25.156.*
                  Welcome to Q-Chem
     A Quantum Leap Into The Future Of Chemistry


 Q-Chem 5.0, Q-Chem, Inc., Pleasanton, CA (2017)

 Yihan Shao,  Zhengting Gan,  E. Epifanovsky,  A. T. B. Gilbert,  M. Wormit,  
 J. Kussmann,  A. W. Lange,  A. Behn,  Jia Deng,  Xintian Feng,  D. Ghosh,  
 M. Goldey,  P. R. Horn,  L. D. Jacobson,  I. Kaliman,  T. Kus,  A. Landau,  
 Jie Liu,  E. I. Proynov,  R. M. Richard,  R. P. Steele,  E. J. Sundstrom,  
 H. L. Woodcock III,  P. M. Zimmerman,  D. Zuev,  B. Albrecht,  E. Alguire,  
 S. A. Baeppler,  Z. Benda,  Y. A. Bernard,  E. J. Berquist,  K. B. Bravaya,  
 D. Casanova,  Chun-Min Chang,  Yunqing Chen,  A. Chien,  K. D. Closser,  
 M. P. Coons,  S. Dasgupta,  M. Diedenhofen,  Hainam Do,  R. G. Edgar,  
 Po-Tung Fang,  S. Fatehi,  Qingguo Feng,  Qinghui Ge,  A. Ghysels,  
 J. Gomes,  J. Gonthier,  A. Gunina,  M. W. D. Hanson-Heine,  
 P. H. P. Harbach,  A. W. Hauser,  J. E. Herr,  E. G. Hohenstein,  
 Z. C. Holden,  Kerwin Hui,  T.-C. Jagau,  Hyunjun Ji,  B. Kaduk,  
 K. Khistyaev,  Jaehoon Kim,  P. Klunzinger,  K. Koh,  D. Kosenkov,  
 T. Kowalczyk,  C. M. Krauter,  A. Kunitsa,  Ka Un Lao,  A. Laurent,  
 K. V. Lawler,  Joonho Lee,  D. Lefrancois,  S. Lehtola,  D. S. Levine,  
 Yi-Pei Li,  You-Sheng Lin,  Fenglai Liu,  E. Livshits,  A. Luenser,  
 P. Manohar,  E. Mansoor,  S. F. Manzer,  Shan-Ping Mao,  Yuezhi Mao,  
 N. Mardirossian,  A. V. Marenich,  L. A. Martinez-Martinez,  S. A. Maurer,  
 N. J. Mayhall,  S. C. McKenzie,  J.-M. Mewes,  A. F. Morrison,  K. Nanda,  
 T. S. Nguyen-Beck,  R. Olivares-Amaya,  J. A. Parkhill,  T. M. Perrine,  
 F. Plasser,  S. Prager,  A. Prociuk,  D. R. Rehn,  F. Rob,  M. Schneider,  
 N. Sergueev,  S. M. Sharada,  S. Sharma,  D. W. Small,  T. Stauch,  
 T. Stein,  Yu-Chuan Su,  A. J. W. Thom,  T. Tsuchimochi,  L. Vogt,  
 O. Vydrov,  M. A. Watson,  J. Wenzel,  M. de Wergifosse,  T. A. Wesolowski,  
 A. White,  J. Witte,  A. Yamada,  Jun Yang,  K. Yao,  S. Yeganeh,  
 S. R. Yost,  Zhi-Qiang You,  A. Zech,  Igor Ying Zhang,  Xing Zhang,  
 Yan Zhao,  Ying Zhu,  B. R. Brooks,  G. K. L. Chan,  C. J. Cramer,  
 M. S. Gordon,  W. J. Hehre,  A. Klamt,  M. W. Schmidt,  C. D. Sherrill,  
 D. G. Truhlar,  A. Aspuru-Guzik,  R. Baer,  A. T. Bell,  N. A. Besley,  
 Jeng-Da Chai,  A. Dreuw,  B. D. Dunietz,  T. R. Furlani,  Chao-Ping Hsu,  
 Yousung Jung,  Jing Kong,  D. S. Lambrecht,  WanZhen Liang,  C. Ochsenfeld,  
 V. A. Rassolov,  L. V. Slipchenko,  J. E. Subotnik,  T. Van Voorhis,  
 J. M. Herbert,  A. I. Krylov,  P. M. W. Gill,  M. Head-Gordon

 Contributors to earlier versions of Q-Chem not listed above: 
 R. D. Adamson,  B. Austin,  J. Baker,  G. J. O. Beran,  K. Brandhorst,  
 S. T. Brown,  E. F. C. Byrd,  A. K. Chakraborty,  C.-L. Cheng,  
 Siu Hung Chien,  D. M. Chipman,  D. L. Crittenden,  H. Dachsel,  
 R. A. DiStasio Jr.,  R. J. Doerksen,  A. D. Dutoi,  L. Fusti-Molnar,  
 W. A. Goddard III,  A. Golubeva-Zadorozhnaya,  S. R. Gwaltney,  G. Hawkins,  
 A. Heyden,  S. Hirata,  G. Kedziora,  F. J. Keil,  C. Kelley,  Jihan Kim,  
 R. A. King,  R. Z. Khaliullin,  P. P. Korambath,  W. Kurlancheek,  
 A. M. Lee,  M. S. Lee,  S. V. Levchenko,  Ching Yeh Lin,  D. Liotard,  
 R. C. Lochan,  I. Lotan,  P. E. Maslen,  N. Nair,  D. P. O'Neill,  
 D. Neuhauser,  E. Neuscamman,  C. M. Oana,  R. Olson,  B. Peters,  
 R. Peverati,  P. A. Pieniazek,  Y. M. Rhee,  J. Ritchie,  M. A. Rohrdanz,  
 E. Rosta,  N. J. Russ,  H. F. Schaefer III,  N. E. Schultz,  N. Shenvi,  
 A. C. Simmonett,  A. Sodt,  D. Stuck,  K. S. Thanthiriwatte,  V. Vanovschi,  
 Tao Wang,  A. Warshel,  C. F. Williams,  Q. Wu,  X. Xu,  W. Zhang

 Please cite Q-Chem as follows:
 Y. Shao et al., Mol. Phys. 113, 184-215 (2015)
 DOI: 10.1080/00268976.2014.952696

 Q-Chem 5.0.1 for Intel X86 EM64T Linux

 Parts of Q-Chem use Armadillo 5.200.1 (Boston Tea Smuggler).
 http://arma.sourceforge.net/

 Q-Chem begins on Tue Oct 24 04:31:03 2017  

Host: r0215.ten.osc.edu
0

     Scratch files written to /tmp/pbstmp.1324357/03//
Processing $rem in /users/PAS0291/osu6415/.qchemrc.
molden_format             true

Checking the input file for inconsistencies... 	...done.

--------------------------------------------------------------
User input:
--------------------------------------------------------------
$molecule
0 1
C -0.65180963 -0.92699201 0.73007596
C -0.69644833 0.66116969 0.77273625
C 0.58029690 -1.70876046 0.31100235
C 0.62357858 1.38319179 0.44989039
O 1.68429535 -0.96778374 0.13346315
O 0.56177591 -2.90990030 0.17140273
O 0.80646887 1.61430328 -0.86364150
O 1.40268125 1.76636603 1.28892792
C 2.05047729 2.23188369 -1.22596354
C 2.87720619 -1.67719650 -0.24818873
C -1.86098120 -1.30238551 -0.21398098
C -1.45749671 -0.87656594 -1.61722939
C -1.46350598 0.45913544 -1.64141475
C -1.87078435 0.94882985 -0.25628552
C -2.86353476 -0.18124013 0.12163180
C -1.08172372 1.13183338 2.19135041
H 2.14293088 3.21627739 -0.76483382
H 2.75327324 -2.11605402 -1.23948708
H -1.15548899 1.10224229 -2.45176850
H 2.02722124 2.31650016 -2.31073425
H 2.88694550 1.60788644 -0.90746620
H 3.66782638 -0.93028423 -0.25342399
H 3.09799949 -2.46651854 0.47082237
H -2.23227683 1.97565041 -0.20201625
H -2.18259539 -2.33397965 -0.09152585
H -1.98797096 0.64180866 2.54504270
H -0.27509944 0.91484173 2.89182289
H -1.24838371 2.21188452 2.20619504
H -3.73045614 -0.19933641 -0.53997164
H -3.20065910 -0.17281461 1.15869694
H -1.13565815 -1.55126350 -2.39924887
H -0.86767812 -1.29539738 1.73766908
$end

$rem
sym_ignore      true
jobtype         ts
method          b3lyp
basis           6-311++G(d,p)
dft_d           d3_op
mem_total       62000
MEM_STATIC      4000
ao2mo_disk      350000
max_scf_cycles  200
geom_opt_max_cycles 1000
geom_opt_tol_displacement 1
GEOM_OPT_TOL_GRADIENT       1
GEOM_OPT_TOL_ENERGY         1
$end

--------------------------------------------------------------
 Adding empirical dispersion correction 
 ----------------------------------------------------------------
 Doing -D3(op) with
 s6 =   1.00000
 s8 =   0.78311
 a1 =   0.30000
 a2 =   4.25000
 n  =  10.00000
 -D3 energy without 3body term =     -0.0400266092 hartrees
 ----------------------------------------------------------------
             Standard Nuclear Orientation (Angstroms)
    I     Atom           X                Y                Z
 ----------------------------------------------------------------
    1      C      -0.6518096300    -0.9269920100     0.7300759600
    2      C      -0.6964483300     0.6611696900     0.7727362500
    3      C       0.5802969000    -1.7087604600     0.3110023500
    4      C       0.6235785800     1.3831917900     0.4498903900
    5      O       1.6842953500    -0.9677837400     0.1334631500
    6      O       0.5617759100    -2.9099003000     0.1714027300
    7      O       0.8064688700     1.6143032800    -0.8636415000
    8      O       1.4026812500     1.7663660300     1.2889279200
    9      C       2.0504772900     2.2318836900    -1.2259635400
   10      C       2.8772061900    -1.6771965000    -0.2481887300
   11      C      -1.8609812000    -1.3023855100    -0.2139809800
   12      C      -1.4574967100    -0.8765659400    -1.6172293900
   13      C      -1.4635059800     0.4591354400    -1.6414147500
   14      C      -1.8707843500     0.9488298500    -0.2562855200
   15      C      -2.8635347600    -0.1812401300     0.1216318000
   16      C      -1.0817237200     1.1318333800     2.1913504100
   17      H       2.1429308800     3.2162773900    -0.7648338200
   18      H       2.7532732400    -2.1160540200    -1.2394870800
   19      H      -1.1554889900     1.1022422900    -2.4517685000
   20      H       2.0272212400     2.3165001600    -2.3107342500
   21      H       2.8869455000     1.6078864400    -0.9074662000
   22      H       3.6678263800    -0.9302842300    -0.2534239900
   23      H       3.0979994900    -2.4665185400     0.4708223700
   24      H      -2.2322768300     1.9756504100    -0.2020162500
   25      H      -2.1825953900    -2.3339796500    -0.0915258500
   26      H      -1.9879709600     0.6418086600     2.5450427000
   27      H      -0.2750994400     0.9148417300     2.8918228900
   28      H      -1.2483837100     2.2118845200     2.2061950400
   29      H      -3.7304561400    -0.1993364100    -0.5399716400
   30      H      -3.2006591000    -0.1728146100     1.1586969400
   31      H      -1.1356581500    -1.5512635000    -2.3992488700
   32      H      -0.8676781200    -1.2953973800     1.7376690800
 ----------------------------------------------------------------
 Nuclear Repulsion Energy =  1235.5722518990 hartrees
 There are       60 alpha and       60 beta electrons
 Requested basis set is 6-311++G(d,p)
 There are 176 shells and 464 basis functions

 Total QAlloc Memory Limit  62000 MB
 Mega-Array Size      3911 MB
 MEM_STATIC part      4000 MB
 A cutoff of  1.0D-11 yielded  13015 shell pairs
 There are     92638 function pairs (     98952 Cartesian)
 
 -------------------------------------------------------
 OpenMP Integral Computing Module                       
 Release: version 1.0, May 2013, Q-Chem Inc. Pittsburgh 
 -------------------------------------------------------
 Integral Job Info:
 Integral job number is                      11
 Integral operator is                         1
 short-range coefficients                     0
 long-range coefficients              100000000
 Omega coefficients                           0
 if combine SR and LR in K                    0
 Integral screening is                        0
 Integral computing path is                   2
 max size of driver memory is            800000
 size of driver memory is                593474
 size of scratch memory is              2361544
 max col of scratch BK array               1296
 max len of scratch array in speh3          155
 max len of scratch index in speh4           18
 max int batch size is                      520
 min int batch size is                       52
 fixed nKL is                                52
 max L of basis functions is                  2
 order of int derivative is                   0
 number of shells is                        176
 number of basis is                         480
 number of cartesian basis is               480
 number of contracted shell pairs         13015
 number of primitive shell pairs          28983
 maxK2 (contraction) of shell pair           36
 max number of K2 of shell pair               1
 max number of CS2 of shell pair           2398
 max number of PS2 of shell pair           4116
 mem total for path MDJ                  166184
 -------------------------------------------------------
 Smallest overlap matrix eigenvalue = 1.01E-06

 Q-Chem warning in module /fs/scratch/osu6415/qchem-kaunlao-vdw/stvman/mkSTV.C, line 281:

 Overlap eigenvalue is smaller than square root of threshold


 Scale SEOQF with 1.000000e-01/1.000000e-01/1.000000e-01

 Standard Electronic Orientation quadrupole field applied
 Nucleus-field energy     =     0.0000000172 hartrees
 Guess from superposition of atomic densities
 Warning:  Energy on first SCF cycle will be non-variational
 A restricted hybrid HF-DFT SCF calculation will be
 performed using Pulay DIIS extrapolation
 Exchange:     0.2000 Hartree-Fock + 0.0800 Slater + 0.7200 B88
 Correlation:  0.1900 VWN1RPA + 0.8100 LYP
 Using SG-1 standard quadrature grid
 Dispersion:   Grimme D3
 SCF converges when DIIS error is below 1.0E-08
 using 20 threads for integral computing
 -------------------------------------------------------
 OpenMP Integral computing Module                
 Release: version 1.0, May 2013, Q-Chem Inc. Pittsburgh 
 -------------------------------------------------------
 -------------------------------------------------------
 OpenMP BLAS3 based DFT computing Module                
 Release: version 1.0, May 2013, Q-Chem Inc. Pittsburgh 
 -------------------------------------------------------
 ---------------------------------------
  Cycle       Energy         DIIS Error
 ---------------------------------------
    1    -771.3839274312      2.94E-02
    2    -767.6921445466      3.83E-03
    3    -767.1860574535      6.35E-03
    4    -767.9865492684      1.44E-03
    5    -768.0278414080      4.05E-04
    6    -768.0307846228      1.38E-04
    7    -768.0311667600      3.93E-05
    8    -768.0311962730      1.55E-05
    9    -768.0312023310      2.87E-06
   10    -768.0312024889      1.44E-06
   11    -768.0312025322      4.53E-07
   12    -768.0312025363      1.76E-07
   13    -768.0312025369      5.76E-08
   14    -768.0312025369      1.22E-08
   15    -768.0312025388      3.17E-09 Convergence criterion met
 ---------------------------------------
 SCF time:  CPU 1033.66 s  wall 67.57 s
 SCF   energy in the final basis set = -768.03120254
 Total energy in the final basis set = -768.03120254
 
 --------------------------------------------------------------
 
                    Orbital Energies (a.u.)
 --------------------------------------------------------------
 
 Alpha MOs
 -- Occupied --
-19.177 -19.169 -19.114 -19.108 -10.307 -10.301 -10.232 -10.228
-10.213 -10.205 -10.192 -10.191 -10.176 -10.171 -10.168 -10.165
 -1.120  -1.111  -1.028  -1.022  -0.899  -0.798  -0.768  -0.741
 -0.726  -0.711  -0.677  -0.626  -0.587  -0.572  -0.562  -0.542
 -0.535  -0.519  -0.501  -0.493  -0.481  -0.475  -0.468  -0.453
 -0.439  -0.433  -0.414  -0.407  -0.401  -0.394  -0.389  -0.379
 -0.378  -0.361  -0.358  -0.352  -0.347  -0.336  -0.322  -0.318
 -0.307  -0.285  -0.278  -0.249
 -- Virtual --
 -0.016  -0.010  -0.002  -0.001   0.002   0.005   0.009   0.018
  0.021   0.026   0.030   0.035   0.043   0.044   0.048   0.050
  0.054   0.066   0.069   0.073   0.086   0.086   0.091   0.092
  0.095   0.104   0.107   0.110   0.112   0.115   0.117   0.119
  0.123   0.124   0.127   0.130   0.133   0.137   0.138   0.144
  0.145   0.148   0.148   0.152   0.152   0.156   0.160   0.162
  0.164   0.165   0.172   0.178   0.179   0.182   0.187   0.191
  0.194   0.195   0.203   0.206   0.209   0.211   0.214   0.219
  0.223   0.228   0.230   0.236   0.242   0.244   0.246   0.258
  0.260   0.265   0.268   0.275   0.281   0.285   0.287   0.296
  0.297   0.305   0.307   0.310   0.321   0.325   0.326   0.327
  0.332   0.335   0.340   0.345   0.346   0.351   0.359   0.363
  0.367   0.369   0.374   0.375   0.380   0.388   0.392   0.397
  0.409   0.414   0.421   0.422   0.435   0.441   0.449   0.458
  0.475   0.494   0.502   0.507   0.515   0.519   0.527   0.531
  0.540   0.547   0.558   0.571   0.580   0.590   0.601   0.607
  0.614   0.626   0.630   0.635   0.644   0.650   0.655   0.657
  0.670   0.675   0.679   0.692   0.696   0.697   0.701   0.709
  0.717   0.720   0.727   0.730   0.734   0.741   0.748   0.754
  0.761   0.771   0.777   0.787   0.790   0.804   0.815   0.821
  0.830   0.834   0.850   0.867   0.873   0.889   0.905   0.925
  0.933   0.954   0.967   0.995   1.021   1.022   1.035   1.041
  1.062   1.076   1.090   1.105   1.118   1.135   1.161   1.171
  1.200   1.207   1.215   1.221   1.246   1.254   1.261   1.277
  1.299   1.303   1.311   1.320   1.326   1.341   1.373   1.385
  1.405   1.412   1.430   1.438   1.448   1.453   1.461   1.467
  1.490   1.498   1.507   1.512   1.525   1.537   1.558   1.569
  1.572   1.581   1.587   1.592   1.603   1.609   1.623   1.640
  1.648   1.659   1.678   1.684   1.690   1.697   1.715   1.718
  1.727   1.731   1.738   1.753   1.763   1.769   1.773   1.788
  1.791   1.803   1.813   1.826   1.843   1.852   1.863   1.879
  1.898   1.902   1.905   1.917   1.926   1.929   1.951   1.967
  1.982   1.995   2.007   2.022   2.030   2.042   2.056   2.077
  2.093   2.106   2.118   2.137   2.142   2.148   2.191   2.201
  2.220   2.225   2.242   2.249   2.261   2.275   2.285   2.331
  2.349   2.358   2.399   2.419   2.449   2.455   2.464   2.473
  2.495   2.511   2.513   2.531   2.538   2.548   2.552   2.565
  2.586   2.591   2.608   2.626   2.630   2.643   2.665   2.668
  2.692   2.705   2.721   2.739   2.768   2.776   2.816   2.823
  2.835   2.843   2.855   2.871   2.886   2.888   2.901   2.919
  2.926   2.935   2.950   3.005   3.016   3.026   3.041   3.056
  3.062   3.070   3.083   3.097   3.123   3.130   3.143   3.157
  3.176   3.188   3.223   3.245   3.253   3.271   3.307   3.327
  3.340   3.376   3.400   3.432   3.454   3.515   3.591   3.614
  3.637   3.703   3.776   3.778   3.783   3.801   3.820   3.840
  3.866   3.873   3.919   4.058   4.066   4.090   4.121   4.130
  4.166   4.171   4.187   4.235   4.249   4.294   4.356   4.442
  5.042   5.091   5.117   5.162   5.252   5.274   5.465   5.469
  5.633   5.650   5.891   5.904  23.812  23.831  23.856  23.863
 23.881  23.920  23.941  23.945  23.992  24.015  24.052  24.320
 49.919  49.958  50.030  50.062
 --------------------------------------------------------------
 
          Ground-State Mulliken Net Atomic Charges

     Atom                 Charge (a.u.)
  ----------------------------------------
      1 C                     0.168138
      2 C                     0.232891
      3 C                    -0.524623
      4 C                    -0.714879
      5 O                    -0.093820
      6 O                    -0.203323
      7 O                     0.035695
      8 O                    -0.177771
      9 C                    -0.154303
     10 C                    -0.217118
     11 C                     0.081003
     12 C                    -0.148577
     13 C                    -0.646512
     14 C                     0.516613
     15 C                    -0.697104
     16 C                    -0.357102
     17 H                     0.175320
     18 H                     0.191870
     19 H                     0.146368
     20 H                     0.149712
     21 H                     0.171230
     22 H                     0.145331
     23 H                     0.180454
     24 H                     0.272186
     25 H                     0.282212
     26 H                     0.114073
     27 H                     0.200947
     28 H                     0.165081
     29 H                     0.191573
     30 H                     0.110938
     31 H                     0.156327
     32 H                     0.247169
  ----------------------------------------
  Sum of atomic charges =    -0.000000

 -----------------------------------------------------------------
                    Cartesian Multipole Moments
 -----------------------------------------------------------------
    Charge (ESU x 10^10)
                -0.0000
    Dipole Moment (Debye)
         X       0.1363      Y       1.2659      Z      -1.5023
       Tot       1.9692
    Quadrupole Moments (Debye-Ang)
        XX     -87.0878     XY      -2.3801     YY    -102.6674
        XZ      -8.0953     YZ      -4.5384     ZZ     -94.8998
    Octopole Moments (Debye-Ang^2)
       XXX      52.5810    XXY     -11.4884    XYY       7.4836
       YYY      44.4306    XXZ      -8.2224    XYZ      -9.9180
       YYZ     -15.3753    XZZ       8.2065    YZZ      -6.1285
       ZZZ      -9.8633
    Hexadecapole Moments (Debye-Ang^3)
      XXXX   -1670.4896   XXXY     -41.2118   XXYY    -489.8080
      XYYY       7.9669   YYYY   -1514.2481   XXXZ     -11.6022
      XXYZ     -29.2354   XYYZ     -14.4700   YYYZ     -32.1988
      XXZZ    -437.7806   XYZZ      -9.4501   YYZZ    -358.8655
      XZZZ       3.1743   YZZZ     -38.4023   ZZZZ    -781.6205
 -----------------------------------------------------------------
 Calculating analytic gradient of the SCF energy
 Gradient of SCF Energy
            1           2           3           4           5           6
    1  -0.0001607   0.0002293  -0.0001291   0.0001281  -0.0000030   0.0000750
    2  -0.0000939   0.0002595   0.0001669  -0.0005076  -0.0000080  -0.0001069
    3  -0.0005690   0.0006952  -0.0004447  -0.0001450   0.0000283   0.0003670
            7           8           9          10          11          12
    1   0.0000062  -0.0001165   0.0000365  -0.0000292  -0.0000892   0.0000162
    2   0.0000040   0.0003168  -0.0000182  -0.0000815   0.0000524  -0.0000569
    3   0.0000168   0.0000089   0.0000385  -0.0000161   0.0001111  -0.0000372
           13          14          15          16          17          18
    1   0.0000091  -0.0000748  -0.0000147  -0.0000374   0.0000002  -0.0000156
    2   0.0000697  -0.0000820   0.0000373  -0.0000628  -0.0000116   0.0000022
    3   0.0000379   0.0000027   0.0000084  -0.0000653  -0.0000346  -0.0000130
           19          20          21          22          23          24
    1  -0.0000177   0.0000109  -0.0000069   0.0000007  -0.0000088   0.0000655
    2   0.0000066  -0.0000131  -0.0000302  -0.0000161   0.0000046   0.0000461
    3  -0.0000050  -0.0000236  -0.0000326  -0.0000224  -0.0000023  -0.0000167
           25          26          27          28          29          30
    1   0.0000160   0.0000092   0.0000125   0.0000420   0.0000144   0.0000055
    2  -0.0000032   0.0000288  -0.0000011   0.0000164   0.0000303   0.0000048
    3   0.0000025   0.0000190   0.0000152   0.0000198   0.0000112   0.0000177
           31          32
    1  -0.0000294   0.0000561
    2   0.0000119   0.0000346
    3   0.0000049   0.0000221
 Max gradient component =       6.952E-04
 RMS gradient           =       1.392E-04
 Gradient time:  CPU 337.36 s  wall 26.57 s
 Geometry Optimization Parameters
   NAtoms,    NIC,     NZ,  NCons,   NDum,   NFix, NCnnct, MaxDiis
       32     251       0       0       0       0       0       0


** GEOMETRY OPTIMIZATION IN DELOCALIZED INTERNAL COORDINATES **
   Searching for a Transition State

   Optimization Cycle:   1

                       Coordinates (Angstroms)
     ATOM                X               Y               Z
      1  C        -0.6518096300   -0.9269920100    0.7300759600
      2  C        -0.6964483300    0.6611696900    0.7727362500
      3  C         0.5802969000   -1.7087604600    0.3110023500
      4  C         0.6235785800    1.3831917900    0.4498903900
      5  O         1.6842953500   -0.9677837400    0.1334631500
      6  O         0.5617759100   -2.9099003000    0.1714027300
      7  O         0.8064688700    1.6143032800   -0.8636415000
      8  O         1.4026812500    1.7663660300    1.2889279200
      9  C         2.0504772900    2.2318836900   -1.2259635400
     10  C         2.8772061900   -1.6771965000   -0.2481887300
     11  C        -1.8609812000   -1.3023855100   -0.2139809800
     12  C        -1.4574967100   -0.8765659400   -1.6172293900
     13  C        -1.4635059800    0.4591354400   -1.6414147500
     14  C        -1.8707843500    0.9488298500   -0.2562855200
     15  C        -2.8635347600   -0.1812401300    0.1216318000
     16  C        -1.0817237200    1.1318333800    2.1913504100
     17  H         2.1429308800    3.2162773900   -0.7648338200
     18  H         2.7532732400   -2.1160540200   -1.2394870800
     19  H        -1.1554889900    1.1022422900   -2.4517685000
     20  H         2.0272212400    2.3165001600   -2.3107342500
     21  H         2.8869455000    1.6078864400   -0.9074662000
     22  H         3.6678263800   -0.9302842300   -0.2534239900
     23  H         3.0979994900   -2.4665185400    0.4708223700
     24  H        -2.2322768300    1.9756504100   -0.2020162500
     25  H        -2.1825953900   -2.3339796500   -0.0915258500
     26  H        -1.9879709600    0.6418086600    2.5450427000
     27  H        -0.2750994400    0.9148417300    2.8918228900
     28  H        -1.2483837100    2.2118845200    2.2061950400
     29  H        -3.7304561400   -0.1993364100   -0.5399716400
     30  H        -3.2006591000   -0.1728146100    1.1586969400
     31  H        -1.1356581500   -1.5512635000   -2.3992488700
     32  H        -0.8676781200   -1.2953973800    1.7376690800
   Point Group: c1    Number of degrees of freedom:    90


   Energy is   -768.031202539


 Attempting to Generate Delocalized Internal Coordinates

 90 Hessian modes will be used to form the next step
  Hessian Eigenvalues:
     0.003423    0.004041    0.004098    0.006774    0.008712    0.010429
     0.010969    0.011014    0.012678    0.016485    0.017055    0.019926
     0.022763    0.023396    0.026028    0.031808    0.039864    0.042367
     0.045543    0.046586    0.047719    0.049355    0.053571    0.054459
     0.056337    0.056803    0.058206    0.065396    0.068243    0.076351
     0.090057    0.097105    0.101367    0.101427    0.106085    0.106091
     0.113637    0.117596    0.138949    0.157969    0.159161    0.160000
     0.160000    0.160000    0.160000    0.160000    0.160000    0.160000
     0.160000    0.160000    0.169615    0.212640    0.222866    0.239148
     0.249775    0.249906    0.249973    0.250000    0.250000    0.250000
     0.250000    0.250800    0.271044    0.282101    0.286223    0.297267
     0.305425    0.343166    0.344757    0.346791    0.346862    0.347006
     0.347333    0.347529    0.347779    0.347973    0.348189    0.348973
     0.350082    0.350855    0.351052    0.357744    0.360652    0.396636
     0.402296    0.514589    0.558400    0.568903    1.002540    1.011924
**WARNING** Hessian does not have the Desired Local Structure

 Transition State Search - Taking P-RFO Step
 Searching for Lamda that Maximizes Along the Lowest mode
 Value Taken    Lamda =   0.00342324
 Searching for Lamda that Minimizes Along All other modes
 Value Taken    Lamda =  -0.00004864
 Calculated Step too Large.  Step scaled by  0.002314
 Step Taken.  Stepsize is  0.300000

                             Maximum     Tolerance    Cnvgd?
         Gradient           0.000297      0.000001      NO
         Displacement       0.168591      0.000001      NO
         Energy change     *********      0.000000      NO


 New Cartesian Coordinates Obtained by Inverse Iteration

 Displacement from previous Coordinates is:  0.330869
 Adding empirical dispersion correction 
 ----------------------------------------------------------------
 Doing -D3(op) with
 s6 =   1.00000
 s8 =   0.78311
 a1 =   0.30000
 a2 =   4.25000
 n  =  10.00000
 -D3 energy without 3body term =     -0.0400364542 hartrees
 ----------------------------------------------------------------
             Standard Nuclear Orientation (Angstroms)
    I     Atom           X                Y                Z
 ----------------------------------------------------------------
    1      C      -0.6500988095    -0.9271654775     0.7310649407
    2      C      -0.6969335608     0.6609638868     0.7725622089
    3      C       0.5828957259    -1.7075265232     0.3119793611
    4      C       0.6219288828     1.3845868869     0.4485422887
    5      O       1.6857792011    -0.9651461435     0.1333773440
    6      O       0.5659673142    -2.9087871473     0.1732199776
    7      O       0.8038386337     1.6150254378    -0.8652440056
    8      O       1.4009411432     1.7693965834     1.2869149724
    9      C       2.0468175806     2.2340521190    -1.2286295454
   10      C       2.8794871211    -1.6731750594    -0.2483520334
   11      C      -1.8591957677    -1.3049465658    -0.2121352776
   12      C      -1.4569801123    -0.8796033866    -1.6158924122
   13      C      -1.4648717930     0.4560698398    -1.6410657656
   14      C      -1.8721671269     0.9462210408    -0.2561032768
   15      C      -2.8631544069    -0.1849551194     0.1231297509
   16      C      -1.0821775451     1.1321453192     2.1910131624
   17      H       2.1381580729     3.2188944602    -0.7682364727
   18      H       2.7556816578    -2.1129064621    -1.2392790193
   19      H      -1.1581442132     1.0990056248    -2.4520440780
   20      H       2.0228967784     2.3178757458    -2.3134473116
   21      H       2.8842997254     1.6114231005    -0.9101189230
   22      H       3.6690685179    -0.9251717456    -0.2545003682
   23      H       3.1017231101    -2.4616809414     0.4711100093
   24      H      -2.2350693460     1.9725749301    -0.2024188536
   25      H      -2.1793100501    -2.3368977769    -0.0887621888
   26      H      -2.0393991128     0.7184179038     2.5057559186
   27      H      -0.3205112098     0.8269392222     2.9087202044
   28      H      -1.1513383905     2.2222413735     2.2286124384
   29      H      -3.7303679512    -0.2047540170    -0.5380419533
   30      H      -3.1997913280    -0.1762314605     1.1603507421
   31      H      -1.1345730379    -1.5544299645    -2.3975663398
   32      H      -0.8649741433    -1.2951238640     1.7390336252
 ----------------------------------------------------------------
 Nuclear Repulsion Energy =  1235.5717396434 hartrees
 There are       60 alpha and       60 beta electrons
 Applying Cartesian multipole field
    Component          Value
    ---------          -----
     (2,0,0)        1.00000E-11
     (0,2,0)        2.00000E-11
     (0,0,2)       -3.00000E-11
 Nucleus-field energy     =     0.0000000172 hartrees
 Requested basis set is 6-311++G(d,p)
 There are 176 shells and 464 basis functions
 A cutoff of  1.0D-11 yielded  13020 shell pairs
 There are     92650 function pairs (     98965 Cartesian)
 Smallest overlap matrix eigenvalue = 1.02E-06

 Q-Chem warning in module /fs/scratch/osu6415/qchem-kaunlao-vdw/stvman/mkSTV.C, line 281:

 Overlap eigenvalue is smaller than square root of threshold

 Guess MOs from SCF MO coefficient file
 Reading MOs from coefficient file
 Reading MOs from coefficient file
 A restricted hybrid HF-DFT SCF calculation will be
 performed using Pulay DIIS extrapolation
 Exchange:     0.2000 Hartree-Fock + 0.0800 Slater + 0.7200 B88
 Correlation:  0.1900 VWN1RPA + 0.8100 LYP
 Using SG-1 standard quadrature grid
 Dispersion:   Grimme D3
 SCF converges when DIIS error is below 1.0E-08
 Geometry optimization detected.  Setting ReadMinima to 0
 Setting SaveMinima to 0
 using 20 threads for integral computing
 -------------------------------------------------------
 OpenMP Integral computing Module                
 Release: version 1.0, May 2013, Q-Chem Inc. Pittsburgh 
 -------------------------------------------------------
 -------------------------------------------------------
 OpenMP BLAS3 based DFT computing Module                
 Release: version 1.0, May 2013, Q-Chem Inc. Pittsburgh 
 -------------------------------------------------------
 ---------------------------------------
  Cycle       Energy         DIIS Error
 ---------------------------------------
    1    -768.0255694487      2.22E-04
    2    -768.0310252809      3.23E-05
    3    -768.0310221066      4.16E-05
    4    -768.0310670788      8.03E-06
    5    -768.0310679457      5.10E-06
    6    -768.0310684395      1.37E-06
    7    -768.0310684743      4.62E-07
    8    -768.0310684784      1.06E-07
    9    -768.0310684786      3.13E-08
   10    -768.0310684813      1.21E-08
   11    -768.0310684834      4.04E-09 Convergence criterion met
 ---------------------------------------
 SCF time:  CPU 770.20 s  wall 49.75 s
 SCF   energy in the final basis set = -768.03106848
 Total energy in the final basis set = -768.03106848
 
 --------------------------------------------------------------
 
                    Orbital Energies (a.u.)
 --------------------------------------------------------------
 
 Alpha MOs
 -- Occupied --
-19.177 -19.169 -19.114 -19.108 -10.307 -10.301 -10.232 -10.228
-10.213 -10.205 -10.192 -10.191 -10.176 -10.172 -10.168 -10.165
 -1.120  -1.111  -1.028  -1.022  -0.899  -0.798  -0.768  -0.741
 -0.726  -0.711  -0.677  -0.626  -0.587  -0.572  -0.562  -0.541
 -0.535  -0.519  -0.501  -0.493  -0.481  -0.475  -0.468  -0.454
 -0.439  -0.434  -0.415  -0.407  -0.401  -0.394  -0.388  -0.379
 -0.378  -0.361  -0.358  -0.352  -0.347  -0.336  -0.322  -0.318
 -0.307  -0.285  -0.277  -0.249
 -- Virtual --
 -0.016  -0.010  -0.002  -0.001   0.003   0.005   0.009   0.018
  0.021   0.026   0.030   0.035   0.043   0.044   0.048   0.050
  0.054   0.066   0.069   0.073   0.086   0.087   0.091   0.092
  0.094   0.105   0.107   0.110   0.112   0.115   0.117   0.119
  0.123   0.124   0.127   0.130   0.133   0.137   0.138   0.144
  0.145   0.147   0.148   0.151   0.153   0.156   0.159   0.161
  0.164   0.165   0.172   0.178   0.179   0.183   0.187   0.191
  0.194   0.195   0.203   0.206   0.208   0.211   0.215   0.219
  0.223   0.229   0.230   0.236   0.241   0.244   0.246   0.258
  0.260   0.264   0.268   0.275   0.282   0.285   0.287   0.296
  0.298   0.305   0.306   0.311   0.321   0.325   0.326   0.328
  0.333   0.335   0.341   0.344   0.348   0.352   0.358   0.363
  0.367   0.370   0.374   0.375   0.379   0.387   0.391   0.397
  0.409   0.417   0.421   0.422   0.435   0.441   0.448   0.457
  0.476   0.494   0.499   0.507   0.514   0.519   0.525   0.531
  0.539   0.545   0.558   0.573   0.582   0.589   0.602   0.607
  0.615   0.627   0.631   0.634   0.644   0.650   0.655   0.659
  0.671   0.673   0.679   0.691   0.693   0.697   0.701   0.709
  0.716   0.721   0.724   0.727   0.735   0.741   0.748   0.755
  0.761   0.772   0.777   0.787   0.791   0.804   0.815   0.818
  0.829   0.834   0.850   0.867   0.872   0.888   0.905   0.924
  0.934   0.954   0.972   0.994   1.022   1.022   1.035   1.043
  1.062   1.076   1.090   1.107   1.117   1.137   1.163   1.171
  1.200   1.207   1.216   1.221   1.246   1.256   1.264   1.278
  1.299   1.302   1.311   1.321   1.326   1.341   1.373   1.385
  1.404   1.412   1.430   1.438   1.448   1.455   1.460   1.467
  1.490   1.499   1.504   1.507   1.524   1.537   1.557   1.570
  1.572   1.581   1.587   1.592   1.602   1.612   1.623   1.640
  1.648   1.660   1.679   1.686   1.689   1.698   1.718   1.719
  1.727   1.732   1.741   1.753   1.763   1.767   1.772   1.787
  1.790   1.803   1.813   1.824   1.842   1.852   1.864   1.878
  1.899   1.900   1.905   1.916   1.926   1.930   1.948   1.968
  1.982   1.996   2.010   2.022   2.029   2.042   2.058   2.076
  2.093   2.109   2.122   2.137   2.141   2.148   2.187   2.200
  2.218   2.225   2.243   2.249   2.263   2.273   2.285   2.330
  2.352   2.361   2.401   2.418   2.449   2.453   2.463   2.473
  2.495   2.511   2.515   2.532   2.537   2.548   2.551   2.564
  2.587   2.593   2.607   2.624   2.631   2.643   2.665   2.667
  2.692   2.705   2.720   2.737   2.765   2.777   2.815   2.823
  2.837   2.844   2.858   2.871   2.884   2.888   2.902   2.923
  2.926   2.936   2.950   3.004   3.021   3.028   3.039   3.055
  3.059   3.072   3.084   3.098   3.122   3.129   3.144   3.157
  3.176   3.188   3.224   3.244   3.254   3.272   3.309   3.331
  3.344   3.375   3.403   3.431   3.454   3.517   3.593   3.614
  3.637   3.703   3.774   3.778   3.783   3.802   3.821   3.840
  3.868   3.872   3.919   4.058   4.066   4.090   4.121   4.131
  4.167   4.171   4.187   4.236   4.249   4.296   4.356   4.441
  5.043   5.091   5.117   5.163   5.252   5.278   5.465   5.470
  5.633   5.650   5.891   5.904  23.812  23.831  23.856  23.863
 23.882  23.920  23.941  23.944  23.993  24.015  24.053  24.320
 49.919  49.958  50.030  50.061
 --------------------------------------------------------------
 
          Ground-State Mulliken Net Atomic Charges

     Atom                 Charge (a.u.)
  ----------------------------------------
      1 C                     0.139040
      2 C                     0.218031
      3 C                    -0.496950
      4 C                    -0.694150
      5 O                    -0.093007
      6 O                    -0.203546
      7 O                     0.034339
      8 O                    -0.176465
      9 C                    -0.156713
     10 C                    -0.215640
     11 C                     0.077951
     12 C                    -0.148571
     13 C                    -0.650231
     14 C                     0.516108
     15 C                    -0.694830
     16 C                    -0.354724
     17 H                     0.175620
     18 H                     0.191856
     19 H                     0.146417
     20 H                     0.149549
     21 H                     0.171085
     22 H                     0.146012
     23 H                     0.180376
     24 H                     0.272233
     25 H                     0.282044
     26 H                     0.112289
     27 H                     0.199864
     28 H                     0.167623
     29 H                     0.190325
     30 H                     0.111442
     31 H                     0.156415
     32 H                     0.246207
  ----------------------------------------
  Sum of atomic charges =    -0.000000

 -----------------------------------------------------------------
                    Cartesian Multipole Moments
 -----------------------------------------------------------------
    Charge (ESU x 10^10)
                -0.0000
    Dipole Moment (Debye)
         X       0.1235      Y       1.2618      Z      -1.5039
       Tot       1.9670
    Quadrupole Moments (Debye-Ang)
        XX     -87.0771     XY      -2.3898     YY    -102.6721
        XZ      -8.1150     YZ      -4.5462     ZZ     -94.8972
    Octopole Moments (Debye-Ang^2)
       XXX      52.4200    XXY     -11.4799    XYY       7.4549
       YYY      44.4446    XXZ      -8.2107    XYZ      -9.9934
       YYZ     -15.4084    XZZ       8.1579    YZZ      -6.1614
       ZZZ      -9.8916
    Hexadecapole Moments (Debye-Ang^3)
      XXXX   -1669.3760   XXXY     -41.7520   XXYY    -490.3661
      XYYY       8.3419   YYYY   -1513.8150   XXXZ     -11.6432
      XXYZ     -29.0958   XYYZ     -14.3171   YYYZ     -31.6134
      XXZZ    -437.8514   XYZZ      -9.9015   YYZZ    -358.8278
      XZZZ       3.3483   YZZZ     -38.4145   ZZZZ    -781.6287
 -----------------------------------------------------------------
 Calculating analytic gradient of the SCF energy
 Gradient of SCF Energy
            1           2           3           4           5           6
    1   0.0002936   0.0000907  -0.0001994   0.0000421   0.0000214   0.0000951
    2  -0.0001668   0.0001500   0.0001470  -0.0001400   0.0000033  -0.0001234
    3  -0.0004573   0.0009743  -0.0004669  -0.0002758   0.0000230   0.0003592
            7           8           9          10          11          12
    1  -0.0000073   0.0001175   0.0000508  -0.0000316  -0.0001056   0.0000174
    2   0.0000031   0.0004160  -0.0000110  -0.0000840   0.0001326  -0.0001207
    3   0.0001246  -0.0001888   0.0000317  -0.0000102   0.0000696  -0.0000008
           13          14          15          16          17          18
    1  -0.0000379  -0.0000378  -0.0000586  -0.0002902  -0.0000063  -0.0000157
    2   0.0000984  -0.0002383   0.0001333  -0.0004797  -0.0000141   0.0000017
    3   0.0000928  -0.0001227   0.0001720   0.0001252  -0.0000341  -0.0000128
           19          20          21          22          23          24
    1  -0.0000075   0.0000112  -0.0000098   0.0000026  -0.0000062   0.0001242
    2   0.0000094  -0.0000159  -0.0000312  -0.0000169   0.0000057  -0.0000315
    3  -0.0000088  -0.0000234  -0.0000352  -0.0000235  -0.0000033   0.0000109
           25          26          27          28          29          30
    1   0.0000260  -0.0002669  -0.0003647   0.0003620   0.0000177   0.0000241
    2  -0.0000027   0.0003064  -0.0005293   0.0003695   0.0000191   0.0001705
    3   0.0000170  -0.0001271  -0.0002357  -0.0000915  -0.0000046   0.0001546
           31          32
    1  -0.0000297   0.0001789
    2   0.0000083   0.0000310
    3   0.0000080  -0.0000405
 Max gradient component =       9.743E-04
 RMS gradient           =       1.949E-04
 Gradient time:  CPU 337.01 s  wall 24.49 s
 Geometry Optimization Parameters
   NAtoms,    NIC,     NZ,  NCons,   NDum,   NFix, NCnnct, MaxDiis
       32     251       0       0       0       0       0       0

 Cartesian Hessian Update
 Hessian Updated using Powell/Murtagh-Sargent Update
  Mixing factors:     0.000013 Powell
                      0.999987 Murtagh-Sargent


** GEOMETRY OPTIMIZATION IN DELOCALIZED INTERNAL COORDINATES **
   Searching for a Transition State

   Optimization Cycle:   2

                       Coordinates (Angstroms)
     ATOM                X               Y               Z
      1  C        -0.6500988095   -0.9271654775    0.7310649407
      2  C        -0.6969335608    0.6609638868    0.7725622089
      3  C         0.5828957259   -1.7075265232    0.3119793611
      4  C         0.6219288828    1.3845868869    0.4485422887
      5  O         1.6857792011   -0.9651461435    0.1333773440
      6  O         0.5659673142   -2.9087871473    0.1732199776
      7  O         0.8038386337    1.6150254378   -0.8652440056
      8  O         1.4009411432    1.7693965834    1.2869149724
      9  C         2.0468175806    2.2340521190   -1.2286295454
     10  C         2.8794871211   -1.6731750594   -0.2483520334
     11  C        -1.8591957677   -1.3049465658   -0.2121352776
     12  C        -1.4569801123   -0.8796033866   -1.6158924122
     13  C        -1.4648717930    0.4560698398   -1.6410657656
     14  C        -1.8721671269    0.9462210408   -0.2561032768
     15  C        -2.8631544069   -0.1849551194    0.1231297509
     16  C        -1.0821775451    1.1321453192    2.1910131624
     17  H         2.1381580729    3.2188944602   -0.7682364727
     18  H         2.7556816578   -2.1129064621   -1.2392790193
     19  H        -1.1581442132    1.0990056248   -2.4520440780
     20  H         2.0228967784    2.3178757458   -2.3134473116
     21  H         2.8842997254    1.6114231005   -0.9101189230
     22  H         3.6690685179   -0.9251717456   -0.2545003682
     23  H         3.1017231101   -2.4616809414    0.4711100093
     24  H        -2.2350693460    1.9725749301   -0.2024188536
     25  H        -2.1793100501   -2.3368977769   -0.0887621888
     26  H        -2.0393991128    0.7184179038    2.5057559186
     27  H        -0.3205112098    0.8269392222    2.9087202044
     28  H        -1.1513383905    2.2222413735    2.2286124384
     29  H        -3.7303679512   -0.2047540170   -0.5380419533
     30  H        -3.1997913280   -0.1762314605    1.1603507421
     31  H        -1.1345730379   -1.5544299645   -2.3975663398
     32  H        -0.8649741433   -1.2951238640    1.7390336252
   Point Group: c1    Number of degrees of freedom:    90


   Energy is   -768.031068483

 Hessian Updated using Powell/Murtagh-Sargent Update
  Mixing factors:     0.983063 Powell
                      0.016937 Murtagh-Sargent

 87 Hessian modes will be used to form the next step
  Hessian Eigenvalues:
     0.002065    0.004042    0.004628    0.006774    0.008712    0.010429
     0.010969    0.011014    0.012679    0.016485    0.017062    0.019927
     0.022763    0.023396    0.026032    0.031809    0.039864    0.042367
     0.045543    0.046586    0.047718    0.049351    0.053571    0.054459
     0.056336    0.056801    0.058205    0.065383    0.068242    0.076350
     0.090057    0.097105    0.101367    0.101427    0.106085    0.106091
     0.113624    0.117584    0.138949    0.157968    0.159161    0.159950
     0.160000    0.160000    0.160000    0.160000    0.160000    0.169558
     0.212603    0.222858    0.239145    0.249702    0.249903    0.249973
     0.249990    0.250000    0.250000    0.250000    0.250798    0.271044
     0.282086    0.286183    0.297266    0.305425    0.343164    0.344727
     0.346791    0.346862    0.347006    0.347333    0.347525    0.347779
     0.347952    0.348187    0.348970    0.350082    0.350855    0.351052
     0.357744    0.360652    0.396636    0.402296    0.514586    0.558397
     0.568903    1.002540    1.011924
**WARNING** Hessian does not have the Desired Local Structure

 Transition State Search - Taking P-RFO Step
 Searching for Lamda that Maximizes Along the Lowest mode
 Value Taken    Lamda =   0.00220739
 Searching for Lamda that Minimizes Along All other modes
 Value Taken    Lamda =  -0.00015929
 Calculated Step too Large.  Step scaled by  0.076253
 Step Taken.  Stepsize is  0.300000

                             Maximum     Tolerance    Cnvgd?
         Gradient           0.000764      0.000001      NO
         Displacement       0.137909      0.000001      NO
         Energy change      0.000134      0.000000      NO


 New Cartesian Coordinates Obtained by Inverse Iteration

 Displacement from previous Coordinates is:  0.515813
 Adding empirical dispersion correction 
 ----------------------------------------------------------------
 Doing -D3(op) with
 s6 =   1.00000
 s8 =   0.78311
 a1 =   0.30000
 a2 =   4.25000
 n  =  10.00000
 -D3 energy without 3body term =     -0.0400070386 hartrees
 ----------------------------------------------------------------
             Standard Nuclear Orientation (Angstroms)
    I     Atom           X                Y                Z
 ----------------------------------------------------------------
    1      C      -0.6540608653    -0.9293000797     0.7253040231
    2      C      -0.6989563271     0.6587938309     0.7722596266
    3      C       0.5845298895    -1.7102926322     0.3242851788
    4      C       0.6163631014     1.3791060389     0.4302144549
    5      O       1.6913148985    -0.9690886384     0.1662767561
    6      O       0.5675228091    -2.9108394829     0.1795846411
    7      O       0.7823291924     1.6080523322    -0.8860438418
    8      O       1.4054806369     1.7631831775     1.2593865184
    9      C       2.0216668160     2.2246826778    -1.2655376011
   10      C       2.8897772348    -1.6775174099    -0.1994702924
   11      C      -1.8485394911    -1.3023298950    -0.2377414585
   12      C      -1.4453807817    -0.8430364370    -1.6312864541
   13      C      -1.4801096951     0.4924847178    -1.6344411329
   14      C      -1.8888205848     0.9492115349    -0.2390525299
   15      C      -2.8662921253    -0.2019985506     0.1167440036
   16      C      -1.0554130227     1.1286211707     2.1991429874
   17      H       2.1204364329     3.2098085630    -0.8072834230
   18      H       2.7810014191    -2.1128575033    -1.1940942832
   19      H      -1.1845671965     1.1551556733    -2.4335832025
   20      H       1.9842735197     2.3075421513    -2.3500512960
   21      H       2.8620625491     1.6009727582    -0.9569618530
   22      H       3.6805610933    -0.9308239691    -0.1899075996
   23      H       3.0992666496    -2.4694346796     0.5200720696
   24      H      -2.2639589596     1.9698871147    -0.1631392251
   25      H      -2.1573315816    -2.3402431080    -0.1377060033
   26      H      -2.0461603707     0.7892188985     2.4981757659
   27      H      -0.3276180013     0.7464469620     2.9157613608
   28      H      -1.0340583861     2.2190124248     2.2626138631
   29      H      -3.7319774316    -0.2197949303    -0.5464666028
   30      H      -3.2052777466    -0.2191466981     1.1529019715
   31      H      -1.1109548052    -1.4979292918    -2.4247767219
   32      H      -0.8866833101    -1.3002149005     1.7283694201
 ----------------------------------------------------------------
 Nuclear Repulsion Energy =  1235.6384677111 hartrees
 There are       60 alpha and       60 beta electrons
 Applying Cartesian multipole field
    Component          Value
    ---------          -----
     (2,0,0)        1.00000E-11
     (0,2,0)        2.00000E-11
     (0,0,2)       -3.00000E-11
 Nucleus-field energy     =     0.0000000171 hartrees
 Requested basis set is 6-311++G(d,p)
 There are 176 shells and 464 basis functions
 A cutoff of  1.0D-11 yielded  13021 shell pairs
 There are     92669 function pairs (     98992 Cartesian)
 Smallest overlap matrix eigenvalue = 1.02E-06

 Q-Chem warning in module /fs/scratch/osu6415/qchem-kaunlao-vdw/stvman/mkSTV.C, line 281:

 Overlap eigenvalue is smaller than square root of threshold

 Guess MOs from SCF MO coefficient file
 Reading MOs from coefficient file
 Reading MOs from coefficient file
 A restricted hybrid HF-DFT SCF calculation will be
 performed using Pulay DIIS extrapolation
 Exchange:     0.2000 Hartree-Fock + 0.0800 Slater + 0.7200 B88
 Correlation:  0.1900 VWN1RPA + 0.8100 LYP
 Using SG-1 standard quadrature grid
 Dispersion:   Grimme D3
 SCF converges when DIIS error is below 1.0E-08
 Geometry optimization detected.  Setting ReadMinima to 0
 Setting SaveMinima to 0
 using 20 threads for integral computing
 -------------------------------------------------------
 OpenMP Integral computing Module                
 Release: version 1.0, May 2013, Q-Chem Inc. Pittsburgh 
 -------------------------------------------------------
 -------------------------------------------------------
 OpenMP BLAS3 based DFT computing Module                
 Release: version 1.0, May 2013, Q-Chem Inc. Pittsburgh 
 -------------------------------------------------------
 ---------------------------------------
  Cycle       Energy         DIIS Error
 ---------------------------------------
    1    -768.0166197238      5.81E-04
    2    -768.0302839266      1.18E-04
    3    -768.0297260061      1.99E-04
    4    -768.0306514536      3.51E-05
    5    -768.0306731629      1.23E-05
    6    -768.0306760291      3.85E-06
    7    -768.0306763043      1.67E-06
    8    -768.0306763667      5.69E-07
    9    -768.0306763740      1.72E-07
   10    -768.0306763757      5.46E-08
   11    -768.0306763765      1.89E-08
   12    -768.0306763744      7.62E-09 Convergence criterion met
 ---------------------------------------
 SCF time:  CPU 858.39 s  wall 54.86 s
 SCF   energy in the final basis set = -768.03067637
 Total energy in the final basis set = -768.03067637
 
 --------------------------------------------------------------
 
                    Orbital Energies (a.u.)
 --------------------------------------------------------------
 
 Alpha MOs
 -- Occupied --
-19.177 -19.169 -19.114 -19.108 -10.307 -10.301 -10.232 -10.228
-10.213 -10.205 -10.192 -10.190 -10.176 -10.171 -10.167 -10.165
 -1.120  -1.111  -1.028  -1.022  -0.899  -0.798  -0.768  -0.741
 -0.726  -0.711  -0.677  -0.626  -0.587  -0.572  -0.562  -0.542
 -0.534  -0.519  -0.501  -0.493  -0.481  -0.475  -0.468  -0.453
 -0.439  -0.434  -0.415  -0.407  -0.401  -0.393  -0.388  -0.379
 -0.378  -0.361  -0.358  -0.352  -0.347  -0.337  -0.322  -0.318
 -0.307  -0.285  -0.277  -0.248
 -- Virtual --
 -0.016  -0.010  -0.002  -0.001   0.003   0.005   0.009   0.018
  0.021   0.026   0.030   0.035   0.043   0.044   0.048   0.050
  0.054   0.066   0.068   0.074   0.085   0.087   0.091   0.091
  0.093   0.105   0.107   0.110   0.112   0.116   0.117   0.119
  0.123   0.124   0.126   0.130   0.134   0.136   0.138   0.144
  0.145   0.147   0.148   0.151   0.153   0.157   0.160   0.161
  0.164   0.166   0.172   0.178   0.179   0.183   0.186   0.192
  0.194   0.195   0.202   0.206   0.209   0.210   0.215   0.219
  0.222   0.228   0.230   0.236   0.241   0.243   0.246   0.258
  0.260   0.264   0.268   0.275   0.281   0.285   0.287   0.294
  0.299   0.305   0.308   0.311   0.320   0.324   0.326   0.329
  0.333   0.335   0.342   0.344   0.348   0.353   0.358   0.363
  0.367   0.370   0.375   0.376   0.381   0.386   0.390   0.399
  0.409   0.418   0.421   0.422   0.437   0.442   0.448   0.458
  0.476   0.493   0.496   0.507   0.513   0.520   0.525   0.530
  0.539   0.544   0.558   0.575   0.583   0.589   0.601   0.605
  0.615   0.628   0.630   0.633   0.644   0.650   0.654   0.661
  0.670   0.673   0.680   0.690   0.690   0.697   0.701   0.712
  0.717   0.722   0.722   0.727   0.736   0.741   0.748   0.756
  0.761   0.772   0.776   0.786   0.792   0.802   0.811   0.820
  0.825   0.835   0.850   0.866   0.873   0.886   0.905   0.924
  0.937   0.954   0.975   0.993   1.017   1.021   1.035   1.047
  1.062   1.080   1.088   1.109   1.115   1.135   1.163   1.173
  1.203   1.207   1.218   1.220   1.248   1.255   1.268   1.281
  1.298   1.302   1.311   1.319   1.324   1.345   1.372   1.384
  1.406   1.410   1.430   1.438   1.449   1.452   1.460   1.474
  1.489   1.501   1.506   1.508   1.524   1.538   1.557   1.567
  1.573   1.579   1.586   1.593   1.599   1.610   1.625   1.640
  1.649   1.660   1.678   1.688   1.690   1.698   1.719   1.722
  1.727   1.734   1.745   1.753   1.765   1.768   1.770   1.785
  1.792   1.803   1.813   1.823   1.840   1.853   1.867   1.877
  1.896   1.900   1.910   1.915   1.925   1.931   1.945   1.968
  1.982   1.998   2.008   2.019   2.029   2.044   2.061   2.074
  2.093   2.111   2.127   2.138   2.143   2.147   2.183   2.200
  2.215   2.226   2.244   2.250   2.265   2.269   2.285   2.329
  2.357   2.361   2.404   2.418   2.447   2.452   2.462   2.472
  2.495   2.511   2.514   2.534   2.536   2.550   2.552   2.566
  2.588   2.593   2.606   2.622   2.631   2.644   2.666   2.667
  2.690   2.708   2.716   2.735   2.763   2.773   2.815   2.820
  2.840   2.842   2.861   2.870   2.881   2.889   2.903   2.926
  2.929   2.940   2.948   3.006   3.025   3.031   3.036   3.050
  3.058   3.076   3.085   3.100   3.120   3.127   3.142   3.159
  3.179   3.189   3.225   3.244   3.256   3.272   3.310   3.334
  3.348   3.375   3.408   3.428   3.454   3.515   3.595   3.614
  3.638   3.702   3.771   3.779   3.783   3.801   3.819   3.837
  3.870   3.871   3.921   4.058   4.066   4.090   4.121   4.131
  4.169   4.171   4.185   4.241   4.250   4.298   4.357   4.441
  5.045   5.089   5.117   5.165   5.252   5.281   5.465   5.469
  5.633   5.651   5.890   5.906  23.810  23.833  23.856  23.862
 23.884  23.920  23.941  23.944  23.995  24.015  24.054  24.321
 49.919  49.959  50.029  50.061
 --------------------------------------------------------------
 
          Ground-State Mulliken Net Atomic Charges

     Atom                 Charge (a.u.)
  ----------------------------------------
      1 C                     0.112466
      2 C                     0.253311
      3 C                    -0.478754
      4 C                    -0.725870
      5 O                    -0.089522
      6 O                    -0.203348
      7 O                     0.026450
      8 O                    -0.175751
      9 C                    -0.155149
     10 C                    -0.218108
     11 C                     0.078308
     12 C                    -0.167367
     13 C                    -0.640725
     14 C                     0.516163
     15 C                    -0.690864
     16 C                    -0.343786
     17 H                     0.176802
     18 H                     0.191944
     19 H                     0.146676
     20 H                     0.148908
     21 H                     0.168683
     22 H                     0.149523
     23 H                     0.179744
     24 H                     0.272277
     25 H                     0.282828
     26 H                     0.116946
     27 H                     0.197362
     28 H                     0.168974
     29 H                     0.188817
     30 H                     0.114978
     31 H                     0.155121
     32 H                     0.242964
  ----------------------------------------
  Sum of atomic charges =     0.000000

 -----------------------------------------------------------------
                    Cartesian Multipole Moments
 -----------------------------------------------------------------
    Charge (ESU x 10^10)
                 0.0000
    Dipole Moment (Debye)
         X       0.1252      Y       1.2714      Z      -1.4759
       Tot       1.9520
    Quadrupole Moments (Debye-Ang)
        XX     -87.1521     XY      -2.4805     YY    -102.6619
        XZ      -8.0248     YZ      -4.6129     ZZ     -94.7843
    Octopole Moments (Debye-Ang^2)
       XXX      52.5022    XXY     -11.9566    XYY       7.5308
       YYY      44.5004    XXZ      -7.7490    XYZ     -10.1588
       YYZ     -15.0679    XZZ       8.6047    YZZ      -5.7410
       ZZZ      -9.3562
    Hexadecapole Moments (Debye-Ang^3)
      XXXX   -1665.9400   XXXY     -38.6603   XXYY    -490.1335
      XYYY      12.5033   YYYY   -1510.9152   XXXZ     -15.0545
      XXYZ     -26.9252   XYYZ     -15.1382   YYYZ     -24.4951
      XXZZ    -438.3453   XYZZ      -7.9707   YYZZ    -357.9991
      XZZZ      -1.2428   YZZZ     -31.2524   ZZZZ    -785.8232
 -----------------------------------------------------------------
 Calculating analytic gradient of the SCF energy
 Gradient of SCF Energy
            1           2           3           4           5           6
    1   0.0002318   0.0003827  -0.0001246  -0.0001878   0.0000330   0.0000295
    2  -0.0000927   0.0000667   0.0000717  -0.0003070   0.0000741  -0.0000939
    3   0.0007916  -0.0000712  -0.0002170  -0.0005664   0.0001797   0.0002651
            7           8           9          10          11          12
    1  -0.0010236   0.0001008  -0.0000737  -0.0000873  -0.0005138   0.0007936
    2  -0.0000591   0.0001204  -0.0000918  -0.0001171  -0.0000913   0.0003284
    3  -0.0003053   0.0001843  -0.0000104   0.0000230  -0.0000788  -0.0000376
           13          14          15          16          17          18
    1  -0.0001897   0.0000483  -0.0005082  -0.0000456   0.0000114   0.0000068
    2   0.0007791  -0.0003949  -0.0003458  -0.0005134  -0.0000124   0.0000291
    3   0.0003852   0.0003164  -0.0001326   0.0003123  -0.0000362  -0.0000127
           19          20          21          22          23          24
    1   0.0001599   0.0000029  -0.0000106   0.0000233   0.0000044   0.0000549
    2   0.0001578  -0.0000114  -0.0000005  -0.0000609  -0.0000094   0.0000184
    3   0.0000083  -0.0000054  -0.0000014  -0.0000421  -0.0000012  -0.0000904
           25          26          27          28          29          30
    1   0.0000406   0.0003611  -0.0003727   0.0007451   0.0000355  -0.0002519
    2   0.0000076   0.0009799  -0.0006449   0.0003704  -0.0001974  -0.0000248
    3   0.0000042  -0.0001260  -0.0002433   0.0000955  -0.0000544  -0.0006344
           31          32
    1   0.0000125   0.0003115
    2   0.0000517   0.0000133
    3  -0.0000035   0.0001043
 Max gradient component =       1.024E-03
 RMS gradient           =       3.004E-04
 Gradient time:  CPU 335.49 s  wall 25.78 s
 Geometry Optimization Parameters
   NAtoms,    NIC,     NZ,  NCons,   NDum,   NFix, NCnnct, MaxDiis
       32     251       0       0       0       0       0       0

 Cartesian Hessian Update
 Hessian Updated using Powell/Murtagh-Sargent Update
  Mixing factors:     0.300326 Powell
                      0.699674 Murtagh-Sargent


** GEOMETRY OPTIMIZATION IN DELOCALIZED INTERNAL COORDINATES **
   Searching for a Transition State

   Optimization Cycle:   3

                       Coordinates (Angstroms)
     ATOM                X               Y               Z
      1  C        -0.6540608653   -0.9293000797    0.7253040231
      2  C        -0.6989563271    0.6587938309    0.7722596266
      3  C         0.5845298895   -1.7102926322    0.3242851788
      4  C         0.6163631014    1.3791060389    0.4302144549
      5  O         1.6913148985   -0.9690886384    0.1662767561
      6  O         0.5675228091   -2.9108394829    0.1795846411
      7  O         0.7823291924    1.6080523322   -0.8860438418
      8  O         1.4054806369    1.7631831775    1.2593865184
      9  C         2.0216668160    2.2246826778   -1.2655376011
     10  C         2.8897772348   -1.6775174099   -0.1994702924
     11  C        -1.8485394911   -1.3023298950   -0.2377414585
     12  C        -1.4453807817   -0.8430364370   -1.6312864541
     13  C        -1.4801096951    0.4924847178   -1.6344411329
     14  C        -1.8888205848    0.9492115349   -0.2390525299
     15  C        -2.8662921253   -0.2019985506    0.1167440036
     16  C        -1.0554130227    1.1286211707    2.1991429874
     17  H         2.1204364329    3.2098085630   -0.8072834230
     18  H         2.7810014191   -2.1128575033   -1.1940942832
     19  H        -1.1845671965    1.1551556733   -2.4335832025
     20  H         1.9842735197    2.3075421513   -2.3500512960
     21  H         2.8620625491    1.6009727582   -0.9569618530
     22  H         3.6805610933   -0.9308239691   -0.1899075996
     23  H         3.0992666496   -2.4694346796    0.5200720696
     24  H        -2.2639589596    1.9698871147   -0.1631392251
     25  H        -2.1573315816   -2.3402431080   -0.1377060033
     26  H        -2.0461603707    0.7892188985    2.4981757659
     27  H        -0.3276180013    0.7464469620    2.9157613608
     28  H        -1.0340583861    2.2190124248    2.2626138631
     29  H        -3.7319774316   -0.2197949303   -0.5464666028
     30  H        -3.2052777466   -0.2191466981    1.1529019715
     31  H        -1.1109548052   -1.4979292918   -2.4247767219
     32  H        -0.8866833101   -1.3002149005    1.7283694201
   Point Group: c1    Number of degrees of freedom:    90


   Energy is   -768.030676374

 Hessian Updated using Powell/Murtagh-Sargent Update
  Mixing factors:     0.968554 Powell
                      0.031446 Murtagh-Sargent

 83 Hessian modes will be used to form the next step
  Hessian Eigenvalues:
    -0.001677    0.004161    0.006675    0.008108    0.008962    0.010431
     0.010971    0.011030    0.012684    0.016560    0.017534    0.019927
     0.022764    0.023396    0.026708    0.031944    0.040073    0.042552
     0.046197    0.046816    0.047730    0.049351    0.053584    0.054460
     0.056369    0.056886    0.058246    0.065527    0.068255    0.076351
     0.090070    0.097294    0.101367    0.101427    0.106085    0.106091
     0.113664    0.117653    0.139798    0.157970    0.159166    0.159952
     0.160000    0.160084    0.169560    0.212623    0.222867    0.239203
     0.249707    0.249904    0.249973    0.250000    0.250000    0.250618
     0.251099    0.271136    0.282091    0.286480    0.297267    0.305426
     0.343166    0.344728    0.346791    0.346862    0.347006    0.347333
     0.347587    0.347779    0.347952    0.348187    0.349059    0.350082
     0.350855    0.351052    0.357744    0.360655    0.396636    0.402299
     0.514588    0.558407    0.568903    1.002540    1.011927

 Transition State Search - Taking P-RFO Step
 Searching for Lamda that Maximizes Along the Lowest mode
 Value Taken    Lamda =   0.00016141
 Searching for Lamda that Minimizes Along All other modes
 Value Taken    Lamda =  -0.00045857
 Calculated Step too Large.  Step scaled by  0.884596
 Step Taken.  Stepsize is  0.300000

                             Maximum     Tolerance    Cnvgd?
         Gradient           0.002997      0.000001      NO
         Displacement       0.132406      0.000001      NO
         Energy change      0.000392      0.000000      NO


 New Cartesian Coordinates Obtained by Inverse Iteration

 Displacement from previous Coordinates is:  0.861936
 Adding empirical dispersion correction 
 ----------------------------------------------------------------
 Doing -D3(op) with
 s6 =   1.00000
 s8 =   0.78311
 a1 =   0.30000
 a2 =   4.25000
 n  =  10.00000
 -D3 energy without 3body term =     -0.0399959380 hartrees
 ----------------------------------------------------------------
             Standard Nuclear Orientation (Angstroms)
    I     Atom           X                Y                Z
 ----------------------------------------------------------------
    1      C      -0.6449896699    -0.9158722251     0.7240138093
    2      C      -0.7078415430     0.6724799982     0.7616902547
    3      C       0.5945806990    -1.6896418044     0.3115560135
    4      C       0.6077826261     1.4098061253     0.4495652259
    5      O       1.6865511072    -0.9372191791     0.1097739903
    6      O       0.5846007533    -2.8906606588     0.1704149480
    7      O       0.8517094368     1.5760001408    -0.8638286335
    8      O       1.3518285647     1.8323542780     1.3011761645
    9      C       2.1066509885     2.1883362972    -1.1967918065
   10      C       2.8821893662    -1.6342173689    -0.2857705747
   11      C      -1.8553761178    -1.3128660256    -0.2074935014
   12      C      -1.4833784960    -0.8885941289    -1.6186765587
   13      C      -1.5069146577     0.4462693330    -1.6488637487
   14      C      -1.8965430181     0.9387572377    -0.2581667717
   15      C      -2.8649108996    -0.2036039742     0.1446801723
   16      C      -1.0962522002     1.1388054746     2.1817378103
   17      H       2.1692176581     3.1946704343    -0.7800887123
   18      H       2.7474835875    -2.0835945949    -1.2709725054
   19      H      -1.2261134800     1.0884420242    -2.4694478571
   20      H       2.1343177936     2.2203756115    -2.2842951640
   21      H       2.9320670051     1.5890055542    -0.8094115350
   22      H       3.6623170763    -0.8767250259    -0.3104615330
   23      H       3.1252685055    -2.4142186214     0.4362037160
   24      H      -2.2753380278     1.9593554861    -0.2000773441
   25      H      -2.1612549737    -2.3484131540    -0.0780561558
   26      H      -2.1154893084     0.8431658663     2.4315070398
   27      H      -0.4199891879     0.7114805553     2.9237060180
   28      H      -1.0255639037     2.2247978170     2.2657600852
   29      H      -3.7469586346    -0.2340650473    -0.4960705937
   30      H      -3.1763105233    -0.1965496817     1.1905056213
   31      H      -1.1690041112    -1.5631652144    -2.4038598298
   32      H      -0.8639108550    -1.2773637090     1.7335910761
 ----------------------------------------------------------------
 Nuclear Repulsion Energy =  1235.1077996016 hartrees
 There are       60 alpha and       60 beta electrons
 Applying Cartesian multipole field
    Component          Value
    ---------          -----
     (2,0,0)        1.00000E-11
     (0,2,0)        2.00000E-11
     (0,0,2)       -3.00000E-11
 Nucleus-field energy     =     0.0000000172 hartrees
 Requested basis set is 6-311++G(d,p)
 There are 176 shells and 464 basis functions
 A cutoff of  1.0D-11 yielded  13016 shell pairs
 There are     92696 function pairs (     99025 Cartesian)
 Smallest overlap matrix eigenvalue = 1.04E-06

 Q-Chem warning in module /fs/scratch/osu6415/qchem-kaunlao-vdw/stvman/mkSTV.C, line 281:

 Overlap eigenvalue is smaller than square root of threshold

 Guess MOs from SCF MO coefficient file
 Reading MOs from coefficient file
 Reading MOs from coefficient file
 A restricted hybrid HF-DFT SCF calculation will be
 performed using Pulay DIIS extrapolation
 Exchange:     0.2000 Hartree-Fock + 0.0800 Slater + 0.7200 B88
 Correlation:  0.1900 VWN1RPA + 0.8100 LYP
 Using SG-1 standard quadrature grid
 Dispersion:   Grimme D3
 SCF converges when DIIS error is below 1.0E-08
 Geometry optimization detected.  Setting ReadMinima to 0
 Setting SaveMinima to 0
 using 20 threads for integral computing
 -------------------------------------------------------
 OpenMP Integral computing Module                
 Release: version 1.0, May 2013, Q-Chem Inc. Pittsburgh 
 -------------------------------------------------------
 -------------------------------------------------------
 OpenMP BLAS3 based DFT computing Module                
 Release: version 1.0, May 2013, Q-Chem Inc. Pittsburgh 
 -------------------------------------------------------
 ---------------------------------------
  Cycle       Energy         DIIS Error
 ---------------------------------------
    1    -768.0311229354      1.07E-03
    2    -768.0294118879      1.36E-04
    3    -768.0286964055      2.25E-04
    4    -768.0299150623      3.79E-05
    5    -768.0299373714      1.91E-05
    6    -768.0299441476      5.62E-06
    7    -768.0299446464      2.92E-06
    8    -768.0299448530      5.85E-07
    9    -768.0299448605      2.18E-07
   10    -768.0299448607      8.73E-08
   11    -768.0299448609      3.74E-08
   12    -768.0299448608      1.17E-08
   13    -768.0299448548      3.47E-09 Convergence criterion met
 ---------------------------------------
 SCF time:  CPU 914.13 s  wall 61.23 s
 SCF   energy in the final basis set = -768.02994485
 Total energy in the final basis set = -768.02994485
 
 --------------------------------------------------------------
 
                    Orbital Energies (a.u.)
 --------------------------------------------------------------
 
 Alpha MOs
 -- Occupied --
-19.177 -19.168 -19.114 -19.108 -10.308 -10.301 -10.232 -10.228
-10.214 -10.205 -10.193 -10.191 -10.176 -10.172 -10.169 -10.165
 -1.120  -1.110  -1.028  -1.021  -0.900  -0.798  -0.767  -0.741
 -0.726  -0.711  -0.677  -0.625  -0.588  -0.572  -0.562  -0.541
 -0.535  -0.520  -0.502  -0.493  -0.481  -0.474  -0.469  -0.454
 -0.439  -0.433  -0.415  -0.407  -0.402  -0.394  -0.386  -0.379
 -0.377  -0.361  -0.357  -0.353  -0.347  -0.337  -0.322  -0.318
 -0.306  -0.285  -0.277  -0.250
 -- Virtual --
 -0.016  -0.010  -0.003  -0.002   0.002   0.006   0.009   0.018
  0.020   0.026   0.030   0.035   0.044   0.044   0.048   0.049
  0.054   0.067   0.069   0.074   0.087   0.088   0.091   0.091
  0.093   0.105   0.106   0.110   0.112   0.115   0.116   0.119
  0.123   0.124   0.126   0.129   0.134   0.136   0.138   0.142
  0.145   0.147   0.148   0.151   0.154   0.158   0.159   0.161
  0.163   0.166   0.171   0.178   0.179   0.185   0.186   0.192
  0.195   0.197   0.203   0.207   0.208   0.210   0.217   0.219
  0.223   0.229   0.229   0.235   0.240   0.242   0.247   0.258
  0.260   0.264   0.269   0.276   0.281   0.285   0.287   0.294
  0.300   0.304   0.307   0.311   0.321   0.323   0.325   0.328
  0.334   0.335   0.342   0.343   0.349   0.354   0.356   0.362
  0.366   0.372   0.373   0.374   0.380   0.387   0.392   0.396
  0.408   0.417   0.422   0.426   0.436   0.442   0.448   0.455
  0.475   0.487   0.493   0.505   0.515   0.520   0.524   0.531
  0.535   0.545   0.557   0.576   0.582   0.589   0.604   0.605
  0.614   0.623   0.631   0.635   0.644   0.648   0.659   0.661
  0.667   0.676   0.679   0.687   0.691   0.697   0.698   0.711
  0.713   0.720   0.724   0.726   0.740   0.742   0.750   0.753
  0.761   0.772   0.777   0.784   0.793   0.800   0.810   0.816
  0.823   0.835   0.848   0.866   0.871   0.888   0.910   0.927
  0.936   0.953   0.983   0.992   1.020   1.029   1.038   1.046
  1.064   1.076   1.091   1.111   1.116   1.148   1.169   1.176
  1.197   1.202   1.212   1.220   1.245   1.254   1.269   1.276
  1.293   1.300   1.311   1.316   1.323   1.337   1.374   1.385
  1.392   1.411   1.439   1.443   1.451   1.452   1.460   1.468
  1.484   1.501   1.509   1.513   1.520   1.536   1.554   1.566
  1.573   1.580   1.588   1.592   1.600   1.614   1.624   1.643
  1.646   1.659   1.680   1.684   1.690   1.695   1.720   1.721
  1.727   1.731   1.745   1.755   1.762   1.764   1.770   1.784
  1.790   1.803   1.814   1.821   1.841   1.850   1.865   1.874
  1.890   1.897   1.913   1.916   1.927   1.929   1.943   1.968
  1.983   1.996   2.010   2.023   2.028   2.044   2.063   2.073
  2.090   2.106   2.124   2.138   2.143   2.147   2.181   2.198
  2.214   2.223   2.245   2.252   2.264   2.274   2.289   2.327
  2.361   2.365   2.401   2.417   2.440   2.453   2.464   2.471
  2.495   2.509   2.514   2.534   2.537   2.547   2.550   2.558
  2.585   2.598   2.604   2.623   2.634   2.644   2.668   2.668
  2.689   2.711   2.716   2.735   2.759   2.777   2.811   2.821
  2.839   2.844   2.865   2.868   2.877   2.888   2.904   2.922
  2.928   2.934   2.947   3.008   3.027   3.033   3.039   3.046
  3.057   3.080   3.082   3.102   3.123   3.125   3.150   3.159
  3.183   3.192   3.227   3.241   3.253   3.273   3.311   3.334
  3.347   3.374   3.408   3.426   3.453   3.513   3.594   3.613
  3.637   3.702   3.765   3.777   3.783   3.806   3.815   3.835
  3.868   3.873   3.921   4.061   4.064   4.087   4.125   4.131
  4.170   4.174   4.188   4.234   4.249   4.295   4.354   4.441
  5.033   5.095   5.117   5.164   5.252   5.282   5.465   5.474
  5.635   5.648   5.892   5.903  23.810  23.829  23.855  23.862
 23.881  23.918  23.940  23.945  23.993  24.018  24.056  24.319
 49.918  49.960  50.029  50.060
 --------------------------------------------------------------
 
          Ground-State Mulliken Net Atomic Charges

     Atom                 Charge (a.u.)
  ----------------------------------------
      1 C                     0.115981
      2 C                     0.164791
      3 C                    -0.442595
      4 C                    -0.618561
      5 O                    -0.097709
      6 O                    -0.205940
      7 O                     0.037995
      8 O                    -0.177164
      9 C                    -0.170648
     10 C                    -0.212128
     11 C                     0.080364
     12 C                    -0.179929
     13 C                    -0.620590
     14 C                     0.494593
     15 C                    -0.684972
     16 C                    -0.382612
     17 H                     0.176240
     18 H                     0.192304
     19 H                     0.146555
     20 H                     0.151674
     21 H                     0.176161
     22 H                     0.139778
     23 H                     0.181076
     24 H                     0.273167
     25 H                     0.282573
     26 H                     0.108665
     27 H                     0.196655
     28 H                     0.172827
     29 H                     0.189209
     30 H                     0.113585
     31 H                     0.155720
     32 H                     0.242934
  ----------------------------------------
  Sum of atomic charges =    -0.000000

 -----------------------------------------------------------------
                    Cartesian Multipole Moments
 -----------------------------------------------------------------
    Charge (ESU x 10^10)
                -0.0000
    Dipole Moment (Debye)
         X       0.1283      Y       1.1599      Z      -1.5297
       Tot       1.9240
    Quadrupole Moments (Debye-Ang)
        XX     -86.6367     XY      -2.3089     YY    -103.0527
        XZ      -7.9687     YZ      -4.5708     ZZ     -95.0315
    Octopole Moments (Debye-Ang^2)
       XXX      53.9758    XXY     -10.8313    XYY       6.4638
       YYY      41.4534    XXZ      -8.2278    XYZ      -9.7918
       YYZ     -15.8071    XZZ       8.2017    YZZ      -7.4173
       ZZZ     -10.0820
    Hexadecapole Moments (Debye-Ang^3)
      XXXX   -1689.5674   XXXY     -44.1190   XXYY    -492.8915
      XYYY       4.2090   YYYY   -1499.5928   XXXZ      -9.1011
      XXYZ     -31.3655   XYYZ     -13.0078   YYYZ     -39.8996
      XXZZ    -440.7657   XYZZ     -12.3874   YYZZ    -357.9237
      XZZZ       8.1252   YZZZ     -46.1829   ZZZZ    -778.9034
 -----------------------------------------------------------------
 Calculating analytic gradient of the SCF energy
 Gradient of SCF Energy
            1           2           3           4           5           6
    1   0.0001136  -0.0010089   0.0006890  -0.0015203  -0.0005041  -0.0002648
    2   0.0005134  -0.0006846  -0.0006513   0.0032803   0.0005772   0.0001057
    3  -0.0015902   0.0004147   0.0029325   0.0021788  -0.0017517  -0.0009232
            7           8           9          10          11          12
    1   0.0031421  -0.0001228   0.0004713   0.0002042   0.0003267  -0.0005413
    2  -0.0007159  -0.0005536   0.0001686   0.0000965   0.0001452  -0.0000787
    3   0.0009833  -0.0009214   0.0000970  -0.0001511   0.0001238  -0.0001833
           13          14          15          16          17          18
    1  -0.0007252  -0.0005497   0.0009991   0.0011172  -0.0000714  -0.0000302
    2  -0.0012993  -0.0004377   0.0005321  -0.0006963  -0.0000105  -0.0000913
    3  -0.0011644  -0.0001872   0.0006538  -0.0011735  -0.0000428  -0.0000194
           19          20          21          22          23          24
    1  -0.0006772   0.0000731   0.0001213  -0.0000812  -0.0001060  -0.0000801
    2  -0.0004527  -0.0000366  -0.0001683   0.0001765   0.0000486  -0.0000534
    3   0.0001101  -0.0000483  -0.0001345   0.0000304  -0.0000019   0.0002917
           25          26          27          28          29          30
    1   0.0000487  -0.0014063  -0.0003466   0.0008504   0.0000861   0.0003970
    2  -0.0000665   0.0003727  -0.0009027   0.0001137   0.0001021   0.0005115
    3  -0.0003088  -0.0007730   0.0000250   0.0002889   0.0000464   0.0011787
           31          32
    1  -0.0000933  -0.0005104
    2  -0.0000785   0.0002335
    3   0.0000116   0.0000080
 Max gradient component =       3.280E-03
 RMS gradient           =       8.308E-04
 Gradient time:  CPU 336.52 s  wall 24.57 s
 Geometry Optimization Parameters
   NAtoms,    NIC,     NZ,  NCons,   NDum,   NFix, NCnnct, MaxDiis
       32     251       0       0       0       0       0       0

 Cartesian Hessian Update
 Hessian Updated using Powell/Murtagh-Sargent Update
  Mixing factors:     0.550215 Powell
                      0.449785 Murtagh-Sargent


** GEOMETRY OPTIMIZATION IN DELOCALIZED INTERNAL COORDINATES **
   Searching for a Transition State

   Optimization Cycle:   4

                       Coordinates (Angstroms)
     ATOM                X               Y               Z
      1  C        -0.6449896699   -0.9158722251    0.7240138093
      2  C        -0.7078415430    0.6724799982    0.7616902547
      3  C         0.5945806990   -1.6896418044    0.3115560135
      4  C         0.6077826261    1.4098061253    0.4495652259
      5  O         1.6865511072   -0.9372191791    0.1097739903
      6  O         0.5846007533   -2.8906606588    0.1704149480
      7  O         0.8517094368    1.5760001408   -0.8638286335
      8  O         1.3518285647    1.8323542780    1.3011761645
      9  C         2.1066509885    2.1883362972   -1.1967918065
     10  C         2.8821893662   -1.6342173689   -0.2857705747
     11  C        -1.8553761178   -1.3128660256   -0.2074935014
     12  C        -1.4833784960   -0.8885941289   -1.6186765587
     13  C        -1.5069146577    0.4462693330   -1.6488637487
     14  C        -1.8965430181    0.9387572377   -0.2581667717
     15  C        -2.8649108996   -0.2036039742    0.1446801723
     16  C        -1.0962522002    1.1388054746    2.1817378103
     17  H         2.1692176581    3.1946704343   -0.7800887123
     18  H         2.7474835875   -2.0835945949   -1.2709725054
     19  H        -1.2261134800    1.0884420242   -2.4694478571
     20  H         2.1343177936    2.2203756115   -2.2842951640
     21  H         2.9320670051    1.5890055542   -0.8094115350
     22  H         3.6623170763   -0.8767250259   -0.3104615330
     23  H         3.1252685055   -2.4142186214    0.4362037160
     24  H        -2.2753380278    1.9593554861   -0.2000773441
     25  H        -2.1612549737   -2.3484131540   -0.0780561558
     26  H        -2.1154893084    0.8431658663    2.4315070398
     27  H        -0.4199891879    0.7114805553    2.9237060180
     28  H        -1.0255639037    2.2247978170    2.2657600852
     29  H        -3.7469586346   -0.2340650473   -0.4960705937
     30  H        -3.1763105233   -0.1965496817    1.1905056213
     31  H        -1.1690041112   -1.5631652144   -2.4038598298
     32  H        -0.8639108550   -1.2773637090    1.7335910761
   Point Group: c1    Number of degrees of freedom:    90


   Energy is   -768.029944855

 Hessian Updated using Powell/Murtagh-Sargent Update
  Mixing factors:     0.786986 Powell
                      0.213014 Murtagh-Sargent

 85 Hessian modes will be used to form the next step
  Hessian Eigenvalues:
    -0.004628    0.004141    0.006292    0.007702    0.009856    0.010432
     0.010969    0.012633    0.014206    0.016576    0.018725    0.020243
     0.022821    0.023395    0.027791    0.032786    0.040413    0.042550
     0.046530    0.047446    0.048820    0.053405    0.054347    0.054587
     0.056449    0.057394    0.058577    0.065519    0.068294    0.076353
     0.090158    0.098496    0.101375    0.101427    0.106086    0.106093
     0.113665    0.117650    0.148095    0.157993    0.159197    0.159948
[...]
     0.00006961     -0.00000098     -0.00001408
     0.00006008     -0.00002627     -0.00000211
     0.00004917      0.00000337      0.00003700
     0.00011762      0.00009802      0.00017998
    -0.00028092     -0.00014799      0.00005786
    -0.00011741      0.00018295      0.00017909
    -0.00237732     -0.00499024      0.00111436
    -0.00036438     -0.00024078     -0.00018881
    -0.00041403      0.00004920     -0.00010136
    -0.00465129      0.01144489      0.00105396
     0.06309965      0.00009941     -0.01737613
    -0.00577855     -0.01447129     -0.00128021
     0.00036536      0.00367369      0.00174055
    -0.00046868     -0.00153098     -0.00362406
     0.00190244      0.00063502     -0.00078645
    -0.00008996      0.00032623     -0.00337652
     0.00302921     -0.00231658      0.00106985
     0.00125678      0.00114117      0.00001450
     0.00047531     -0.00170599      0.00153628
     0.05316806     -0.14170393     -0.00868528
     0.02471606      0.06711724     -0.00981669
     0.05158678      0.02621468     -0.02124342
     0.03591841     -0.01440430      0.03318170
    -0.02606377      0.15570243     -0.00088886
    -0.53917785     -0.01213892     -0.43713387
    -0.18710186      0.01386340      0.64657397
     0.00092912      0.00141771      0.00120806
    -0.00455948     -0.00653618      0.02055276
vibration 80
     0.00004583      0.00110910     -0.00198538
    -0.00024835     -0.00036378     -0.00060279
    -0.00016379     -0.00001975      0.00003765
    -0.00019250     -0.00038321      0.00034270
     0.00008372      0.00002335     -0.00001642
     0.00007890     -0.00002597      0.00000899
     0.00004080      0.00011973     -0.00010882
     0.00012251      0.00011140      0.00007528
    -0.00052049      0.00102264      0.00002634
     0.00004338      0.00016807      0.00026627
    -0.00168661     -0.00369289      0.00080051
    -0.00007411      0.00025809      0.00041603
     0.00063516      0.00285098     -0.00166490
     0.02700208     -0.07882829     -0.00429586
     0.01264259      0.00080938      0.00199314
    -0.00195764      0.00765075     -0.00697044
    -0.00057078     -0.00699304     -0.00359554
    -0.00040185     -0.00136696     -0.00317282
    -0.01154674     -0.02767022      0.02803021
    -0.00002865      0.00010194      0.00038178
     0.00690932     -0.00534119      0.00270588
    -0.00038984     -0.00044543      0.00004470
     0.00008063     -0.00004414      0.00007273
    -0.31967571      0.91573775      0.04600154
     0.01733522      0.05343479     -0.00703908
    -0.05761066     -0.03038532      0.01986594
     0.07423593     -0.01641661      0.06342804
     0.00662460     -0.04341085     -0.00023770
    -0.11968794     -0.00462729     -0.09274690
    -0.02035858     -0.00032717      0.06771004
     0.00137655     -0.00193906     -0.00207086
    -0.00445872     -0.00737897      0.01982805
vibration 81
    -0.00040313     -0.00089041      0.00283679
     0.00020094     -0.00113673      0.00023432
    -0.00018140      0.00000480      0.00000275
     0.00020720      0.00001940     -0.00052076
     0.00007110      0.00004646      0.00000004
     0.00002471      0.00001093     -0.00000509
    -0.00001416      0.00000547      0.00012125
     0.00015133      0.00017227      0.00002633
    -0.00039208      0.00124041      0.00033282
     0.00005872      0.00018720     -0.00005684
     0.00001431      0.00113040     -0.00068153
     0.00007293      0.00024711      0.00009286
     0.00016210      0.00013631     -0.00020626
     0.00353426     -0.01162564     -0.00118042
    -0.01829031     -0.00094825     -0.04093287
    -0.00509468     -0.07093331      0.03439020
    -0.00097207     -0.01007987     -0.00514430
    -0.00001967     -0.00006555     -0.00026420
    -0.00130778     -0.00369866      0.00445882
    -0.00019190      0.00030384     -0.00120505
     0.00621918     -0.00481133      0.00248940
    -0.00097002     -0.00099796     -0.00002133
     0.00033705     -0.00116035      0.00107082
    -0.04865153      0.13592188      0.00621907
    -0.00335180     -0.01079417      0.00225677
     0.44952095      0.23501793     -0.15738405
    -0.30166008      0.06053446     -0.24596365
    -0.08914934      0.55308144      0.00306587
     0.30297773      0.00639633      0.23058476
    -0.08463336      0.00425565      0.25639837
    -0.00004828      0.00091199      0.00121682
     0.00766188      0.01457936     -0.03230302
vibration 82
     0.00090896      0.00048592     -0.00178215
     0.00004903      0.00072973     -0.00049469
     0.00015196     -0.00017328     -0.00007838
    -0.00020148     -0.00018700     -0.00043348
    -0.00006522      0.00000909      0.00002629
    -0.00001616      0.00007774      0.00003676
     0.00000615      0.00001341      0.00014360
    -0.00007120     -0.00002513      0.00040350
     0.00237992     -0.00514531     -0.00017192
     0.00036190     -0.00042740      0.00138721
    -0.00172602     -0.00314960     -0.00048398
     0.00005933      0.00043877      0.00018338
     0.00001365     -0.00035528      0.00016343
    -0.00108511      0.00180462     -0.00056007
    -0.02120373     -0.00140626     -0.07249546
    -0.03587931      0.02975888     -0.02832273
     0.00376903      0.03660791      0.01885577
    -0.00136358     -0.00376384     -0.00866316
     0.00036065     -0.00074327      0.00166585
     0.00030106     -0.00064147     -0.00398418
    -0.03233995      0.02498616     -0.01265350
    -0.00060577     -0.00062243      0.00026032
    -0.00234936      0.00934386     -0.00815255
     0.00923692     -0.02368397      0.00095497
     0.01247795      0.03756445     -0.00369206
    -0.00901600      0.00567213     -0.00487282
     0.40113411     -0.10083966      0.34238624
     0.03330266     -0.26229125     -0.00378371
     0.43371139      0.00911836      0.32745835
    -0.17327326      0.01179319      0.54830294
     0.00078538     -0.00057050      0.00079252
    -0.00499315     -0.00952121      0.02289662
vibration 83
    -0.00010989     -0.00004028      0.00016390
     0.00008911     -0.00028280      0.00000733
     0.00017390      0.00007668     -0.00004357
    -0.00004611      0.00012625      0.00010423
    -0.00009397     -0.00003080      0.00002491
    -0.00004429     -0.00003768     -0.00000535
    -0.00005242      0.00029630     -0.00001582
    -0.00003297      0.00018352     -0.00005538
     0.03886855     -0.08572828     -0.00877164
    -0.00010890     -0.00239898      0.00280663
     0.00008562      0.00014623      0.00003322
    -0.00002512      0.00004096      0.00003640
    -0.00000619      0.00004852     -0.00004634
     0.00046950     -0.00122262     -0.00004404
     0.00116611      0.00007776      0.00387228
     0.00205477     -0.00274338      0.00206763
     0.06315730      0.62092393      0.31949326
    -0.00179137     -0.00517395     -0.01132760
    -0.00016759     -0.00058010      0.00038492
     0.00723707     -0.01606076     -0.00705443
    -0.53122776      0.40987863     -0.20831843
     0.00942345      0.00863900      0.00039819
    -0.00662143      0.02477207     -0.02215030
    -0.00527357      0.01452415      0.00061187
    -0.00050753     -0.00148677      0.00010322
     0.00606944      0.00255623     -0.00169453
    -0.02701028      0.00654495     -0.02293731
    -0.00338527      0.02394463      0.00032656
    -0.02345514     -0.00045062     -0.01770051
     0.00916510     -0.00067631     -0.02913648
     0.00025641     -0.00038210     -0.00053894
     0.00031694      0.00073019     -0.00185510
vibration 84
    -0.00001680      0.00008803     -0.00035957
     0.00000089      0.00000895     -0.00000334
     0.00014879      0.00007311      0.00015157
    -0.00005018     -0.00001414     -0.00018214
     0.00002826     -0.00003980      0.00038974
     0.00010238     -0.00006468      0.00010433
    -0.00002030      0.00001568      0.00006987
     0.00005123      0.00001299      0.00006964
     0.00144356     -0.00279327      0.00023703
    -0.02454849      0.01584780     -0.09018396
    -0.00017778     -0.00047114      0.00006172
    -0.00004564      0.00012553      0.00010679
    -0.00001063     -0.00003180      0.00001489
     0.00005218     -0.00016297     -0.00002035
    -0.00021540     -0.00001306     -0.00090521
    -0.00065217      0.00038526     -0.00044748
     0.00180607      0.01836521      0.00958213
     0.09323960      0.27080542      0.62230807
     0.00007036     -0.00001101     -0.00001378
     0.00014548     -0.00023416     -0.00496302
    -0.01915119      0.01465622     -0.00760664
     0.06800469      0.07178749     -0.01677850
     0.12792960     -0.53067941      0.46078949
    -0.00062191      0.00183469      0.00014456
     0.00172128      0.00556614     -0.00071431
     0.00067984      0.00055191     -0.00036489
     0.00664786     -0.00166274      0.00574729
     0.00040282     -0.00351337     -0.00003465
     0.00493957      0.00010587      0.00371755
    -0.00230657      0.00014446      0.00727006
     0.00066281     -0.00108645     -0.00108786
    -0.00011870     -0.00071891      0.00177635
vibration 85
    -0.00039879     -0.00083021      0.00221357
     0.00102504      0.00069664      0.00053047
     0.00010197     -0.00075012     -0.00016261
     0.00019027      0.00023214      0.00063419
    -0.00003041      0.00009016      0.00000821
     0.00014847      0.00034214      0.00009564
    -0.00002753     -0.00002335     -0.00009471
    -0.00006238     -0.00006549     -0.00038881
    -0.00011769     -0.00002015     -0.00047259
     0.00013826      0.00002219      0.00023170
    -0.01953277     -0.06208242      0.00808395
    -0.00105114      0.00356707      0.00228471
     0.00004556     -0.00006827     -0.00041752
    -0.00060004      0.00230104     -0.00045676
    -0.00698531      0.00023591     -0.02002384
     0.05377625      0.01187939      0.00927893
     0.00003558      0.00131569      0.00065692
    -0.00028499     -0.00070841     -0.00154092
    -0.00072591     -0.00118815      0.00240162
     0.00012692     -0.00042912      0.00454205
     0.00103291     -0.00087433      0.00037103
    -0.00122293     -0.00099468      0.00007229
    -0.00038968      0.00131432     -0.00115441
     0.00712435     -0.01933802     -0.00110279
     0.22705252      0.71875702     -0.09046924
    -0.37000588     -0.20860143      0.13947019
    -0.29477265      0.08355087     -0.25920165
     0.01540744     -0.02212750      0.00214082
     0.12699692      0.00142041      0.09522707
    -0.04538473      0.00188430      0.15238819
     0.01445634     -0.03352086     -0.03312909
     0.00348672      0.00771232     -0.02517606
vibration 86
    -0.00040162     -0.00142229      0.00360583
    -0.00057214      0.00007114     -0.00015840
    -0.00015340     -0.00062994     -0.00018655
    -0.00016827     -0.00013090     -0.00071723
     0.00007365      0.00010817      0.00000246
     0.00016151      0.00027728      0.00006255
    -0.00000590     -0.00000765      0.00009049
     0.00000651      0.00003241      0.00039699
     0.00020394      0.00013136      0.00047911
     0.00031832      0.00017451      0.00043585
    -0.01604866     -0.05212007      0.00716183
    -0.00078384      0.00262087      0.00180850
     0.00013114      0.00022428     -0.00039284
    -0.00071783      0.00378347      0.00065939
    -0.00018403      0.00095011      0.02970567
    -0.06112951     -0.01644603     -0.00843771
    -0.00027589     -0.00284788     -0.00140842
    -0.00053230     -0.00142533     -0.00330778
    -0.00133565     -0.00084465      0.00114784
    -0.00010923      0.00040786     -0.00394119
    -0.00162304      0.00121769     -0.00054104
    -0.00278033     -0.00265124      0.00006504
    -0.00044046      0.00186211     -0.00162166
     0.01203679     -0.03588610     -0.00176967
     0.19018982      0.60274062     -0.07615932
     0.44407142      0.24934549     -0.16627256
     0.31543086     -0.09073534      0.27768272
    -0.02030553      0.04421514     -0.00275764
    -0.09942327     -0.00326769     -0.07418863
     0.08963734     -0.00770097     -0.28926004
     0.01184597     -0.02821934     -0.02876237
     0.00653022      0.01494694     -0.04206867
vibration 87
     0.00001792     -0.00000790     -0.00001003
     0.00003163      0.00000573      0.00006094
    -0.00007704     -0.00001525      0.00000611
    -0.00112956     -0.00059069     -0.00043356
     0.00002331      0.00001760      0.00001337
     0.00001750      0.00001760      0.00000363
    -0.00000665      0.00002786      0.00038254
     0.00048387      0.00023786      0.00027877
    -0.02377233     -0.00177128     -0.09156586
     0.00179403      0.00314383     -0.00053070
     0.00000601      0.00004460     -0.00002437
    -0.00001862      0.00004172      0.00007223
     0.00006720      0.00012808     -0.00013866
    -0.00001879      0.00005715     -0.00001844
    -0.00005962     -0.00000503     -0.00009192
    -0.00070850     -0.00020422     -0.00013943
     0.01755957      0.29668510      0.12896694
    -0.00056523     -0.00155779     -0.00576143
    -0.00018217     -0.00104962      0.00155211
     0.03307468     -0.07894373      0.88193722
     0.23653969     -0.19509448      0.07334510
    -0.02403075     -0.02288332     -0.00044611
     0.00369870     -0.01270652      0.01214723
     0.00025706     -0.00070400     -0.00005717
    -0.00013110     -0.00047077      0.00013719
     0.00507998      0.00284613     -0.00187047
     0.00398710     -0.00121308      0.00369527
    -0.00040819      0.00094570     -0.00000710
     0.00104551      0.00005898      0.00076409
    -0.00022603     -0.00002629      0.00045500
     0.00026796     -0.00050174     -0.00065418
    -0.00000129     -0.00000419      0.00014219
vibration 88
    -0.00001392      0.00003090      0.00008906
    -0.00001237      0.00001354      0.00000000
     0.00063513     -0.00105250     -0.00038576
    -0.00015032     -0.00009337      0.00002624
     0.00015839      0.00031559      0.00004270
    -0.00017577      0.00050571      0.00011879
     0.00004406      0.00001808     -0.00002301
     0.00006550      0.00003560      0.00001590
    -0.00202476      0.00159107     -0.00328980
    -0.05034160     -0.08020127      0.00016180
    -0.00007383     -0.00022884      0.00003785
    -0.00003986      0.00009614      0.00010154
     0.00002215      0.00005179     -0.00007870
     0.00003103     -0.00008390     -0.00000380
     0.00000967      0.00000022      0.00001467
    -0.00017036     -0.00016019      0.00001827
    -0.00002287      0.00104186     -0.00023163
     0.02820539      0.08279836      0.24257904
    -0.00036137     -0.00071541      0.00089591
     0.00107700     -0.00245777      0.03121807
     0.02301765     -0.01759181      0.00823223
     0.64189090      0.61278639      0.00697190
    -0.07782484      0.25782561     -0.24998881
    -0.00041048      0.00111825      0.00003927
     0.00100815      0.00284234     -0.00033293
     0.00192363      0.00101988     -0.00071658
     0.00045717     -0.00022227      0.00049880
    -0.00026502      0.00126185      0.00003129
    -0.00014378      0.00004007     -0.00010355
     0.00003741     -0.00002249     -0.00014197
     0.00054800     -0.00105926     -0.00110691
     0.00008841      0.00042287     -0.00089899
vibration 89
     0.00006694      0.00004618      0.00040457
    -0.00008928      0.00013114     -0.00000146
     0.00007348     -0.00039964     -0.00022630
    -0.00000850     -0.00005925      0.00012412
    -0.00001210      0.00004629      0.00002384
     0.00001990      0.00016887      0.00012145
    -0.00008745      0.00001665     -0.00012849
    -0.00001551     -0.00000027     -0.00004587
     0.00007235     -0.00001043     -0.00018087
    -0.00012067     -0.00012893     -0.00011751
    -0.00188021     -0.00526986      0.00222946
     0.02284176     -0.05175155     -0.05680117
    -0.00939591     -0.01581891      0.02493521
     0.00054677     -0.00136132     -0.00013753
    -0.00044690      0.00048755      0.00040583
     0.00009026      0.00000776     -0.00000188
    -0.00004528      0.00021527      0.00014996
     0.00002804      0.00049758      0.00120467
     0.11505781      0.23075673     -0.29491561
     0.00008671     -0.00021356      0.00196589
    -0.00064518      0.00033452     -0.00019414
     0.00107934      0.00108707      0.00003996
    -0.00003727     -0.00009773      0.00005756
    -0.00595838      0.01518926      0.00133411
     0.01855727      0.05646354     -0.01093878
    -0.00050097     -0.00027102      0.00020886
    -0.00017347      0.00013114      0.00016323
     0.00006908     -0.00008789      0.00003481
     0.00153371     -0.00032698      0.00116963
     0.00113789     -0.00116548     -0.00315018
    -0.26858467      0.57544859      0.65716727
    -0.00000007      0.00098056     -0.00416338
vibration 90
    -0.00005079     -0.00013036      0.00039597
     0.00009367     -0.00006704      0.00023416
     0.00014698     -0.00010195     -0.00011769
     0.00021142      0.00018835     -0.00041649
    -0.00006215     -0.00000901      0.00003214
    -0.00002803      0.00005668      0.00005118
     0.00013397     -0.00002420      0.00036349
    -0.00002518     -0.00003035      0.00011406
    -0.00008729     -0.00007967      0.00018574
     0.00002332      0.00002374     -0.00007763
    -0.00060456     -0.00187934      0.00178068
     0.00997217     -0.02919159     -0.02445613
     0.02248597      0.05442386     -0.06057018
    -0.00128545      0.00351336      0.00229707
    -0.00090976     -0.00016607      0.00084070
     0.00009060      0.00003536      0.00002978
     0.00016798      0.00057649      0.00021606
     0.00000210      0.00032048      0.00055071
    -0.26655820     -0.54644820      0.68660746
    -0.00010934      0.00006006     -0.00193550
     0.00047268     -0.00018112     -0.00000185
    -0.00040389     -0.00029412     -0.00002116
     0.00004664     -0.00028825      0.00031243
     0.01205027     -0.03415357     -0.00650844
     0.00557781      0.01811923     -0.00542531
    -0.00065640     -0.00037920      0.00040096
    -0.00122233      0.00038958     -0.00150163
     0.00016517     -0.00023799      0.00006334
     0.00272175      0.00019299      0.00197125
     0.00169818      0.00024646     -0.00490701
    -0.11296568      0.24499937      0.27497529
     0.00048738      0.00084015     -0.00265633
[INT]
    2.854705
    2.213164
    0.124023
    0.225092
    2.863439
    1.350331
    0.095656
    0.199682
    0.794151
    2.155115
    0.748800
    4.869562
    1.802653
    4.360655
    8.868037
    2.869585
   10.734557
    0.048926
    5.190925
    8.363404
    1.271454
    7.884796
    1.761898
    3.652167
   49.628701
    5.829977
    1.211281
    1.435480
   16.721377
    2.853576
    7.839653
   16.491156
   22.087603
    3.085653
    1.481510
    0.449197
    4.458671
    0.486633
    2.459255
    8.258923
   36.443611
   30.134591
   16.736762
    2.309008
   10.094345
   40.068741
    2.073075
    1.447305
    1.517523
   15.218472
    6.397597
   14.728236
    6.045521
  171.794853
  252.669116
   81.121885
   73.994080
    7.709740
   27.517723
   10.177763
    3.063643
   14.123584
    4.622628
   21.666106
    9.168792
    3.910295
    5.844630
   11.535795
    7.857805
    5.776431
   12.093180
    2.007511
  232.492823
  294.194216
   17.373774
   30.988777
    8.600109
   39.532016
   32.282088
   30.478599
   23.225167
   30.190044
   23.412608
   15.623756
    4.372840
   27.364762
   14.189450
   11.634056
    3.848567
    9.405147

======= END OF MOLDEN-FORMATTED INPUT FILE =======


        *************************************************************
        *                                                           *
        *  Thank you very much for using Q-Chem.  Have a nice day.  *
        *                                                           *
        *************************************************************


