r0216.ten.osc.edu 10.25.156
Q-Chem Developer Version! Running on 10.25.156.*
                  Welcome to Q-Chem
     A Quantum Leap Into The Future Of Chemistry


 Q-Chem 5.0, Q-Chem, Inc., Pleasanton, CA (2017)

 Yihan Shao,  Zhengting Gan,  E. Epifanovsky,  A. T. B. Gilbert,  M. Wormit,  
 J. Kussmann,  A. W. Lange,  A. Behn,  Jia Deng,  Xintian Feng,  D. Ghosh,  
 M. Goldey,  P. R. Horn,  L. D. Jacobson,  I. Kaliman,  T. Kus,  A. Landau,  
 Jie Liu,  E. I. Proynov,  R. M. Richard,  R. P. Steele,  E. J. Sundstrom,  
 H. L. Woodcock III,  P. M. Zimmerman,  D. Zuev,  B. Albrecht,  E. Alguire,  
 S. A. Baeppler,  Z. Benda,  Y. A. Bernard,  E. J. Berquist,  K. B. Bravaya,  
 D. Casanova,  Chun-Min Chang,  Yunqing Chen,  A. Chien,  K. D. Closser,  
 M. P. Coons,  S. Dasgupta,  M. Diedenhofen,  Hainam Do,  R. G. Edgar,  
 Po-Tung Fang,  S. Fatehi,  Qingguo Feng,  Qinghui Ge,  A. Ghysels,  
 J. Gomes,  J. Gonthier,  A. Gunina,  M. W. D. Hanson-Heine,  
 P. H. P. Harbach,  A. W. Hauser,  J. E. Herr,  E. G. Hohenstein,  
 Z. C. Holden,  Kerwin Hui,  T.-C. Jagau,  Hyunjun Ji,  B. Kaduk,  
 K. Khistyaev,  Jaehoon Kim,  P. Klunzinger,  K. Koh,  D. Kosenkov,  
 T. Kowalczyk,  C. M. Krauter,  A. Kunitsa,  Ka Un Lao,  A. Laurent,  
 K. V. Lawler,  Joonho Lee,  D. Lefrancois,  S. Lehtola,  D. S. Levine,  
 Yi-Pei Li,  You-Sheng Lin,  Fenglai Liu,  E. Livshits,  A. Luenser,  
 P. Manohar,  E. Mansoor,  S. F. Manzer,  Shan-Ping Mao,  Yuezhi Mao,  
 N. Mardirossian,  A. V. Marenich,  L. A. Martinez-Martinez,  S. A. Maurer,  
 N. J. Mayhall,  S. C. McKenzie,  J.-M. Mewes,  A. F. Morrison,  K. Nanda,  
 T. S. Nguyen-Beck,  R. Olivares-Amaya,  J. A. Parkhill,  T. M. Perrine,  
 F. Plasser,  S. Prager,  A. Prociuk,  D. R. Rehn,  F. Rob,  M. Schneider,  
 N. Sergueev,  S. M. Sharada,  S. Sharma,  D. W. Small,  T. Stauch,  
 T. Stein,  Yu-Chuan Su,  A. J. W. Thom,  T. Tsuchimochi,  L. Vogt,  
 O. Vydrov,  M. A. Watson,  J. Wenzel,  M. de Wergifosse,  T. A. Wesolowski,  
 A. White,  J. Witte,  A. Yamada,  Jun Yang,  K. Yao,  S. Yeganeh,  
 S. R. Yost,  Zhi-Qiang You,  A. Zech,  Igor Ying Zhang,  Xing Zhang,  
 Yan Zhao,  Ying Zhu,  B. R. Brooks,  G. K. L. Chan,  C. J. Cramer,  
 M. S. Gordon,  W. J. Hehre,  A. Klamt,  M. W. Schmidt,  C. D. Sherrill,  
 D. G. Truhlar,  A. Aspuru-Guzik,  R. Baer,  A. T. Bell,  N. A. Besley,  
 Jeng-Da Chai,  A. Dreuw,  B. D. Dunietz,  T. R. Furlani,  Chao-Ping Hsu,  
 Yousung Jung,  Jing Kong,  D. S. Lambrecht,  WanZhen Liang,  C. Ochsenfeld,  
 V. A. Rassolov,  L. V. Slipchenko,  J. E. Subotnik,  T. Van Voorhis,  
 J. M. Herbert,  A. I. Krylov,  P. M. W. Gill,  M. Head-Gordon

 Contributors to earlier versions of Q-Chem not listed above: 
 R. D. Adamson,  B. Austin,  J. Baker,  G. J. O. Beran,  K. Brandhorst,  
 S. T. Brown,  E. F. C. Byrd,  A. K. Chakraborty,  C.-L. Cheng,  
 Siu Hung Chien,  D. M. Chipman,  D. L. Crittenden,  H. Dachsel,  
 R. A. DiStasio Jr.,  R. J. Doerksen,  A. D. Dutoi,  L. Fusti-Molnar,  
 W. A. Goddard III,  A. Golubeva-Zadorozhnaya,  S. R. Gwaltney,  G. Hawkins,  
 A. Heyden,  S. Hirata,  G. Kedziora,  F. J. Keil,  C. Kelley,  Jihan Kim,  
 R. A. King,  R. Z. Khaliullin,  P. P. Korambath,  W. Kurlancheek,  
 A. M. Lee,  M. S. Lee,  S. V. Levchenko,  Ching Yeh Lin,  D. Liotard,  
 R. C. Lochan,  I. Lotan,  P. E. Maslen,  N. Nair,  D. P. O'Neill,  
 D. Neuhauser,  E. Neuscamman,  C. M. Oana,  R. Olson,  B. Peters,  
 R. Peverati,  P. A. Pieniazek,  Y. M. Rhee,  J. Ritchie,  M. A. Rohrdanz,  
 E. Rosta,  N. J. Russ,  H. F. Schaefer III,  N. E. Schultz,  N. Shenvi,  
 A. C. Simmonett,  A. Sodt,  D. Stuck,  K. S. Thanthiriwatte,  V. Vanovschi,  
 Tao Wang,  A. Warshel,  C. F. Williams,  Q. Wu,  X. Xu,  W. Zhang

 Please cite Q-Chem as follows:
 Y. Shao et al., Mol. Phys. 113, 184-215 (2015)
 DOI: 10.1080/00268976.2014.952696

 Q-Chem 5.0.1 for Intel X86 EM64T Linux

 Parts of Q-Chem use Armadillo 5.200.1 (Boston Tea Smuggler).
 http://arma.sourceforge.net/

 Q-Chem begins on Tue Oct 24 04:31:03 2017  

Host: r0216.ten.osc.edu
0

     Scratch files written to /tmp/pbstmp.1324358/04//
Processing $rem in /users/PAS0291/osu6415/.qchemrc.
molden_format             true

Checking the input file for inconsistencies... 	...done.

--------------------------------------------------------------
User input:
--------------------------------------------------------------
$molecule
0 1
C 0.78385536 -0.79753553 0.77562905
C -0.75115409 -0.41925858 0.72670350
C 1.77643494 0.34181697 0.65320788
C -1.05115691 0.92642841 0.06902976
O 2.30656840 0.44900735 -0.57922816
O 2.09264136 1.04419647 1.58350200
O -2.37284625 1.01860198 -0.20959832
O -0.27219366 1.81526807 -0.16632114
C -2.80650082 2.23987855 -0.83371594
C 3.14134076 1.59913371 -0.80000030
C 0.88910883 -1.99661735 -0.22905690
C 0.48339795 -1.51808085 -1.61380520
C -0.83451477 -1.29608334 -1.59542594
C -1.32622563 -1.58938050 -0.18490821
C -0.39096492 -2.76001155 0.18414110
C -1.37381306 -0.40633104 2.13478346
H -2.57762775 3.09719413 -0.19923836
H 4.00428336 1.58348733 -0.13263498
H -1.44002758 -0.86274074 -2.38028991
H -3.88158930 2.13315797 -0.96205584
H -2.31592413 2.36739994 -1.80028496
H 3.45777111 1.53394419 -1.83910196
H 2.56342309 2.50825534 -0.62841459
H -2.39808401 -1.73197120 -0.06200245
H 1.83594180 -2.53109040 -0.16329753
H -1.23733614 -1.37536162 2.61981663
H -0.89543598 0.35267202 2.75888671
H -2.44342075 -0.19577352 2.08254756
H -0.57602460 -3.64206879 -0.43164557
H -0.41471164 -3.04192589 1.23989605
H 1.17423583 -1.30561435 -2.41643491
H 0.97162341 -1.18982665 1.77748587
$end

$rem
sym_ignore      true
jobtype         opt
method          b3lyp
basis           6-311++G(d,p)
dft_d           d3_op
mem_total       62000
MEM_STATIC      4000
ao2mo_disk      350000
max_scf_cycles  200
geom_opt_max_cycles 1000
geom_opt_tol_displacement 1
GEOM_OPT_TOL_GRADIENT       1
GEOM_OPT_TOL_ENERGY         1
$end

--------------------------------------------------------------
 Adding empirical dispersion correction 
 ----------------------------------------------------------------
 Doing -D3(op) with
 s6 =   1.00000
 s8 =   0.78311
 a1 =   0.30000
 a2 =   4.25000
 n  =  10.00000
 -D3 energy without 3body term =     -0.0399433440 hartrees
 ----------------------------------------------------------------
             Standard Nuclear Orientation (Angstroms)
    I     Atom           X                Y                Z
 ----------------------------------------------------------------
    1      C       0.7838553600    -0.7975355300     0.7756290500
    2      C      -0.7511540900    -0.4192585800     0.7267035000
    3      C       1.7764349400     0.3418169700     0.6532078800
    4      C      -1.0511569100     0.9264284100     0.0690297600
    5      O       2.3065684000     0.4490073500    -0.5792281600
    6      O       2.0926413600     1.0441964700     1.5835020000
    7      O      -2.3728462500     1.0186019800    -0.2095983200
    8      O      -0.2721936600     1.8152680700    -0.1663211400
    9      C      -2.8065008200     2.2398785500    -0.8337159400
   10      C       3.1413407600     1.5991337100    -0.8000003000
   11      C       0.8891088300    -1.9966173500    -0.2290569000
   12      C       0.4833979500    -1.5180808500    -1.6138052000
   13      C      -0.8345147700    -1.2960833400    -1.5954259400
   14      C      -1.3262256300    -1.5893805000    -0.1849082100
   15      C      -0.3909649200    -2.7600115500     0.1841411000
   16      C      -1.3738130600    -0.4063310400     2.1347834600
   17      H      -2.5776277500     3.0971941300    -0.1992383600
   18      H       4.0042833600     1.5834873300    -0.1326349800
   19      H      -1.4400275800    -0.8627407400    -2.3802899100
   20      H      -3.8815893000     2.1331579700    -0.9620558400
   21      H      -2.3159241300     2.3673999400    -1.8002849600
   22      H       3.4577711100     1.5339441900    -1.8391019600
   23      H       2.5634230900     2.5082553400    -0.6284145900
   24      H      -2.3980840100    -1.7319712000    -0.0620024500
   25      H       1.8359418000    -2.5310904000    -0.1632975300
   26      H      -1.2373361400    -1.3753616200     2.6198166300
   27      H      -0.8954359800     0.3526720200     2.7588867100
   28      H      -2.4434207500    -0.1957735200     2.0825475600
   29      H      -0.5760246000    -3.6420687900    -0.4316455700
   30      H      -0.4147116400    -3.0419258900     1.2398960500
   31      H       1.1742358300    -1.3056143500    -2.4164349100
   32      H       0.9716234100    -1.1898266500     1.7774858700
 ----------------------------------------------------------------
 Nuclear Repulsion Energy =  1229.3844180334 hartrees
 There are       60 alpha and       60 beta electrons
 Requested basis set is 6-311++G(d,p)
 There are 176 shells and 464 basis functions

 Total QAlloc Memory Limit  62000 MB
 Mega-Array Size      3911 MB
 MEM_STATIC part      4000 MB
 A cutoff of  1.0D-11 yielded  12936 shell pairs
 There are     92110 function pairs (     98360 Cartesian)
 
 -------------------------------------------------------
 OpenMP Integral Computing Module                       
 Release: version 1.0, May 2013, Q-Chem Inc. Pittsburgh 
 -------------------------------------------------------
 Integral Job Info:
 Integral job number is                      11
 Integral operator is                         1
 short-range coefficients                     0
 long-range coefficients              100000000
 Omega coefficients                           0
 if combine SR and LR in K                    0
 Integral screening is                        0
 Integral computing path is                   2
 max size of driver memory is            800000
 size of driver memory is                593474
 size of scratch memory is              2361544
 max col of scratch BK array               1296
 max len of scratch array in speh3          155
 max len of scratch index in speh4           18
 max int batch size is                      520
 min int batch size is                       52
 fixed nKL is                                52
 max L of basis functions is                  2
 order of int derivative is                   0
 number of shells is                        176
 number of basis is                         480
 number of cartesian basis is               480
 number of contracted shell pairs         12936
 number of primitive shell pairs          28846
 maxK2 (contraction) of shell pair           36
 max number of K2 of shell pair               1
 max number of CS2 of shell pair           2388
 max number of PS2 of shell pair           4116
 mem total for path MDJ                  164312
 -------------------------------------------------------
 Smallest overlap matrix eigenvalue = 7.68E-07

 Q-Chem warning in module /fs/scratch/osu6415/qchem-kaunlao-vdw/stvman/mkSTV.C, line 281:

 Overlap eigenvalue is smaller than square root of threshold

 Linear dependence detected in AO basis
 Number of orthogonalized atomic orbitals = 463
 Maximum deviation from orthogonality = 1.852E-10

 Scale SEOQF with 1.000000e-01/1.000000e-01/1.000000e-01

 Standard Electronic Orientation quadrupole field applied
 Nucleus-field energy     =     0.0000000182 hartrees
 Guess from superposition of atomic densities
 Warning:  Energy on first SCF cycle will be non-variational
 A restricted hybrid HF-DFT SCF calculation will be
 performed using Pulay DIIS extrapolation
 Exchange:     0.2000 Hartree-Fock + 0.0800 Slater + 0.7200 B88
 Correlation:  0.1900 VWN1RPA + 0.8100 LYP
 Using SG-1 standard quadrature grid
 Dispersion:   Grimme D3
 SCF converges when DIIS error is below 1.0E-08
 using 20 threads for integral computing
 -------------------------------------------------------
 OpenMP Integral computing Module                
 Release: version 1.0, May 2013, Q-Chem Inc. Pittsburgh 
 -------------------------------------------------------
 -------------------------------------------------------
 OpenMP BLAS3 based DFT computing Module                
 Release: version 1.0, May 2013, Q-Chem Inc. Pittsburgh 
 -------------------------------------------------------
 ---------------------------------------
  Cycle       Energy         DIIS Error
 ---------------------------------------
    1    -771.3936394883      2.95E-02
    2    -767.7054716334      3.80E-03
    3    -767.2429497954      6.16E-03
    4    -767.9999538965      1.33E-03
    5    -768.0351368256      3.93E-04
    6    -768.0379069516      1.30E-04
    7    -768.0382370445      3.48E-05
    8    -768.0382597135      1.11E-05
    9    -768.0382623017      2.80E-06
   10    -768.0382624212      1.57E-06
   11    -768.0382624666      4.52E-07
   12    -768.0382624711      1.07E-07
   13    -768.0382624713      3.99E-08
   14    -768.0382624710      1.73E-08
   15    -768.0382624724      4.13E-09 Convergence criterion met
 ---------------------------------------
 SCF time:  CPU 1031.28 s  wall 66.79 s
 SCF   energy in the final basis set = -768.03826247
 Total energy in the final basis set = -768.03826247
 
 --------------------------------------------------------------
 
                    Orbital Energies (a.u.)
 --------------------------------------------------------------
 
 Alpha MOs
 -- Occupied --
-19.174 -19.161 -19.119 -19.100 -10.306 -10.294 -10.231 -10.216
-10.214 -10.196 -10.191 -10.190 -10.177 -10.173 -10.172 -10.170
 -1.117  -1.101  -1.030  -1.013  -0.901  -0.801  -0.768  -0.736
 -0.720  -0.707  -0.682  -0.626  -0.584  -0.570  -0.562  -0.535
 -0.534  -0.517  -0.495  -0.488  -0.476  -0.474  -0.460  -0.453
 -0.433  -0.427  -0.421  -0.409  -0.401  -0.391  -0.386  -0.385
 -0.376  -0.363  -0.358  -0.353  -0.348  -0.336  -0.320  -0.317
 -0.299  -0.283  -0.270  -0.251
 -- Virtual --
 -0.014  -0.010  -0.000   0.002   0.003   0.007   0.011   0.015
  0.023   0.025   0.028   0.033   0.045   0.046   0.049   0.055
  0.057   0.060   0.064   0.072   0.078   0.088   0.093   0.096
  0.098   0.103   0.107   0.109   0.111   0.116   0.116   0.119
  0.123   0.125   0.128   0.131   0.132   0.136   0.141   0.142
  0.144   0.145   0.149   0.153   0.155   0.158   0.160   0.167
  0.168   0.170   0.171   0.176   0.178   0.180   0.182   0.189
  0.196   0.200   0.202   0.205   0.207   0.215   0.219   0.222
  0.227   0.232   0.237   0.241   0.244   0.248   0.252   0.256
  0.261   0.265   0.271   0.276   0.281   0.284   0.292   0.294
  0.300   0.303   0.309   0.315   0.318   0.320   0.329   0.335
  0.337   0.342   0.342   0.346   0.348   0.352   0.360   0.362
  0.368   0.376   0.376   0.378   0.386   0.392   0.399   0.403
  0.409   0.415   0.423   0.427   0.439   0.447   0.460   0.471
  0.483   0.495   0.497   0.503   0.512   0.520   0.529   0.539
  0.550   0.565   0.574   0.579   0.588   0.597   0.607   0.611
  0.622   0.632   0.635   0.644   0.648   0.654   0.663   0.666
  0.674   0.677   0.682   0.688   0.700   0.705   0.708   0.720
  0.721   0.727   0.732   0.733   0.736   0.742   0.756   0.765
  0.767   0.772   0.785   0.792   0.800   0.802   0.809   0.820
  0.831   0.846   0.859   0.862   0.887   0.905   0.911   0.950
  0.972   0.989   1.007   1.008   1.028   1.033   1.043   1.064
  1.075   1.084   1.102   1.114   1.134   1.150   1.180   1.192
  1.199   1.216   1.221   1.241   1.252   1.259   1.268   1.279
  1.292   1.311   1.319   1.343   1.353   1.363   1.384   1.398
  1.414   1.424   1.436   1.443   1.446   1.461   1.481   1.485
  1.492   1.500   1.514   1.520   1.543   1.549   1.556   1.564
  1.581   1.586   1.591   1.600   1.607   1.620   1.642   1.643
  1.660   1.666   1.673   1.684   1.695   1.705   1.717   1.722
  1.729   1.743   1.747   1.755   1.771   1.778   1.789   1.800
  1.805   1.820   1.830   1.847   1.854   1.864   1.866   1.873
  1.909   1.911   1.917   1.934   1.941   1.956   1.969   1.975
  1.984   1.993   2.010   2.030   2.037   2.055   2.063   2.076
  2.103   2.124   2.138   2.152   2.160   2.177   2.193   2.209
  2.217   2.223   2.241   2.249   2.265   2.297   2.337   2.358
  2.366   2.398   2.429   2.451   2.464   2.473   2.481   2.497
  2.504   2.517   2.524   2.531   2.547   2.561   2.568   2.570
  2.591   2.614   2.615   2.638   2.666   2.667   2.672   2.693
  2.720   2.732   2.751   2.762   2.776   2.780   2.815   2.835
  2.842   2.853   2.864   2.873   2.887   2.911   2.929   2.943
  2.967   2.976   2.985   3.005   3.029   3.039   3.050   3.056
  3.068   3.094   3.101   3.114   3.132   3.141   3.178   3.182
  3.201   3.232   3.238   3.260   3.269   3.301   3.324   3.331
  3.399   3.402   3.424   3.472   3.528   3.607   3.611   3.625
  3.733   3.770   3.775   3.787   3.800   3.819   3.824   3.851
  3.865   3.957   4.061   4.064   4.082   4.114   4.127   4.157
  4.163   4.185   4.235   4.266   4.300   4.356   4.440   5.065
  5.077   5.138   5.145   5.267   5.327   5.411   5.449   5.631
  5.657   5.894   5.917  23.791  23.841  23.849  23.878  23.901
 23.918  23.931  23.947  23.987  24.015  24.042  24.316  49.928
 49.941  50.042  50.054
 --------------------------------------------------------------
 
          Ground-State Mulliken Net Atomic Charges

     Atom                 Charge (a.u.)
  ----------------------------------------
      1 C                     0.207160
      2 C                     0.247371
      3 C                    -0.698843
      4 C                    -0.584506
      5 O                     0.008612
      6 O                    -0.187292
      7 O                    -0.006649
      8 O                    -0.186978
      9 C                    -0.200444
     10 C                    -0.201448
     11 C                     0.204761
     12 C                    -0.329599
     13 C                    -0.507376
     14 C                     0.475978
     15 C                    -0.758624
     16 C                    -0.384818
     17 H                     0.176224
     18 H                     0.162340
     19 H                     0.142767
     20 H                     0.153336
     21 H                     0.175991
     22 H                     0.142894
     23 H                     0.193644
     24 H                     0.268964
     25 H                     0.268133
     26 H                     0.144813
     27 H                     0.188847
     28 H                     0.161403
     29 H                     0.187123
     30 H                     0.111396
     31 H                     0.157913
     32 H                     0.266905
  ----------------------------------------
  Sum of atomic charges =    -0.000000

 -----------------------------------------------------------------
                    Cartesian Multipole Moments
 -----------------------------------------------------------------
    Charge (ESU x 10^10)
                -0.0000
    Dipole Moment (Debye)
         X      -1.9701      Y      -1.1737      Z      -1.6224
       Tot       2.8091
    Quadrupole Moments (Debye-Ang)
        XX     -88.2924     XY      -5.1208     YY     -93.6209
        XZ      -4.6636     YZ      -7.3150     ZZ     -96.4529
    Octopole Moments (Debye-Ang^2)
       XXX       2.7519    XXY      27.8123    XYY      -7.0506
       YYY      29.7865    XXZ     -23.1868    XYZ      -5.3848
       YYZ      -2.1647    XZZ      -9.8680    YZZ       6.8968
       ZZZ     -10.5121
    Hexadecapole Moments (Debye-Ang^3)
      XXXX   -1724.7960   XXXY     -29.6548   XXYY    -488.7913
      XYYY     -42.7248   YYYY   -1429.9458   XXXZ     -17.8528
      XXYZ     -38.7009   XYYZ      -7.3951   YYYZ     -14.6399
      XXZZ    -442.7802   XYZZ     -23.9742   YYZZ    -381.9185
      XZZZ     -26.0307   YZZZ     -16.4730   ZZZZ    -790.4805
 -----------------------------------------------------------------
 Calculating analytic gradient of the SCF energy
 Gradient of SCF Energy
            1           2           3           4           5           6
    1  -0.0002269  -0.0001194   0.0008194   0.0001398  -0.0000051  -0.0005979
    2  -0.0001055   0.0001519  -0.0005723  -0.0002857  -0.0000290   0.0005077
    3  -0.0011888   0.0011387   0.0005133  -0.0007719  -0.0000333  -0.0001603
            7           8           9          10          11          12
    1  -0.0000126  -0.0000959  -0.0000760   0.0000067   0.0000007  -0.0000277
    2  -0.0000603   0.0001967  -0.0000052   0.0000350   0.0000730  -0.0000197
    3   0.0000276   0.0004227  -0.0000258  -0.0000504  -0.0000090  -0.0000099
           13          14          15          16          17          18
    1   0.0000361   0.0000484   0.0000312  -0.0000063  -0.0000147  -0.0000174
    2  -0.0000706   0.0000668  -0.0000078   0.0000970  -0.0000181   0.0000435
    3  -0.0000633   0.0000673   0.0000019   0.0000265  -0.0000066   0.0000026
           19          20          21          22          23          24
    1  -0.0000045  -0.0000105  -0.0000066  -0.0000283  -0.0000163   0.0000145
    2   0.0000174  -0.0000435  -0.0000130   0.0000236   0.0000294  -0.0000490
    3   0.0000331   0.0000025   0.0000028  -0.0000030   0.0000090   0.0000130
           25          26          27          28          29          30
    1   0.0000038   0.0000180   0.0000136   0.0000063   0.0000287   0.0000369
    2  -0.0000108  -0.0000127  -0.0000116  -0.0000298  -0.0000010   0.0000271
    3   0.0000182   0.0000074  -0.0000097  -0.0000040  -0.0000064   0.0000131
           31          32
    1   0.0000237   0.0000384
    2   0.0000348   0.0000417
    3   0.0000238   0.0000189
 Max gradient component =       1.189E-03
 RMS gradient           =       2.440E-04
 Gradient time:  CPU 330.10 s  wall 26.27 s
 Geometry Optimization Parameters
   NAtoms,    NIC,     NZ,  NCons,   NDum,   NFix, NCnnct, MaxDiis
       32     251       0       0       0       0       0       0


** GEOMETRY OPTIMIZATION IN DELOCALIZED INTERNAL COORDINATES **
   Searching for a Minimum

   Optimization Cycle:   1

                       Coordinates (Angstroms)
     ATOM                X               Y               Z
      1  C         0.7838553600   -0.7975355300    0.7756290500
      2  C        -0.7511540900   -0.4192585800    0.7267035000
      3  C         1.7764349400    0.3418169700    0.6532078800
      4  C        -1.0511569100    0.9264284100    0.0690297600
      5  O         2.3065684000    0.4490073500   -0.5792281600
      6  O         2.0926413600    1.0441964700    1.5835020000
      7  O        -2.3728462500    1.0186019800   -0.2095983200
      8  O        -0.2721936600    1.8152680700   -0.1663211400
      9  C        -2.8065008200    2.2398785500   -0.8337159400
     10  C         3.1413407600    1.5991337100   -0.8000003000
     11  C         0.8891088300   -1.9966173500   -0.2290569000
     12  C         0.4833979500   -1.5180808500   -1.6138052000
     13  C        -0.8345147700   -1.2960833400   -1.5954259400
     14  C        -1.3262256300   -1.5893805000   -0.1849082100
     15  C        -0.3909649200   -2.7600115500    0.1841411000
     16  C        -1.3738130600   -0.4063310400    2.1347834600
     17  H        -2.5776277500    3.0971941300   -0.1992383600
     18  H         4.0042833600    1.5834873300   -0.1326349800
     19  H        -1.4400275800   -0.8627407400   -2.3802899100
     20  H        -3.8815893000    2.1331579700   -0.9620558400
     21  H        -2.3159241300    2.3673999400   -1.8002849600
     22  H         3.4577711100    1.5339441900   -1.8391019600
     23  H         2.5634230900    2.5082553400   -0.6284145900
     24  H        -2.3980840100   -1.7319712000   -0.0620024500
     25  H         1.8359418000   -2.5310904000   -0.1632975300
     26  H        -1.2373361400   -1.3753616200    2.6198166300
     27  H        -0.8954359800    0.3526720200    2.7588867100
     28  H        -2.4434207500   -0.1957735200    2.0825475600
     29  H        -0.5760246000   -3.6420687900   -0.4316455700
     30  H        -0.4147116400   -3.0419258900    1.2398960500
     31  H         1.1742358300   -1.3056143500   -2.4164349100
     32  H         0.9716234100   -1.1898266500    1.7774858700
   Point Group: c1    Number of degrees of freedom:    90


   Energy is   -768.038262472


 Attempting to Generate Delocalized Internal Coordinates

 90 Hessian modes will be used to form the next step
  Hessian Eigenvalues:
     0.003932    0.004143    0.005534    0.007059    0.009268    0.010561
     0.010594    0.011115    0.012874    0.016612    0.016952    0.019897
     0.021746    0.022803    0.025110    0.032486    0.039617    0.042023
     0.046183    0.046911    0.047236    0.052707    0.053398    0.054005
     0.055854    0.056591    0.057178    0.067004    0.068517    0.075610
     0.091235    0.096449    0.101204    0.101713    0.105996    0.106229
     0.113040    0.121083    0.145029    0.156673    0.158738    0.160000
     0.160000    0.160000    0.160000    0.160000    0.160000    0.160000
     0.160000    0.160000    0.168325    0.213760    0.226739    0.240609
     0.249831    0.249961    0.250000    0.250000    0.250000    0.250000
     0.252350    0.254421    0.272241    0.285489    0.296508    0.298686
     0.307529    0.344678    0.344794    0.345595    0.345614    0.346350
     0.346498    0.346529    0.346968    0.347156    0.347157    0.348988
     0.350140    0.350252    0.350485    0.357693    0.359824    0.398009
     0.398354    0.513978    0.542040    0.559043    1.010015    1.023130

 Minimum Search - Taking Simple RFO Step
 Searching for Lamda that Minimizes Along All modes
 Value Taken    Lamda =  -0.00011518
 Step Taken.  Stepsize is  0.121557

                             Maximum     Tolerance    Cnvgd?
         Gradient           0.000554      0.000001      NO
         Displacement       0.061984      0.000001      NO
         Energy change     *********      0.000000      NO


 New Cartesian Coordinates Obtained by Inverse Iteration

 Displacement from previous Coordinates is:  0.169844
 Adding empirical dispersion correction 
 ----------------------------------------------------------------
 Doing -D3(op) with
 s6 =   1.00000
 s8 =   0.78311
 a1 =   0.30000
 a2 =   4.25000
 n  =  10.00000
 -D3 energy without 3body term =     -0.0399439362 hartrees
 ----------------------------------------------------------------
             Standard Nuclear Orientation (Angstroms)
    I     Atom           X                Y                Z
 ----------------------------------------------------------------
    1      C       0.7828817089    -0.7964243099     0.7803046091
    2      C      -0.7522491834    -0.4193964653     0.7258277932
    3      C       1.7741444957     0.3437136812     0.6552707555
    4      C      -1.0514418733     0.9265047527     0.0684451386
    5      O       2.2854821873     0.4632795543    -0.5839200933
    6      O       2.1280011924     1.0156328392     1.5944565614
    7      O      -2.3752500023     1.0254127402    -0.1974842410
    8      O      -0.2664567153     1.8015268202    -0.1967515941
    9      C      -2.8061083860     2.2417725203    -0.8329280414
   10      C       3.1331135534     1.6047742131    -0.8002301942
   11      C       0.8903857243    -1.9956690721    -0.2243787622
   12      C       0.4881517865    -1.5177021473    -1.6103758144
   13      C      -0.8299876598    -1.2968468005    -1.5958515582
   14      C      -1.3252068208    -1.5898403090    -0.1866241007
   15      C      -0.3904022299    -2.7598301479     0.1854758499
   16      C      -1.3778987974    -0.4069386977     2.1325739021
   17      H      -2.5634913522     3.1055286098    -0.2124609782
   18      H       4.0062598925     1.5664215573    -0.1472274322
   19      H      -1.4337638206    -0.8651813538    -2.3829797890
   20      H      -3.8833902999     2.1420590437    -0.9479563873
   21      H      -2.3254593321     2.3525079597    -1.8065202806
   22      H       3.4320781321     1.5514536944    -1.8451799935
   23      H       2.5710842311     2.5191563774    -0.6054354431
   24      H      -2.3973532828    -1.7324158775    -0.0662961639
   25      H       1.8373567576    -2.5296287444    -0.1564553954
   26      H      -1.2419780110    -1.3759126556     2.6178418900
   27      H      -0.9013567895     0.3523125892     2.7578004757
   28      H      -2.4474955579    -0.1968574388     2.0781039316
   29      H      -0.5731900729    -3.6421815678    -0.4305506343
   30      H      -0.4170138928    -3.0416087352     1.2412026359
   31      H       1.1808650331    -1.3059507241    -2.4115770912
   32      H       0.9707635947    -1.1889013755     1.7820488454
 ----------------------------------------------------------------
 Nuclear Repulsion Energy =  1229.4967440516 hartrees
 There are       60 alpha and       60 beta electrons
 Applying Cartesian multipole field
    Component          Value
    ---------          -----
     (2,0,0)        1.00000E-11
     (0,2,0)        2.00000E-11
     (0,0,2)       -3.00000E-11
 Nucleus-field energy     =     0.0000000182 hartrees
 Requested basis set is 6-311++G(d,p)
 There are 176 shells and 464 basis functions
 A cutoff of  1.0D-11 yielded  12929 shell pairs
 There are     92049 function pairs (     98291 Cartesian)
 Smallest overlap matrix eigenvalue = 7.68E-07

 Q-Chem warning in module /fs/scratch/osu6415/qchem-kaunlao-vdw/stvman/mkSTV.C, line 281:

 Overlap eigenvalue is smaller than square root of threshold

 Linear dependence detected in AO basis
 Number of orthogonalized atomic orbitals = 463
 Maximum deviation from orthogonality = 1.024E-10
 Guess MOs from SCF MO coefficient file
 Reading MOs from coefficient file
 Reading MOs from coefficient file
 A restricted hybrid HF-DFT SCF calculation will be
 performed using Pulay DIIS extrapolation
 Exchange:     0.2000 Hartree-Fock + 0.0800 Slater + 0.7200 B88
 Correlation:  0.1900 VWN1RPA + 0.8100 LYP
 Using SG-1 standard quadrature grid
 Dispersion:   Grimme D3
 SCF converges when DIIS error is below 1.0E-08
 Geometry optimization detected.  Setting ReadMinima to 0
 Setting SaveMinima to 0
 using 20 threads for integral computing
 -------------------------------------------------------
 OpenMP Integral computing Module                
 Release: version 1.0, May 2013, Q-Chem Inc. Pittsburgh 
 -------------------------------------------------------
 -------------------------------------------------------
 OpenMP BLAS3 based DFT computing Module                
 Release: version 1.0, May 2013, Q-Chem Inc. Pittsburgh 
 -------------------------------------------------------
 ---------------------------------------
  Cycle       Energy         DIIS Error
 ---------------------------------------
    1    -768.0353390541      4.47E-04
    2    -768.0381781011      2.78E-05
    3    -768.0381968776      2.99E-05
    4    -768.0382106701      1.57E-05
    5    -768.0382151695      3.92E-06
    6    -768.0382154614      1.61E-06
    7    -768.0382155150      6.18E-07
    8    -768.0382155222      1.99E-07
    9    -768.0382155231      6.44E-08
   10    -768.0382155242      2.40E-08
   11    -768.0382155224      8.16E-09 Convergence criterion met
 ---------------------------------------
 SCF time:  CPU 755.33 s  wall 49.63 s
 SCF   energy in the final basis set = -768.03821552
 Total energy in the final basis set = -768.03821552
 
 --------------------------------------------------------------
 
                    Orbital Energies (a.u.)
 --------------------------------------------------------------
 
 Alpha MOs
 -- Occupied --
-19.175 -19.160 -19.119 -19.100 -10.306 -10.294 -10.231 -10.216
-10.214 -10.196 -10.192 -10.190 -10.177 -10.173 -10.172 -10.170
 -1.117  -1.101  -1.030  -1.013  -0.901  -0.802  -0.767  -0.736
 -0.720  -0.707  -0.682  -0.626  -0.585  -0.570  -0.562  -0.535
 -0.534  -0.517  -0.495  -0.488  -0.475  -0.474  -0.460  -0.453
 -0.433  -0.427  -0.421  -0.409  -0.401  -0.391  -0.386  -0.386
 -0.376  -0.363  -0.359  -0.352  -0.348  -0.336  -0.320  -0.318
 -0.299  -0.283  -0.270  -0.251
 -- Virtual --
 -0.014  -0.010  -0.000   0.001   0.003   0.008   0.011   0.015
  0.023   0.025   0.028   0.033   0.045   0.046   0.049   0.055
  0.058   0.060   0.064   0.072   0.078   0.088   0.092   0.096
  0.098   0.103   0.107   0.108   0.112   0.115   0.116   0.119
  0.123   0.125   0.128   0.131   0.132   0.136   0.141   0.142
  0.144   0.145   0.149   0.153   0.155   0.158   0.160   0.167
  0.168   0.169   0.170   0.176   0.178   0.180   0.183   0.189
  0.197   0.200   0.202   0.205   0.207   0.214   0.218   0.222
  0.227   0.232   0.237   0.240   0.244   0.248   0.251   0.256
  0.261   0.265   0.272   0.276   0.282   0.284   0.292   0.294
  0.300   0.303   0.309   0.315   0.318   0.320   0.329   0.335
  0.337   0.341   0.343   0.347   0.349   0.353   0.359   0.361
  0.369   0.376   0.376   0.379   0.386   0.391   0.398   0.403
  0.408   0.415   0.423   0.428   0.440   0.448   0.461   0.471
  0.483   0.495   0.498   0.504   0.511   0.520   0.530   0.540
  0.549   0.565   0.574   0.579   0.588   0.596   0.606   0.612
  0.621   0.632   0.635   0.644   0.648   0.654   0.663   0.666
  0.674   0.677   0.682   0.689   0.700   0.705   0.708   0.720
  0.722   0.726   0.731   0.733   0.736   0.742   0.757   0.765
  0.768   0.772   0.785   0.791   0.799   0.800   0.809   0.820
  0.832   0.846   0.860   0.863   0.888   0.904   0.912   0.949
  0.972   0.988   1.007   1.009   1.027   1.033   1.042   1.063
  1.075   1.085   1.105   1.114   1.132   1.153   1.179   1.192
  1.198   1.216   1.223   1.240   1.249   1.260   1.270   1.277
  1.291   1.310   1.320   1.342   1.353   1.363   1.386   1.399
  1.415   1.425   1.435   1.443   1.448   1.462   1.481   1.485
  1.493   1.499   1.515   1.519   1.542   1.548   1.556   1.565
  1.582   1.586   1.591   1.600   1.608   1.620   1.641   1.643
  1.660   1.666   1.675   1.684   1.696   1.707   1.717   1.721
  1.729   1.743   1.747   1.756   1.771   1.779   1.788   1.801
  1.803   1.820   1.831   1.845   1.856   1.864   1.865   1.874
  1.908   1.912   1.919   1.934   1.941   1.955   1.968   1.977
  1.983   1.993   2.010   2.030   2.039   2.054   2.061   2.076
  2.104   2.124   2.138   2.153   2.160   2.177   2.193   2.208
  2.217   2.223   2.240   2.249   2.267   2.297   2.337   2.358
  2.366   2.399   2.429   2.450   2.464   2.472   2.481   2.496
  2.504   2.516   2.524   2.531   2.548   2.560   2.568   2.569
  2.591   2.613   2.615   2.638   2.666   2.667   2.672   2.693
  2.720   2.732   2.752   2.762   2.776   2.780   2.816   2.835
  2.841   2.854   2.864   2.874   2.888   2.910   2.928   2.943
  2.966   2.976   2.987   3.004   3.029   3.039   3.050   3.056
  3.068   3.096   3.102   3.115   3.132   3.140   3.177   3.181
  3.203   3.232   3.236   3.261   3.270   3.301   3.324   3.331
  3.398   3.401   3.425   3.472   3.527   3.607   3.610   3.625
  3.732   3.769   3.775   3.785   3.800   3.819   3.824   3.851
  3.865   3.961   4.061   4.064   4.083   4.114   4.127   4.156
  4.163   4.184   4.235   4.264   4.301   4.356   4.439   5.064
  5.076   5.135   5.146   5.267   5.330   5.411   5.451   5.630
  5.657   5.894   5.916  23.791  23.840  23.849  23.878  23.901
 23.919  23.931  23.947  23.987  24.015  24.042  24.316  49.928
 49.942  50.040  50.055
 --------------------------------------------------------------
 
          Ground-State Mulliken Net Atomic Charges

     Atom                 Charge (a.u.)
  ----------------------------------------
      1 C                     0.196289
      2 C                     0.243312
      3 C                    -0.706340
      4 C                    -0.569315
      5 O                     0.008400
      6 O                    -0.186566
      7 O                    -0.006017
      8 O                    -0.186978
      9 C                    -0.198952
     10 C                    -0.205864
     11 C                     0.212590
     12 C                    -0.332662
     13 C                    -0.510580
     14 C                     0.474992
     15 C                    -0.756036
     16 C                    -0.380810
     17 H                     0.176021
     18 H                     0.162516
     19 H                     0.142387
     20 H                     0.153874
     21 H                     0.175714
     22 H                     0.142485
     23 H                     0.193719
     24 H                     0.268106
     25 H                     0.268070
     26 H                     0.143786
     27 H                     0.188817
     28 H                     0.162384
     29 H                     0.187377
     30 H                     0.111898
     31 H                     0.158118
     32 H                     0.269264
  ----------------------------------------
  Sum of atomic charges =    -0.000000

 -----------------------------------------------------------------
                    Cartesian Multipole Moments
 -----------------------------------------------------------------
    Charge (ESU x 10^10)
                -0.0000
    Dipole Moment (Debye)
         X      -2.0349      Y      -1.1289      Z      -1.6228
       Tot       2.8370
    Quadrupole Moments (Debye-Ang)
        XX     -88.5614     XY      -5.1430     YY     -93.3663
        XZ      -4.7910     YZ      -7.1458     ZZ     -96.5941
    Octopole Moments (Debye-Ang^2)
       XXX       1.6668    XXY      27.5185    XYY      -7.0149
       YYY      30.4515    XXZ     -24.0509    XYZ      -5.3078
       YYZ      -1.7576    XZZ     -10.3687    YZZ       6.9685
       ZZZ     -10.8668
    Hexadecapole Moments (Debye-Ang^3)
      XXXX   -1727.8079   XXXY     -30.8610   XXYY    -488.4037
      XYYY     -42.2498   YYYY   -1426.4448   XXXZ     -20.6995
      XXYZ     -38.4798   XYYZ      -7.3627   YYYZ     -12.1975
      XXZZ    -444.6863   XYZZ     -23.8742   YYZZ    -381.7225
      XZZZ     -27.6814   YZZZ     -14.6866   ZZZZ    -792.0464
 -----------------------------------------------------------------
 Calculating analytic gradient of the SCF energy
 Gradient of SCF Energy
            1           2           3           4           5           6
    1   0.0011116   0.0000976  -0.0024867  -0.0002409   0.0000881   0.0009607
    2  -0.0008740  -0.0001655   0.0027072   0.0011777  -0.0005929  -0.0012717
    3  -0.0004598  -0.0004049   0.0004745   0.0019141   0.0000627  -0.0001208
            7           8           9          10          11          12
    1  -0.0000642   0.0001164  -0.0000411   0.0001724  -0.0001578   0.0001045
    2  -0.0003131  -0.0007291  -0.0000104   0.0002021   0.0000389   0.0001595
    3  -0.0006549  -0.0012393   0.0000335  -0.0000326   0.0002547   0.0001044
           13          14          15          16          17          18
    1   0.0000006   0.0000650  -0.0000165   0.0001636  -0.0000036  -0.0000294
    2   0.0000976  -0.0001478  -0.0001203   0.0003881  -0.0000379   0.0000590
    3  -0.0000112   0.0002737  -0.0001187  -0.0000547   0.0000033  -0.0000304
           19          20          21          22          23          24
    1  -0.0000159  -0.0000247  -0.0000305   0.0000177  -0.0000219   0.0000330
    2  -0.0000438  -0.0000448  -0.0000118  -0.0000149   0.0000007  -0.0000549
    3   0.0000253  -0.0000119  -0.0000037  -0.0000086   0.0000905  -0.0000150
           25          26          27          28          29          30
    1  -0.0000059   0.0000177   0.0000093  -0.0000367   0.0000151   0.0000349
    2   0.0000159  -0.0000474  -0.0000045  -0.0000277  -0.0000295   0.0000046
    3  -0.0000074  -0.0000666  -0.0000714  -0.0000314   0.0000176   0.0000090
           31          32
    1   0.0000445   0.0001231
    2   0.0000031  -0.0003124
    3  -0.0000230   0.0001033
 Max gradient component =       2.707E-03
 RMS gradient           =       5.351E-04
 Gradient time:  CPU 333.18 s  wall 24.40 s
 Geometry Optimization Parameters
   NAtoms,    NIC,     NZ,  NCons,   NDum,   NFix, NCnnct, MaxDiis
       32     251       0       0       0       0       0       0

 Cartesian Hessian Update
 Hessian Updated using BFGS Update


** GEOMETRY OPTIMIZATION IN DELOCALIZED INTERNAL COORDINATES **
   Searching for a Minimum

   Optimization Cycle:   2

                       Coordinates (Angstroms)
     ATOM                X               Y               Z
      1  C         0.7828817089   -0.7964243099    0.7803046091
      2  C        -0.7522491834   -0.4193964653    0.7258277932
      3  C         1.7741444957    0.3437136812    0.6552707555
      4  C        -1.0514418733    0.9265047527    0.0684451386
      5  O         2.2854821873    0.4632795543   -0.5839200933
      6  O         2.1280011924    1.0156328392    1.5944565614
      7  O        -2.3752500023    1.0254127402   -0.1974842410
      8  O        -0.2664567153    1.8015268202   -0.1967515941
      9  C        -2.8061083860    2.2417725203   -0.8329280414
     10  C         3.1331135534    1.6047742131   -0.8002301942
     11  C         0.8903857243   -1.9956690721   -0.2243787622
     12  C         0.4881517865   -1.5177021473   -1.6103758144
     13  C        -0.8299876598   -1.2968468005   -1.5958515582
     14  C        -1.3252068208   -1.5898403090   -0.1866241007
     15  C        -0.3904022299   -2.7598301479    0.1854758499
     16  C        -1.3778987974   -0.4069386977    2.1325739021
     17  H        -2.5634913522    3.1055286098   -0.2124609782
     18  H         4.0062598925    1.5664215573   -0.1472274322
     19  H        -1.4337638206   -0.8651813538   -2.3829797890
     20  H        -3.8833902999    2.1420590437   -0.9479563873
     21  H        -2.3254593321    2.3525079597   -1.8065202806
     22  H         3.4320781321    1.5514536944   -1.8451799935
     23  H         2.5710842311    2.5191563774   -0.6054354431
     24  H        -2.3973532828   -1.7324158775   -0.0662961639
     25  H         1.8373567576   -2.5296287444   -0.1564553954
     26  H        -1.2419780110   -1.3759126556    2.6178418900
     27  H        -0.9013567895    0.3523125892    2.7578004757
     28  H        -2.4474955579   -0.1968574388    2.0781039316
     29  H        -0.5731900729   -3.6421815678   -0.4305506343
     30  H        -0.4170138928   -3.0416087352    1.2412026359
     31  H         1.1808650331   -1.3059507241   -2.4115770912
     32  H         0.9707635947   -1.1889013755    1.7820488454
   Point Group: c1    Number of degrees of freedom:    90


   Energy is   -768.038215522

 Hessian Updated using BFGS Update

 81 Hessian modes will be used to form the next step
  Hessian Eigenvalues:
     0.003556    0.003932    0.005579    0.006623    0.010080    0.010561
     0.010591    0.012863    0.016528    0.016949    0.019828    0.021664
     0.022573    0.024699    0.029050    0.036339    0.039497    0.043005
     0.046810    0.047076    0.047995    0.052021    0.053303    0.054005
     0.055857    0.056597    0.057133    0.066994    0.068564    0.075613
     0.092352    0.099525    0.101198    0.101745    0.105996    0.106264
     0.113265    0.121504    0.146678    0.156736    0.158725    0.159992
     0.160122    0.169294    0.213823    0.226827    0.240654    0.249820
     0.249963    0.249995    0.250206    0.252506    0.254326    0.272261
     0.285764    0.296524    0.298708    0.307637    0.344678    0.344797
     0.345594    0.345788    0.346350    0.346498    0.346537    0.346972
     0.347156    0.347157    0.348990    0.350142    0.350253    0.350484
     0.357694    0.359830    0.398002    0.398494    0.513992    0.542111
     0.559053    1.010958    1.023246

 Minimum Search - Taking Simple RFO Step
 Searching for Lamda that Minimizes Along All modes
 Value Taken    Lamda =  -0.00017063
 Step Taken.  Stepsize is  0.081819

                             Maximum     Tolerance    Cnvgd?
         Gradient           0.001058      0.000001      NO
         Displacement       0.031781      0.000001      NO
         Energy change      0.000047      0.000000      NO


 New Cartesian Coordinates Obtained by Inverse Iteration

 Displacement from previous Coordinates is:  0.278541
 Adding empirical dispersion correction 
 ----------------------------------------------------------------
 Doing -D3(op) with
 s6 =   1.00000
 s8 =   0.78311
 a1 =   0.30000
 a2 =   4.25000
 n  =  10.00000
 -D3 energy without 3body term =     -0.0399334735 hartrees
 ----------------------------------------------------------------
             Standard Nuclear Orientation (Angstroms)
    I     Atom           X                Y                Z
 ----------------------------------------------------------------
    1      C       0.7826934409    -0.7968719918     0.7855572826
    2      C      -0.7523495685    -0.4209008653     0.7190817942
    3      C       1.7754441098     0.3409705746     0.6509425326
    4      C      -1.0477750415     0.9276088405     0.0656720116
    5      O       2.2819841419     0.4546750793    -0.5907725708
    6      O       2.1167883730     1.0322773043     1.5807705597
    7      O      -2.3723278106     1.0337686630    -0.1933678255
    8      O      -0.2641232150     1.8108081821    -0.1753987450
    9      C      -2.8026288695     2.2603087879    -0.8092916553
   10      C       3.1153748060     1.6037873074    -0.8208385477
   11      C       0.8962377372    -2.0053952797    -0.2079094720
   12      C       0.5132480305    -1.5351790297    -1.6018487787
   13      C      -0.8033031505    -1.3048573519    -1.6035823184
   14      C      -1.3178989560    -1.5899563412    -0.1995983270
   15      C      -0.3928622347    -2.7617422928     0.1904538041
   16      C      -1.3889401622    -0.4143726218     2.1211447108
   17      H      -2.5552173964     3.1144365227    -0.1774984476
   18      H       3.9901994602     1.5828038748    -0.1692788747
   19      H      -1.3949734686    -0.8739606349    -2.4002787340
   20      H      -3.8806505318     2.1650474343    -0.9211538490
   21      H      -2.3258471158     2.3837950919    -1.7832506823
   22      H       3.4128993502     1.5429853030    -1.8657906758
   23      H       2.5427863418     2.5134456945    -0.6348908422
   24      H      -2.3920749668    -1.7278502944    -0.0925940236
   25      H       1.8401440621    -2.5426726923    -0.1249342572
   26      H      -1.2556804165    -1.3848431273     2.6041296453
   27      H      -0.9182547805     0.3431467338     2.7529227946
   28      H      -2.4582993806    -0.2052368237     2.0592534305
   29      H      -0.5717306642    -3.6466989156    -0.4229546667
   30      H      -0.4338354562    -3.0376295790     1.2472791169
   31      H       1.2165778713    -1.3322978810    -2.3960345987
   32      H       0.9654696708    -1.1786291416     1.7922286091
 ----------------------------------------------------------------
 Nuclear Repulsion Energy =  1229.5628031402 hartrees
 There are       60 alpha and       60 beta electrons
 Applying Cartesian multipole field
    Component          Value
    ---------          -----
     (2,0,0)        1.00000E-11
     (0,2,0)        2.00000E-11
     (0,0,2)       -3.00000E-11
 Nucleus-field energy     =     0.0000000184 hartrees
 Requested basis set is 6-311++G(d,p)
 There are 176 shells and 464 basis functions
 A cutoff of  1.0D-11 yielded  12930 shell pairs
 There are     92048 function pairs (     98290 Cartesian)
 Smallest overlap matrix eigenvalue = 7.56E-07

 Q-Chem warning in module /fs/scratch/osu6415/qchem-kaunlao-vdw/stvman/mkSTV.C, line 281:

 Overlap eigenvalue is smaller than square root of threshold

 Linear dependence detected in AO basis
 Number of orthogonalized atomic orbitals = 463
 Maximum deviation from orthogonality = 3.019E-10
 Guess MOs from SCF MO coefficient file
 Reading MOs from coefficient file
 Reading MOs from coefficient file
 A restricted hybrid HF-DFT SCF calculation will be
 performed using Pulay DIIS extrapolation
 Exchange:     0.2000 Hartree-Fock + 0.0800 Slater + 0.7200 B88
 Correlation:  0.1900 VWN1RPA + 0.8100 LYP
 Using SG-1 standard quadrature grid
 Dispersion:   Grimme D3
 SCF converges when DIIS error is below 1.0E-08
 Geometry optimization detected.  Setting ReadMinima to 0
 Setting SaveMinima to 0
 using 20 threads for integral computing
 -------------------------------------------------------
 OpenMP Integral computing Module                
 Release: version 1.0, May 2013, Q-Chem Inc. Pittsburgh 
 -------------------------------------------------------
 -------------------------------------------------------
 OpenMP BLAS3 based DFT computing Module                
 Release: version 1.0, May 2013, Q-Chem Inc. Pittsburgh 
 -------------------------------------------------------
 ---------------------------------------
  Cycle       Energy         DIIS Error
 ---------------------------------------
    1    -768.0350644346      3.80E-04
    2    -768.0382044257      3.66E-05
    3    -768.0381803026      5.23E-05
    4    -768.0382472384      1.27E-05
    5    -768.0382502702      5.45E-06
    6    -768.0382508410      2.03E-06
    7    -768.0382509014      1.04E-06
    8    -768.0382509253      1.63E-07
    9    -768.0382509246      7.48E-08
   10    -768.0382509253      2.75E-08
   11    -768.0382509256      1.30E-08
   12    -768.0382509221      3.83E-09 Convergence criterion met
 ---------------------------------------
 SCF time:  CPU 809.74 s  wall 52.35 s
 SCF   energy in the final basis set = -768.03825092
 Total energy in the final basis set = -768.03825092
 
 --------------------------------------------------------------
 
                    Orbital Energies (a.u.)
 --------------------------------------------------------------
 
 Alpha MOs
 -- Occupied --
-19.174 -19.160 -19.119 -19.100 -10.306 -10.294 -10.231 -10.216
-10.214 -10.196 -10.192 -10.190 -10.177 -10.173 -10.172 -10.170
 -1.117  -1.101  -1.030  -1.013  -0.901  -0.802  -0.767  -0.736
 -0.720  -0.707  -0.682  -0.626  -0.584  -0.570  -0.562  -0.535
 -0.534  -0.517  -0.495  -0.488  -0.475  -0.475  -0.460  -0.453
 -0.433  -0.427  -0.421  -0.409  -0.401  -0.391  -0.386  -0.385
 -0.376  -0.363  -0.359  -0.352  -0.348  -0.335  -0.320  -0.318
 -0.299  -0.283  -0.270  -0.251
 -- Virtual --
 -0.014  -0.011  -0.000   0.002   0.003   0.008   0.011   0.015
  0.023   0.025   0.028   0.033   0.045   0.046   0.049   0.055
  0.057   0.060   0.064   0.072   0.078   0.088   0.092   0.096
  0.097   0.103   0.107   0.109   0.112   0.115   0.116   0.119
  0.123   0.125   0.128   0.131   0.132   0.136   0.141   0.142
  0.143   0.145   0.149   0.153   0.155   0.158   0.161   0.166
  0.168   0.170   0.170   0.176   0.178   0.180   0.183   0.189
  0.197   0.200   0.203   0.205   0.207   0.214   0.219   0.222
  0.227   0.231   0.237   0.240   0.244   0.248   0.251   0.256
  0.261   0.265   0.272   0.275   0.281   0.284   0.292   0.295
  0.300   0.303   0.309   0.314   0.319   0.320   0.329   0.335
  0.337   0.342   0.342   0.347   0.349   0.353   0.359   0.361
  0.369   0.375   0.376   0.379   0.386   0.392   0.398   0.403
  0.409   0.415   0.424   0.428   0.439   0.447   0.461   0.471
  0.482   0.494   0.498   0.504   0.512   0.519   0.530   0.540
  0.549   0.566   0.573   0.578   0.587   0.596   0.607   0.611
  0.621   0.632   0.635   0.645   0.649   0.655   0.663   0.667
  0.675   0.677   0.682   0.689   0.701   0.705   0.708   0.720
  0.722   0.726   0.731   0.733   0.736   0.742   0.757   0.765
  0.767   0.772   0.786   0.792   0.799   0.801   0.809   0.821
  0.832   0.847   0.859   0.863   0.887   0.905   0.913   0.949
  0.971   0.988   1.006   1.007   1.026   1.033   1.042   1.063
  1.077   1.085   1.103   1.113   1.134   1.154   1.181   1.191
  1.198   1.215   1.222   1.240   1.250   1.260   1.270   1.277
  1.292   1.310   1.320   1.344   1.353   1.362   1.386   1.399
  1.415   1.425   1.435   1.442   1.447   1.462   1.481   1.484
  1.493   1.499   1.514   1.521   1.544   1.548   1.556   1.565
  1.582   1.587   1.591   1.600   1.608   1.621   1.641   1.643
  1.659   1.666   1.674   1.685   1.696   1.706   1.717   1.719
  1.729   1.744   1.747   1.757   1.772   1.778   1.788   1.800
  1.805   1.820   1.831   1.845   1.855   1.864   1.865   1.875
  1.908   1.910   1.917   1.935   1.942   1.954   1.968   1.976
  1.983   1.994   2.009   2.029   2.038   2.054   2.064   2.076
  2.104   2.123   2.138   2.153   2.160   2.177   2.193   2.209
  2.217   2.224   2.241   2.249   2.268   2.298   2.336   2.357
  2.365   2.398   2.429   2.450   2.464   2.472   2.480   2.497
  2.504   2.517   2.524   2.531   2.548   2.560   2.567   2.569
  2.592   2.613   2.616   2.638   2.666   2.667   2.672   2.693
  2.719   2.730   2.751   2.763   2.775   2.780   2.815   2.836
  2.840   2.853   2.864   2.874   2.887   2.909   2.929   2.945
  2.967   2.976   2.986   3.005   3.028   3.038   3.049   3.056
  3.069   3.097   3.102   3.117   3.133   3.142   3.176   3.180
  3.203   3.233   3.236   3.261   3.268   3.300   3.324   3.331
  3.398   3.402   3.426   3.471   3.528   3.606   3.611   3.625
  3.733   3.769   3.775   3.786   3.801   3.819   3.824   3.850
  3.865   3.961   4.061   4.065   4.083   4.115   4.128   4.156
  4.164   4.183   4.236   4.264   4.302   4.355   4.439   5.063
  5.076   5.137   5.145   5.267   5.329   5.412   5.451   5.630
  5.657   5.895   5.917  23.791  23.840  23.849  23.879  23.900
 23.919  23.931  23.947  23.987  24.015  24.042  24.317  49.928
 49.943  50.042  50.055
 --------------------------------------------------------------
 
          Ground-State Mulliken Net Atomic Charges

     Atom                 Charge (a.u.)
  ----------------------------------------
      1 C                     0.196803
      2 C                     0.230781
      3 C                    -0.686203
      4 C                    -0.577309
      5 O                     0.007632
      6 O                    -0.188199
      7 O                    -0.006880
      8 O                    -0.188405
      9 C                    -0.196982
     10 C                    -0.203794
     11 C                     0.203536
     12 C                    -0.331379
     13 C                    -0.509780
     14 C                     0.483906
     15 C                    -0.757079
     16 C                    -0.380113
     17 H                     0.176685
     18 H                     0.162439
     19 H                     0.142852
     20 H                     0.153509
     21 H                     0.175175
     22 H                     0.142548
     23 H                     0.193822
     24 H                     0.268487
     25 H                     0.267727
     26 H                     0.143341
     27 H                     0.188750
     28 H                     0.161689
     29 H                     0.187489
     30 H                     0.110790
     31 H                     0.158244
     32 H                     0.269918
  ----------------------------------------
  Sum of atomic charges =    -0.000000

 -----------------------------------------------------------------
                    Cartesian Multipole Moments
 -----------------------------------------------------------------
    Charge (ESU x 10^10)
                -0.0000
    Dipole Moment (Debye)
         X      -2.0274      Y      -1.1473      Z      -1.6252
       Tot       2.8404
    Quadrupole Moments (Debye-Ang)
        XX     -88.5784     XY      -5.2227     YY     -93.4451
        XZ      -4.8139     YZ      -7.2544     ZZ     -96.4897
    Octopole Moments (Debye-Ang^2)
       XXX       1.1768    XXY      27.4088    XYY      -7.5548
       YYY      30.6064    XXZ     -23.5707    XYZ      -5.5404
       YYZ      -1.9529    XZZ     -10.0985    YZZ       7.0005
       ZZZ     -10.5340
    Hexadecapole Moments (Debye-Ang^3)
      XXXX   -1721.2005   XXXY     -28.5787   XXYY    -488.7034
      XYYY     -39.9267   YYYY   -1437.8978   XXXZ     -16.0982
      XXYZ     -38.3272   XYYZ      -6.0411   YYYZ     -13.7488
      XXZZ    -442.1446   XYZZ     -22.3402   YYZZ    -382.9015
      XZZZ     -22.3228   YZZZ     -15.2948   ZZZZ    -786.9516
 -----------------------------------------------------------------
 Calculating analytic gradient of the SCF energy
 Gradient of SCF Energy
            1           2           3           4           5           6
    1   0.0002042  -0.0001346  -0.0002827   0.0003773  -0.0003314  -0.0000861
    2   0.0001027  -0.0000292   0.0002112  -0.0004926  -0.0000906   0.0000276
    3  -0.0004709   0.0009429   0.0003032  -0.0015942  -0.0002016  -0.0001040
            7           8           9          10          11          12
    1  -0.0001864   0.0000033  -0.0000102   0.0000190   0.0000059   0.0001699
    2   0.0003137   0.0001082  -0.0000452   0.0000968   0.0001796  -0.0001851
    3   0.0006341   0.0005340   0.0000668  -0.0000574   0.0002540   0.0001215
           13          14          15          16          17          18
    1   0.0003186  -0.0001805  -0.0001513   0.0002708  -0.0000496  -0.0000158
    2   0.0001189  -0.0002401   0.0000907   0.0001141   0.0000002   0.0000421
    3  -0.0002608  -0.0000791   0.0000238  -0.0001701  -0.0000364  -0.0000020
           19          20          21          22          23          24
    1   0.0000208  -0.0000297   0.0000008  -0.0000170   0.0000185   0.0000492
    2  -0.0000522  -0.0000304  -0.0000459   0.0000247   0.0000501  -0.0000474
    3   0.0000341   0.0000135  -0.0000153   0.0000011   0.0000036  -0.0000083
           25          26          27          28          29          30
    1  -0.0000034  -0.0000194   0.0000037  -0.0001038  -0.0000237   0.0000220
    2   0.0000627  -0.0001071  -0.0000263  -0.0000012  -0.0000028  -0.0000021
    3  -0.0000211  -0.0000157  -0.0000211   0.0000004   0.0000193   0.0000825
           31          32
    1   0.0000754   0.0000662
    2   0.0000345  -0.0001798
    3  -0.0000223   0.0000455
 Max gradient component =       1.594E-03
 RMS gradient           =       2.513E-04
 Gradient time:  CPU 328.61 s  wall 24.62 s
 Geometry Optimization Parameters
   NAtoms,    NIC,     NZ,  NCons,   NDum,   NFix, NCnnct, MaxDiis
       32     251       0       0       0       0       0       0

 Cartesian Hessian Update
 Hessian Updated using BFGS Update


** GEOMETRY OPTIMIZATION IN DELOCALIZED INTERNAL COORDINATES **
   Searching for a Minimum

   Optimization Cycle:   3

                       Coordinates (Angstroms)
     ATOM                X               Y               Z
      1  C         0.7826934409   -0.7968719918    0.7855572826
      2  C        -0.7523495685   -0.4209008653    0.7190817942
      3  C         1.7754441098    0.3409705746    0.6509425326
      4  C        -1.0477750415    0.9276088405    0.0656720116
      5  O         2.2819841419    0.4546750793   -0.5907725708
      6  O         2.1167883730    1.0322773043    1.5807705597
      7  O        -2.3723278106    1.0337686630   -0.1933678255
      8  O        -0.2641232150    1.8108081821   -0.1753987450
      9  C        -2.8026288695    2.2603087879   -0.8092916553
     10  C         3.1153748060    1.6037873074   -0.8208385477
     11  C         0.8962377372   -2.0053952797   -0.2079094720
     12  C         0.5132480305   -1.5351790297   -1.6018487787
     13  C        -0.8033031505   -1.3048573519   -1.6035823184
     14  C        -1.3178989560   -1.5899563412   -0.1995983270
     15  C        -0.3928622347   -2.7617422928    0.1904538041
     16  C        -1.3889401622   -0.4143726218    2.1211447108
     17  H        -2.5552173964    3.1144365227   -0.1774984476
     18  H         3.9901994602    1.5828038748   -0.1692788747
     19  H        -1.3949734686   -0.8739606349   -2.4002787340
     20  H        -3.8806505318    2.1650474343   -0.9211538490
     21  H        -2.3258471158    2.3837950919   -1.7832506823
     22  H         3.4128993502    1.5429853030   -1.8657906758
     23  H         2.5427863418    2.5134456945   -0.6348908422
     24  H        -2.3920749668   -1.7278502944   -0.0925940236
     25  H         1.8401440621   -2.5426726923   -0.1249342572
     26  H        -1.2556804165   -1.3848431273    2.6041296453
     27  H        -0.9182547805    0.3431467338    2.7529227946
     28  H        -2.4582993806   -0.2052368237    2.0592534305
     29  H        -0.5717306642   -3.6466989156   -0.4229546667
     30  H        -0.4338354562   -3.0376295790    1.2472791169
     31  H         1.2165778713   -1.3322978810   -2.3960345987
     32  H         0.9654696708   -1.1786291416    1.7922286091
   Point Group: c1    Number of degrees of freedom:    90


   Energy is   -768.038250922

 Hessian Updated using BFGS Update

 83 Hessian modes will be used to form the next step
  Hessian Eigenvalues:
     0.003925    0.004194    0.005321    0.006623    0.010323    0.010561
     0.010590    0.012861    0.016529    0.016951    0.019828    0.021713
     0.022686    0.025064    0.031363    0.038963    0.039621    0.043058
     0.046127    0.046866    0.050429    0.051796    0.054001    0.055624
     0.055939    0.056602    0.057168    0.067241    0.068299    0.075630
     0.091910    0.096498    0.101198    0.101708    0.105997    0.106216
     0.113251    0.121838    0.144000    0.156712    0.158725    0.159953
     0.159999    0.160226    0.169469    0.213953    0.227880    0.240808
     0.249711    0.249873    0.249968    0.249999    0.251254    0.253218
     0.254363    0.273111    0.285318    0.296410    0.298777    0.307589
     0.344703    0.344787    0.345495    0.345639    0.346349    0.346499
     0.346558    0.346972    0.347156    0.347157    0.348990    0.350141
     0.350253    0.350484    0.357697    0.359823    0.398004    0.398230
     0.513965    0.542018    0.559152    1.010083    1.023172

 Minimum Search - Taking Simple RFO Step
 Searching for Lamda that Minimizes Along All modes
 Value Taken    Lamda =  -0.00010908
 Step Taken.  Stepsize is  0.113500

                             Maximum     Tolerance    Cnvgd?
         Gradient           0.000812      0.000001      NO
         Displacement       0.045962      0.000001      NO
         Energy change     -0.000035      0.000000      NO


 New Cartesian Coordinates Obtained by Inverse Iteration

 Displacement from previous Coordinates is:  0.326857
 Adding empirical dispersion correction 
 ----------------------------------------------------------------
 Doing -D3(op) with
 s6 =   1.00000
 s8 =   0.78311
 a1 =   0.30000
 a2 =   4.25000
 n  =  10.00000
 -D3 energy without 3body term =     -0.0399525184 hartrees
 ----------------------------------------------------------------
             Standard Nuclear Orientation (Angstroms)
    I     Atom           X                Y                Z
 ----------------------------------------------------------------
    1      C       0.7857443606    -0.7981499454     0.7831544179
    2      C      -0.7491132878    -0.4168782308     0.7318600718
    3      C       1.7863945100     0.3340314514     0.6550700252
    4      C      -1.0498465034     0.9342949451     0.0867295816
    5      O       2.3000463633     0.4486452713    -0.5835699385
    6      O       2.1142280165     1.0326657743     1.5844029725
    7      O      -2.3673687346     1.0181413382    -0.2128613096
    8      O      -0.2714722168     1.8247783869    -0.1445607066
    9      C      -2.7989657156     2.2363396104    -0.8443278366
   10      C       3.1284199076     1.6018574732    -0.8101676794
   11      C       0.8874900421    -1.9972612899    -0.2235898151
   12      C       0.4865422014    -1.5152668511    -1.6090150863
   13      C      -0.8303328406    -1.2873357943    -1.5935535853
   14      C      -1.3260894931    -1.5811742442    -0.1853664659
   15      C      -0.3964661492    -2.7562970337     0.1844942374
   16      C      -1.3743248923    -0.4158376821     2.1395204532
   17      H      -2.5857678361     3.0952913929    -0.2066293754
   18      H       3.9987087257     1.5873715184    -0.1523794686
   19      H      -1.4321454944    -0.8509931455    -2.3796851567
   20      H      -3.8712037605     2.1226170350    -0.9894969209
   21      H      -2.2943244234     2.3666823935    -1.8032220758
   22      H       3.4335874234     1.5406407128    -1.8528909529
   23      H       2.5490474604     2.5084564189    -0.6303759597
   24      H      -2.3988806153    -1.7194002073    -0.0652942211
   25      H       1.8320984959    -2.5356660837    -0.1566962715
   26      H      -1.2359966541    -1.3874767776     2.6185187078
   27      H      -0.8992749191     0.3401391381     2.7699469207
   28      H      -2.4442218904    -0.2075244587     2.0871714690
   29      H      -0.5825784272    -3.6364883263    -0.4335849527
   30      H      -0.4245169575    -3.0403659287     1.2394913208
   31      H       1.1796886668    -1.3057774726    -2.4102954129
   32      H       0.9719688475    -1.1892888583     1.7853714139
 ----------------------------------------------------------------
 Nuclear Repulsion Energy =  1229.4015849744 hartrees
 There are       60 alpha and       60 beta electrons
 Applying Cartesian multipole field
    Component          Value
    ---------          -----
     (2,0,0)        1.00000E-11
     (0,2,0)        2.00000E-11
     (0,0,2)       -3.00000E-11
 Nucleus-field energy     =     0.0000000181 hartrees
 Requested basis set is 6-311++G(d,p)
 There are 176 shells and 464 basis functions
 A cutoff of  1.0D-11 yielded  12933 shell pairs
 There are     92054 function pairs (     98297 Cartesian)
 Smallest overlap matrix eigenvalue = 7.72E-07

 Q-Chem warning in module /fs/scratch/osu6415/qchem-kaunlao-vdw/stvman/mkSTV.C, line 281:

 Overlap eigenvalue is smaller than square root of threshold

 Linear dependence detected in AO basis
 Number of orthogonalized atomic orbitals = 463
 Maximum deviation from orthogonality = 2.068E-10
 Guess MOs from SCF MO coefficient file
 Reading MOs from coefficient file
 Reading MOs from coefficient file
 A restricted hybrid HF-DFT SCF calculation will be
 performed using Pulay DIIS extrapolation
 Exchange:     0.2000 Hartree-Fock + 0.0800 Slater + 0.7200 B88
 Correlation:  0.1900 VWN1RPA + 0.8100 LYP
 Using SG-1 standard quadrature grid
 Dispersion:   Grimme D3
 SCF converges when DIIS error is below 1.0E-08
 Geometry optimization detected.  Setting ReadMinima to 0
 Setting SaveMinima to 0
 using 20 threads for integral computing
 -------------------------------------------------------
 OpenMP Integral computing Module                
 Release: version 1.0, May 2013, Q-Chem Inc. Pittsburgh 
 -------------------------------------------------------
 -------------------------------------------------------
 OpenMP BLAS3 based DFT computing Module                
 Release: version 1.0, May 2013, Q-Chem Inc. Pittsburgh 
 -------------------------------------------------------
 ---------------------------------------
  Cycle       Energy         DIIS Error
 ---------------------------------------
    1    -768.0343415037      4.11E-04
    2    -768.0381372836      4.29E-05
    3    -768.0380979549      6.18E-05
    4    -768.0381959478      1.28E-05
    5    -768.0381992723      5.76E-06
    6    -768.0381999343      2.43E-06
    7    -768.0382000327      1.09E-06
    8    -768.0382000568      2.04E-07
    9    -768.0382000577      6.15E-08
   10    -768.0382000592      2.83E-08
   11    -768.0382000578      1.04E-08
   12    -768.0382000620      5.13E-09 Convergence criterion met
 ---------------------------------------
 SCF time:  CPU 813.66 s  wall 54.56 s
 SCF   energy in the final basis set = -768.03820006
 Total energy in the final basis set = -768.03820006
 
 --------------------------------------------------------------
 
                    Orbital Energies (a.u.)
 --------------------------------------------------------------
 
 Alpha MOs
 -- Occupied --
-19.174 -19.161 -19.119 -19.100 -10.306 -10.294 -10.231 -10.216
-10.214 -10.196 -10.191 -10.190 -10.177 -10.173 -10.172 -10.170
 -1.117  -1.102  -1.030  -1.013  -0.901  -0.801  -0.768  -0.736
 -0.720  -0.707  -0.682  -0.626  -0.584  -0.570  -0.561  -0.535
 -0.534  -0.517  -0.495  -0.488  -0.476  -0.475  -0.460  -0.453
 -0.433  -0.427  -0.421  -0.409  -0.401  -0.391  -0.385  -0.385
 -0.376  -0.363  -0.358  -0.352  -0.348  -0.336  -0.320  -0.317
 -0.299  -0.283  -0.270  -0.251
 -- Virtual --
 -0.014  -0.010  -0.000   0.001   0.003   0.007   0.011   0.015
  0.023   0.025   0.028   0.034   0.045   0.046   0.049   0.055
  0.058   0.060   0.064   0.072   0.078   0.088   0.093   0.096
  0.098   0.103   0.107   0.109   0.112   0.116   0.116   0.119
  0.123   0.125   0.128   0.131   0.132   0.136   0.141   0.141
  0.144   0.145   0.149   0.153   0.155   0.158   0.160   0.167
  0.168   0.169   0.170   0.176   0.178   0.180   0.182   0.189
  0.197   0.200   0.202   0.205   0.207   0.215   0.219   0.222
  0.227   0.232   0.238   0.240   0.244   0.248   0.251   0.256
  0.261   0.265   0.271   0.275   0.282   0.284   0.292   0.294
  0.300   0.303   0.309   0.314   0.317   0.321   0.329   0.335
  0.336   0.342   0.342   0.346   0.349   0.352   0.360   0.362
  0.368   0.375   0.375   0.378   0.386   0.391   0.399   0.403
  0.409   0.414   0.423   0.428   0.439   0.448   0.459   0.471
  0.484   0.494   0.497   0.503   0.512   0.520   0.530   0.539
  0.550   0.565   0.574   0.578   0.588   0.597   0.607   0.611
  0.622   0.632   0.635   0.644   0.648   0.655   0.663   0.665
  0.673   0.677   0.682   0.688   0.700   0.705   0.708   0.720
  0.722   0.727   0.731   0.733   0.737   0.743   0.757   0.766
  0.767   0.772   0.785   0.792   0.800   0.802   0.808   0.820
  0.831   0.846   0.859   0.863   0.888   0.904   0.912   0.950
  0.971   0.989   1.006   1.009   1.027   1.034   1.043   1.065
  1.073   1.084   1.102   1.115   1.133   1.151   1.180   1.191
  1.198   1.215   1.220   1.241   1.251   1.259   1.266   1.279
  1.292   1.311   1.319   1.343   1.353   1.362   1.383   1.399
  1.414   1.425   1.435   1.442   1.446   1.461   1.481   1.484
  1.493   1.501   1.513   1.520   1.543   1.548   1.556   1.565
  1.581   1.586   1.591   1.600   1.607   1.620   1.641   1.643
  1.660   1.667   1.672   1.684   1.696   1.705   1.718   1.722
  1.729   1.743   1.747   1.756   1.771   1.777   1.789   1.800
  1.805   1.820   1.830   1.847   1.854   1.863   1.865   1.873
  1.909   1.911   1.917   1.934   1.941   1.957   1.969   1.976
  1.984   1.992   2.009   2.030   2.038   2.055   2.063   2.076
  2.103   2.124   2.138   2.152   2.160   2.177   2.193   2.209
  2.217   2.223   2.241   2.249   2.266   2.298   2.337   2.357
  2.365   2.398   2.429   2.451   2.464   2.472   2.480   2.497
  2.503   2.517   2.524   2.531   2.547   2.561   2.568   2.570
  2.592   2.614   2.616   2.637   2.666   2.667   2.672   2.693
  2.720   2.732   2.751   2.762   2.775   2.780   2.816   2.836
  2.842   2.852   2.864   2.873   2.887   2.910   2.928   2.942
  2.965   2.976   2.986   3.005   3.028   3.040   3.049   3.057
  3.069   3.094   3.101   3.114   3.132   3.142   3.178   3.181
  3.201   3.231   3.236   3.260   3.271   3.301   3.324   3.331
  3.398   3.401   3.424   3.471   3.527   3.606   3.610   3.625
  3.732   3.770   3.776   3.787   3.801   3.819   3.824   3.851
  3.864   3.958   4.061   4.064   4.083   4.113   4.127   4.157
  4.162   4.186   4.235   4.264   4.299   4.355   4.440   5.066
  5.077   5.138   5.143   5.266   5.327   5.412   5.449   5.631
  5.656   5.894   5.917  23.790  23.841  23.849  23.878  23.900
 23.917  23.931  23.946  23.987  24.015  24.042  24.316  49.927
 49.941  50.042  50.054
 --------------------------------------------------------------
 
          Ground-State Mulliken Net Atomic Charges

     Atom                 Charge (a.u.)
  ----------------------------------------
      1 C                     0.194419
      2 C                     0.245101
      3 C                    -0.682692
      4 C                    -0.572312
      5 O                     0.006366
      6 O                    -0.188297
      7 O                    -0.007742
      8 O                    -0.188669
      9 C                    -0.200829
     10 C                    -0.201495
     11 C                     0.206208
     12 C                    -0.330700
     13 C                    -0.506910
     14 C                     0.475391
     15 C                    -0.760630
     16 C                    -0.390093
     17 H                     0.175760
     18 H                     0.162473
     19 H                     0.142087
     20 H                     0.154033
     21 H                     0.176177
     22 H                     0.142701
     23 H                     0.193811
     24 H                     0.269178
     25 H                     0.268040
     26 H                     0.144319
     27 H                     0.188330
     28 H                     0.161598
     29 H                     0.187082
     30 H                     0.110919
     31 H                     0.158052
     32 H                     0.268321
  ----------------------------------------
  Sum of atomic charges =    -0.000000

 -----------------------------------------------------------------
                    Cartesian Multipole Moments
 -----------------------------------------------------------------
    Charge (ESU x 10^10)
                -0.0000
    Dipole Moment (Debye)
         X      -2.0014      Y      -1.1707      Z      -1.6461
       Tot       2.8435
    Quadrupole Moments (Debye-Ang)
        XX     -88.4748     XY      -5.1356     YY     -93.6325
        XZ      -4.7529     YZ      -7.3833     ZZ     -96.4062
    Octopole Moments (Debye-Ang^2)
       XXX       1.7158    XXY      27.4476    XYY      -7.0759
       YYY      29.4759    XXZ     -23.7519    XYZ      -5.4103
       YYZ      -2.4934    XZZ     -10.2201    YZZ       7.0273
       ZZZ     -11.1189
    Hexadecapole Moments (Debye-Ang^3)
      XXXX   -1724.5277   XXXY     -30.2294   XXYY    -488.2962
      XYYY     -42.5844   YYYY   -1428.2174   XXXZ     -18.6824
      XXYZ     -38.4357   XYYZ      -7.3823   YYYZ     -12.9371
      XXZZ    -443.1501   XYZZ     -24.0803   YYZZ    -381.5316
      XZZZ     -26.5823   YZZZ     -14.6701   ZZZZ    -793.0875
 -----------------------------------------------------------------
 Calculating analytic gradient of the SCF energy
 Gradient of SCF Energy
            1           2           3           4           5           6
    1  -0.0006787   0.0001556   0.0020927  -0.0006701   0.0000858  -0.0008504
    2   0.0002953  -0.0001803  -0.0018865   0.0009198   0.0003740   0.0009478
    3  -0.0000731  -0.0003668   0.0001741   0.0024940  -0.0001280  -0.0001054
            7           8           9          10          11          12
    1   0.0003321  -0.0000249  -0.0000081  -0.0001914   0.0000995  -0.0001563
    2  -0.0004758  -0.0000716  -0.0000296  -0.0000468   0.0000866  -0.0000406
    3  -0.0008138  -0.0007282  -0.0001746  -0.0000206  -0.0001139  -0.0000485
           13          14          15          16          17          18
    1  -0.0001242   0.0001067   0.0000179  -0.0002546  -0.0000046  -0.0000004
    2  -0.0000416   0.0000866  -0.0000104  -0.0001347  -0.0000541   0.0000138
    3   0.0000228  -0.0000740   0.0000328  -0.0001296   0.0000430   0.0000240
           19          20          21          22          23          24
    1  -0.0000370  -0.0000060  -0.0000785  -0.0000459  -0.0000165  -0.0000466
    2   0.0000333  -0.0000487   0.0000147   0.0000536   0.0000348  -0.0000223
    3  -0.0000426  -0.0000206   0.0000033  -0.0000068  -0.0000674  -0.0000152
           25          26          27          28          29          30
    1   0.0000335   0.0000710   0.0000129   0.0001494   0.0000925   0.0000363
    2  -0.0000135  -0.0000116  -0.0000020  -0.0000531  -0.0000042   0.0000457
    3   0.0000253   0.0000525   0.0000044   0.0000427   0.0000069   0.0000012
           31          32
    1  -0.0000446  -0.0000472
    2   0.0000166   0.0002050
    3   0.0000300  -0.0000277
 Max gradient component =       2.494E-03
 RMS gradient           =       4.560E-04
 Gradient time:  CPU 329.40 s  wall 25.78 s
 Geometry Optimization Parameters
   NAtoms,    NIC,     NZ,  NCons,   NDum,   NFix, NCnnct, MaxDiis
       32     251       0       0       0       0       0       0

 Cartesian Hessian Update
 Hessian Updated using BFGS Update


** GEOMETRY OPTIMIZATION IN DELOCALIZED INTERNAL COORDINATES **
   Searching for a Minimum

   Optimization Cycle:   4

                       Coordinates (Angstroms)
     ATOM                X               Y               Z
      1  C         0.7857443606   -0.7981499454    0.7831544179
      2  C        -0.7491132878   -0.4168782308    0.7318600718
      3  C         1.7863945100    0.3340314514    0.6550700252
      4  C        -1.0498465034    0.9342949451    0.0867295816
      5  O         2.3000463633    0.4486452713   -0.5835699385
      6  O         2.1142280165    1.0326657743    1.5844029725
      7  O        -2.3673687346    1.0181413382   -0.2128613096
      8  O        -0.2714722168    1.8247783869   -0.1445607066
      9  C        -2.7989657156    2.2363396104   -0.8443278366
     10  C         3.1284199076    1.6018574732   -0.8101676794
     11  C         0.8874900421   -1.9972612899   -0.2235898151
     12  C         0.4865422014   -1.5152668511   -1.6090150863
     13  C        -0.8303328406   -1.2873357943   -1.5935535853
     14  C        -1.3260894931   -1.5811742442   -0.1853664659
     15  C        -0.3964661492   -2.7562970337    0.1844942374
     16  C        -1.3743248923   -0.4158376821    2.1395204532
     17  H        -2.5857678361    3.0952913929   -0.2066293754
     18  H         3.9987087257    1.5873715184   -0.1523794686
     19  H        -1.4321454944   -0.8509931455   -2.3796851567
     20  H        -3.8712037605    2.1226170350   -0.9894969209
     21  H        -2.2943244234    2.3666823935   -1.8032220758
     22  H         3.4335874234    1.5406407128   -1.8528909529
     23  H         2.5490474604    2.5084564189   -0.6303759597
     24  H        -2.3988806153   -1.7194002073   -0.0652942211
     25  H         1.8320984959   -2.5356660837   -0.1566962715
     26  H        -1.2359966541   -1.3874767776    2.6185187078
     27  H        -0.8992749191    0.3401391381    2.7699469207
     28  H        -2.4442218904   -0.2075244587    2.0871714690
     29  H        -0.5825784272   -3.6364883263   -0.4335849527
     30  H        -0.4245169575   -3.0403659287    1.2394913208
     31  H         1.1796886668   -1.3057774726   -2.4102954129
     32  H         0.9719688475   -1.1892888583    1.7853714139
   Point Group: c1    Number of degrees of freedom:    90


   Energy is   -768.038200062

 Hessian Updated using BFGS Update

 85 Hessian modes will be used to form the next step
  Hessian Eigenvalues:
     0.003717    0.003928    0.005682    0.007338    0.010560    0.010584
     0.012861    0.016528    0.016930    0.019818    0.020875    0.022004
     0.023640    0.026967    0.033572    0.038536    0.039568    0.043005
     0.046734    0.047048    0.051089    0.051998    0.053992    0.055618
     0.055864    0.056717    0.057232    0.067465    0.068401    0.075632
     0.092126    0.097765    0.101199    0.101715    0.105998    0.106225
     0.113238    0.121681    0.148714    0.156714    0.158726    0.159914
     0.159995    0.160086    0.160390    0.169291    0.213904    0.228197
     0.240692    0.249440    0.249827    0.249985    0.250000    0.250184
     0.251889    0.253271    0.254224    0.272556    0.284968    0.296389
     0.298720    0.307935    0.344677    0.344785    0.345467    0.345659
     0.346350    0.346499    0.346692    0.346976    0.347156    0.347157
     0.348988    0.350163    0.350253    0.350485    0.357733    0.359833
     0.398012    0.398352    0.514014    0.542133    0.559039    1.010348
     1.023201

 Minimum Search - Taking Simple RFO Step
 Searching for Lamda that Minimizes Along All modes
 Value Taken    Lamda =  -0.00014867
 Step Taken.  Stepsize is  0.072567

                             Maximum     Tolerance    Cnvgd?
         Gradient           0.000722      0.000001      NO
[...]
    -0.00015448      0.00006120      0.00032682
     0.00022090      0.00018980      0.00078501
    -0.00008969      0.00002414      0.00000940
    -0.00003916      0.00004362      0.00000735
    -0.00007171     -0.00006192      0.00016555
    -0.00044724     -0.00049295      0.00016464
     0.00894708     -0.00484051      0.00042921
     0.00017923      0.00004073      0.00052115
    -0.00001094     -0.00009327      0.00002690
    -0.00199336     -0.00015016      0.00039463
     0.00161369      0.00808873      0.00225672
     0.00589919     -0.00593089      0.00001322
     0.00004336      0.00024636      0.00013359
     0.00669744     -0.00003070      0.00446993
     0.00005749     -0.00035267      0.00037056
    -0.00035793      0.00000051     -0.00004187
     0.00105369      0.00025466     -0.00189528
     0.00228443     -0.00013615     -0.00782363
    -0.00373880      0.00634584      0.00122504
     0.02447205      0.00314216     -0.00327820
    -0.10419876      0.05630721     -0.00968522
    -0.00452766      0.03128658     -0.01379561
     0.01500525      0.02249995      0.02018729
    -0.07720059      0.01333213     -0.00400264
    -0.01834612     -0.08916650     -0.06262067
    -0.00161725     -0.00620242      0.03709876
     0.00090033      0.00012398     -0.00096278
     0.14915920     -0.35560945      0.89852040
vibration 80
    -0.00008335      0.00086824     -0.00126074
    -0.00002535     -0.00063478     -0.00002079
     0.00010394     -0.00002023     -0.00023072
     0.00009343      0.00021469     -0.00036637
    -0.00002765     -0.00000166      0.00009618
    -0.00003835      0.00002527      0.00008823
    -0.00002669     -0.00001599      0.00004814
    -0.00001040      0.00002630      0.00007470
    -0.00007103      0.00050127      0.00070692
    -0.00003723      0.00008512      0.00013978
    -0.00506128      0.00236068     -0.00132203
     0.00001322      0.00015436      0.00004560
     0.00010777      0.00015430      0.00004570
     0.00308318      0.00010051     -0.00083184
    -0.00667886     -0.02930913     -0.05301107
    -0.01058683     -0.06964126     -0.00444799
    -0.00173969     -0.00642562     -0.00503258
    -0.00038550      0.00005310     -0.00025756
     0.00216761     -0.00123443      0.00309127
     0.00043644      0.00002194      0.00024520
     0.00211270      0.00050872     -0.00362252
     0.00024580     -0.00004551     -0.00106541
     0.00057740     -0.00084370     -0.00019266
    -0.03582123     -0.00469277      0.00575143
     0.05667504     -0.03234980      0.00552628
    -0.07759892      0.49130291     -0.24117128
     0.23015793      0.35125065      0.29943413
    -0.02720171     -0.01009859     -0.00192010
     0.09079275      0.44025959      0.30709665
    -0.01117299     -0.08984919      0.32894602
    -0.00206761     -0.00015832      0.00262558
     0.00238243     -0.00511510      0.01666655
vibration 81
    -0.00111141      0.00228713     -0.00566140
     0.00017284      0.00135883      0.00005138
     0.00005647      0.00020305     -0.00005538
     0.00010590     -0.00007954      0.00021306
    -0.00004297     -0.00004585      0.00005857
     0.00002141     -0.00006029      0.00000433
    -0.00000474     -0.00004409      0.00007173
    -0.00002693     -0.00009472     -0.00001534
    -0.00004364     -0.00001999     -0.00014787
     0.00020362     -0.00011793      0.00017904
    -0.00470359      0.00221573     -0.00122799
    -0.00024995      0.00007881      0.00017920
     0.00049171     -0.00007960      0.00023734
    -0.00094601     -0.00075591     -0.00084521
    -0.00704856     -0.02997044     -0.06314552
     0.02646570      0.05489718      0.00950256
     0.00014304      0.00049802      0.00045633
    -0.00189936      0.00008996     -0.00141241
    -0.00085542      0.00101987      0.00008269
     0.00090232      0.00010710      0.00007081
    -0.00065511     -0.00032290      0.00125871
     0.00025201     -0.00013958     -0.00095114
    -0.00092717      0.00142851      0.00037835
     0.01098821      0.00100061     -0.00085424
     0.05346135     -0.03104729      0.00506771
     0.06041449     -0.36061150      0.17991107
    -0.21839282     -0.34224812     -0.28687011
    -0.15700994      0.04344364     -0.00934714
     0.09765210      0.47364112      0.32953387
    -0.01364416     -0.11445722      0.43109145
    -0.00142289     -0.00001630      0.00216255
     0.01236980     -0.02590781      0.07051681
vibration 82
    -0.00131802      0.00221463     -0.00689586
     0.00066769     -0.00054272     -0.00015707
    -0.00045396     -0.00007885      0.00022732
     0.00007876     -0.00009318     -0.00001490
     0.00014231      0.00001344     -0.00010498
     0.00014916      0.00011926      0.00005188
    -0.00004778      0.00004351      0.00003461
     0.00001287      0.00004602     -0.00001476
    -0.00012681      0.00012258      0.00049790
     0.00077598     -0.00053480      0.00019035
    -0.07183597      0.04051528     -0.00607615
     0.00309715      0.00019608     -0.00167845
     0.00047178     -0.00023472      0.00058389
    -0.00936478     -0.00159983      0.00132585
     0.00283214      0.00979336      0.00682772
     0.01382692     -0.00470651      0.00556273
    -0.00068156     -0.00221253     -0.00180304
    -0.00527429      0.00036111     -0.00399372
    -0.00414920      0.00321879     -0.00498812
     0.00006221      0.00005010      0.00007766
     0.00223666      0.00056903     -0.00408054
     0.00013074      0.00000680     -0.00001981
    -0.00396497      0.00611959      0.00155396
     0.11777394      0.01514121     -0.01350101
     0.83240855     -0.47378594      0.06353950
    -0.00722204      0.06628902     -0.03086983
    -0.01955950     -0.03655549     -0.02749669
    -0.13884250      0.02708329     -0.00829142
    -0.02556432     -0.11259573     -0.07824833
    -0.00212237      0.00183608     -0.00565607
    -0.03098372     -0.00743483      0.02911482
     0.01215073     -0.02803319      0.08050692
vibration 83
    -0.00109000      0.00288806     -0.00774872
    -0.00118842      0.00046235     -0.00072114
    -0.00002468      0.00009592     -0.00019441
    -0.00054770     -0.00029444      0.00031154
    -0.00004172     -0.00005990      0.00009303
     0.00000513      0.00000415      0.00010935
     0.00023093      0.00009928     -0.00028537
     0.00019065      0.00014453     -0.00005748
     0.00013302     -0.00057466     -0.00025528
     0.00040891     -0.00017551      0.00029950
    -0.01395877      0.00754132     -0.00131670
     0.00051608      0.00007475     -0.00018065
    -0.00025200      0.00013933     -0.00006086
     0.00924957      0.00104505     -0.00111682
    -0.00065179     -0.00209437     -0.01252709
    -0.07915206      0.02578751     -0.03247155
     0.00146155      0.00578514      0.00456590
    -0.00374721      0.00017300     -0.00281772
     0.00372350     -0.00229688      0.00419664
    -0.00254486     -0.00026728     -0.00041562
     0.00034337      0.00042513     -0.00124465
     0.00036968     -0.00015649     -0.00121413
    -0.00146322      0.00219076      0.00058256
    -0.10372443     -0.01202868      0.01299452
     0.15983862     -0.09095811      0.01238227
     0.04054972     -0.37848065      0.17525209
     0.11890899      0.22118015      0.16794800
     0.79038045     -0.15517021      0.04815320
     0.01189157      0.05722436      0.04001697
    -0.00375219     -0.02876416      0.11134134
    -0.00554756     -0.00130641      0.00565747
     0.01782638     -0.03602498      0.09139754
vibration 84
    -0.00001337      0.00003074     -0.00007462
     0.00005001     -0.00010005     -0.00021678
    -0.00000613     -0.00001913     -0.00006295
    -0.00008005      0.00010722      0.00016705
    -0.00000039      0.00000211      0.00001535
     0.00000516      0.00001999      0.00002302
    -0.00007383      0.00010829      0.00038437
    -0.00003795      0.00007375      0.00012442
     0.02011643     -0.03746314     -0.08491852
     0.00050993     -0.00033158      0.00031053
    -0.00031859      0.00017864     -0.00004179
     0.00000735     -0.00000583      0.00000187
     0.00003033      0.00000270      0.00003037
    -0.00034528     -0.00008736      0.00005919
    -0.00001874     -0.00008033     -0.00034522
     0.00030697     -0.00081914      0.00007020
     0.15499523      0.54567209      0.42313520
    -0.00419717      0.00019354     -0.00315913
    -0.00052932      0.00056198     -0.00025127
    -0.05781207     -0.01399193     -0.02480256
    -0.33437361     -0.08904070      0.60503131
     0.00048902     -0.00013155     -0.00157004
    -0.00242930      0.00382756      0.00094327
     0.00426347      0.00055613     -0.00053047
     0.00368457     -0.00206723      0.00034128
    -0.00098716      0.00666402     -0.00330569
     0.00210996      0.00291684      0.00270042
    -0.00472190      0.00055078     -0.00027849
     0.00036856      0.00172721      0.00118981
    -0.00008534     -0.00082227      0.00297038
    -0.00023377     -0.00003816      0.00019881
     0.00017765     -0.00036870      0.00102504
vibration 85
     0.00085630     -0.00024526      0.00159276
    -0.00064134      0.00037617      0.00037383
     0.00013200      0.00010336      0.00000569
    -0.00073823      0.00015704     -0.00028410
    -0.00003220     -0.00004997      0.00001874
    -0.00004676     -0.00007351     -0.00004669
     0.00028998      0.00011763      0.00003898
     0.00014614     -0.00001060      0.00004156
     0.00012701     -0.00005996      0.00040628
    -0.00391115      0.00273355     -0.00155911
     0.00732464     -0.00363744      0.00041575
    -0.00010292      0.00002006     -0.00037500
     0.00376724     -0.00186253      0.00262009
    -0.08315551     -0.01033264      0.00960398
    -0.00063104     -0.00690443     -0.00076311
    -0.01109847      0.00056445     -0.00373693
    -0.00012714      0.00029430     -0.00008176
     0.02862525     -0.00137091      0.02172677
    -0.03595361      0.02378947     -0.04043259
    -0.00244301     -0.00040547     -0.00024483
     0.00205915      0.00081151     -0.00409583
    -0.00203593      0.00069707      0.00454844
     0.01982477     -0.03159212     -0.00791692
     0.96373881      0.12295687     -0.10571008
    -0.07449025      0.04241168     -0.00570986
     0.00065313     -0.02221886      0.00896885
     0.02221156      0.03698773      0.02801805
     0.11217474     -0.02328558      0.00552529
     0.01121621      0.06362431      0.04326060
    -0.00062152      0.00966107     -0.03192578
     0.00070330     -0.00038757      0.00006956
    -0.00255700      0.00555972     -0.01566240
vibration 86
     0.00023107     -0.00019943      0.00025967
    -0.00001218      0.00004959      0.00002128
    -0.00001299      0.00023153      0.00009514
    -0.00016007     -0.00010073      0.00000742
    -0.00023440      0.00010831     -0.00012438
    -0.00021405     -0.00003396     -0.00003840
     0.00005042      0.00001740      0.00000122
     0.00007293      0.00008980     -0.00004595
     0.00003186      0.00032982      0.00064087
     0.07484500     -0.04959594      0.03051843
     0.00120056     -0.00067096      0.00010326
    -0.00000641      0.00001061     -0.00000695
     0.00015427     -0.00007257      0.00009763
    -0.00442729     -0.00054530      0.00051025
    -0.00003697     -0.00038312      0.00013086
    -0.00040346     -0.00022706     -0.00009401
    -0.00125907     -0.00444236     -0.00347204
    -0.56062223      0.02552531     -0.42444848
    -0.00166274      0.00099751     -0.00177848
    -0.00140316     -0.00008857     -0.00009212
     0.00217716      0.00059670     -0.00402922
     0.03756232     -0.01378253     -0.08294122
    -0.36287895      0.57577737      0.14540062
     0.05113450      0.00653778     -0.00559779
    -0.01340888      0.00776267     -0.00102881
    -0.00030057      0.00155132     -0.00085645
     0.00137318      0.00209250      0.00169374
     0.00389763     -0.00087682      0.00016425
     0.00049277      0.00302658      0.00204192
     0.00006197      0.00099736     -0.00356055
     0.00030774     -0.00011796     -0.00017779
    -0.00049586      0.00087366     -0.00242072
vibration 87
    -0.00000350      0.00010100     -0.00009976
    -0.00000780      0.00000845      0.00000199
    -0.00070833     -0.00094191     -0.00046054
    -0.00007673     -0.00002427     -0.00001536
    -0.00003949      0.00001015      0.00036456
     0.00024572      0.00039451      0.00028692
     0.00003422     -0.00000569      0.00001161
     0.00005174      0.00003018      0.00001615
     0.00059033      0.00019588     -0.00006172
     0.01789388     -0.02837485     -0.08872602
     0.00007757     -0.00004442     -0.00001508
     0.00004222      0.00001933     -0.00004840
     0.00002838     -0.00001797      0.00004833
    -0.00002953     -0.00000770     -0.00000801
    -0.00001726     -0.00006207     -0.00014157
    -0.00010936     -0.00002827     -0.00003812
    -0.00025518     -0.00133107     -0.00109444
     0.22230541     -0.02102363      0.14427916
    -0.00026771      0.00019091     -0.00039958
    -0.00556310     -0.00062968     -0.00073413
    -0.00121757     -0.00029549      0.00249073
    -0.22406633      0.04662123      0.84960420
    -0.20737933      0.31598388      0.05664405
     0.00039786      0.00007494      0.00002865
    -0.00083341      0.00048917     -0.00008807
    -0.00003360      0.00002391     -0.00002698
     0.00026087      0.00055185      0.00049196
     0.00112540     -0.00022119      0.00006220
     0.00028288      0.00117168      0.00078870
    -0.00005706     -0.00030843      0.00107042
    -0.00021045      0.00006357      0.00045190
     0.00036378     -0.00077118      0.00207245
vibration 88
     0.00001453     -0.00002065      0.00003912
     0.00007292      0.00004089     -0.00001800
     0.00001437     -0.00004117      0.00001529
    -0.00023866     -0.00115805      0.00047186
    -0.00000639      0.00000931     -0.00000029
    -0.00000678      0.00001371     -0.00000418
     0.00034261      0.00013337      0.00001793
     0.00022487      0.00049186     -0.00015734
    -0.08872679     -0.03187129     -0.00755020
     0.00027397     -0.00027659     -0.00051526
     0.00003817     -0.00002384     -0.00000261
     0.00002197      0.00000972     -0.00001953
     0.00005865     -0.00002600      0.00006182
    -0.00009811      0.00000019     -0.00000610
    -0.00000650     -0.00004048     -0.00000791
    -0.00001991     -0.00011377      0.00000257
     0.05478393      0.26173784      0.21595327
     0.00019409     -0.00003940      0.00000741
    -0.00073353      0.00029647     -0.00076832
     0.88117443      0.09812303      0.11576429
     0.11363408      0.02255885     -0.24482259
    -0.00139540      0.00028216      0.00545538
    -0.00188490      0.00304594      0.00064108
     0.00089601      0.00020247     -0.00014323
    -0.00039906      0.00024260     -0.00000992
    -0.00012109      0.00120057     -0.00065565
     0.00035687      0.00047565      0.00052294
    -0.00017552     -0.00000234     -0.00002605
     0.00008728      0.00058156      0.00038962
    -0.00000118      0.00003007     -0.00023073
    -0.00025252     -0.00012170      0.00028189
    -0.00007590      0.00022555     -0.00043047
vibration 89
     0.00010571     -0.00012837     -0.00000507
     0.00017454      0.00011287      0.00011438
    -0.00006970      0.00002030      0.00012756
    -0.00033494      0.00013145     -0.00027530
    -0.00000526     -0.00006194     -0.00008998
     0.00000771     -0.00002126     -0.00005028
     0.00008346      0.00006278      0.00015788
     0.00004976     -0.00003607      0.00004925
    -0.00004280     -0.00017056      0.00000827
     0.00004154      0.00007187     -0.00009410
    -0.00143732      0.00092896     -0.00024220
    -0.01917901     -0.00704141      0.02599095
    -0.04516754      0.03074597     -0.05703093
    -0.00508874     -0.00075532      0.00207785
     0.00039273     -0.00046154      0.00037759
    -0.00008944      0.00004280      0.00000089
     0.00027880      0.00127457      0.00096624
    -0.00024798     -0.00008251     -0.00012218
     0.50267087     -0.35883156      0.65999350
     0.00027275      0.00001048      0.00002253
     0.00047594     -0.00013631     -0.00093772
    -0.00031067      0.00007207      0.00107377
     0.00024096     -0.00062530     -0.00013249
     0.05378821      0.00745125     -0.00967717
     0.01563431     -0.00974670      0.00184623
     0.00008219     -0.00041294      0.00031781
    -0.00033618     -0.00079751     -0.00112508
     0.00096920     -0.00012914     -0.00000547
    -0.00016389      0.00142765      0.00083486
    -0.00093393      0.00106193     -0.00277337
     0.26713292      0.08021991     -0.30725012
     0.00004211      0.00036678      0.00060955
vibration 90
     0.00001079      0.00000591      0.00045070
    -0.00005884      0.00002255      0.00017472
     0.00023917      0.00013424     -0.00032186
    -0.00006902      0.00018763     -0.00015812
    -0.00001855      0.00006292      0.00023988
    -0.00004992     -0.00002048      0.00008296
     0.00003445     -0.00000936      0.00007092
    -0.00003359     -0.00007795      0.00005668
     0.00001029     -0.00002087     -0.00001113
    -0.00009416     -0.00004931      0.00005130
     0.00336369     -0.00197815      0.00244391
     0.05792821      0.01323002     -0.05877613
    -0.02771774      0.01544990     -0.02642187
    -0.00212748     -0.00020906      0.00176976
    -0.00033134     -0.00086208      0.00077854
    -0.00000186      0.00013695     -0.00000699
     0.00004472      0.00017229      0.00015606
     0.00078047      0.00007939      0.00046469
     0.23008375     -0.16241210      0.29661417
    -0.00004164     -0.00002499      0.00001812
     0.00008440     -0.00011714     -0.00005681
     0.00009095     -0.00005217     -0.00063102
    -0.00004806      0.00027462     -0.00003060
     0.01988469      0.00223958     -0.00529971
    -0.03270900      0.01890117     -0.00742931
     0.00014315     -0.00093521      0.00057438
    -0.00060966     -0.00087842     -0.00080818
     0.00055373      0.00000171      0.00000669
     0.00084393      0.00341777      0.00209322
     0.00040618      0.00122302     -0.00424354
    -0.58898838     -0.17174094      0.66754568
    -0.00036222      0.00041905     -0.00325743
[INT]
    1.673946
    1.505797
    0.847015
    1.275033
    1.036800
    0.460395
    0.054114
    0.503905
    1.334635
    3.885377
    0.086885
    7.647918
    4.724510
    1.560640
    5.984092
   18.983080
    7.393570
    3.009799
    1.283236
    0.662194
    8.158732
    4.431769
   10.071559
   42.277719
    7.456319
    0.426504
   10.188713
    8.005503
    6.739157
   14.179093
    2.169010
    3.476011
   19.979513
    4.005646
    2.796088
    3.263994
    3.083209
    1.566961
    0.169611
    5.386902
   23.727404
   38.378558
   22.162755
    7.483465
   78.782146
  174.841550
    3.453781
    1.058971
    0.165616
   28.017765
   19.196443
   16.083627
   77.218235
   81.316126
   52.161233
   15.005182
  179.179102
   50.321501
    4.966919
   18.619620
    6.604045
   10.182834
   15.004247
    7.910404
    7.253244
   10.206165
    2.727560
   12.689757
    8.027467
    2.910664
   16.035596
    2.058533
  233.846315
  271.699770
   15.169669
   36.046894
   44.819678
   33.460783
    9.188074
   30.117139
   13.879889
   27.997895
   22.926546
   18.152758
   24.457962
   14.451116
   14.831956
   13.605731
    5.598764
    7.928732

======= END OF MOLDEN-FORMATTED INPUT FILE =======


        *************************************************************
        *                                                           *
        *  Thank you very much for using Q-Chem.  Have a nice day.  *
        *                                                           *
        *************************************************************


