mFile = /opt/software/qchem/qchem-5.0.1//bin/mpi/machines
Process 0 of 1 is on vega02.cac.cornell.edu - thread support 0
initial socket setup ...start
initial socket setup ...done 
now start server 0 ... 
vega02.cac.cornell.edu 10.84.3
Q-Chem Developer Version! Running on 10.84.3.*
                  Welcome to Q-Chem
     A Quantum Leap Into The Future Of Chemistry


 Q-Chem 5.0, Q-Chem, Inc., Pleasanton, CA (2017)

 Yihan Shao,  Zhengting Gan,  E. Epifanovsky,  A. T. B. Gilbert,  M. Wormit,  
 J. Kussmann,  A. W. Lange,  A. Behn,  Jia Deng,  Xintian Feng,  D. Ghosh,  
 M. Goldey,  P. R. Horn,  L. D. Jacobson,  I. Kaliman,  T. Kus,  A. Landau,  
 Jie Liu,  E. I. Proynov,  R. M. Richard,  R. P. Steele,  E. J. Sundstrom,  
 H. L. Woodcock III,  P. M. Zimmerman,  D. Zuev,  B. Albrecht,  E. Alguire,  
 S. A. Baeppler,  Z. Benda,  Y. A. Bernard,  E. J. Berquist,  K. B. Bravaya,  
 D. Casanova,  Chun-Min Chang,  Yunqing Chen,  A. Chien,  K. D. Closser,  
 M. P. Coons,  S. Dasgupta,  M. Diedenhofen,  Hainam Do,  R. G. Edgar,  
 Po-Tung Fang,  S. Fatehi,  Qingguo Feng,  Qinghui Ge,  A. Ghysels,  
 J. Gomes,  J. Gonthier,  A. Gunina,  M. W. D. Hanson-Heine,  
 P. H. P. Harbach,  A. W. Hauser,  J. E. Herr,  E. G. Hohenstein,  
 Z. C. Holden,  Kerwin Hui,  T.-C. Jagau,  Hyunjun Ji,  B. Kaduk,  
 K. Khistyaev,  Jaehoon Kim,  P. Klunzinger,  K. Koh,  D. Kosenkov,  
 T. Kowalczyk,  C. M. Krauter,  A. Kunitsa,  Ka Un Lao,  A. Laurent,  
 K. V. Lawler,  Joonho Lee,  D. Lefrancois,  S. Lehtola,  D. S. Levine,  
 Yi-Pei Li,  You-Sheng Lin,  Fenglai Liu,  E. Livshits,  A. Luenser,  
 P. Manohar,  E. Mansoor,  S. F. Manzer,  Shan-Ping Mao,  Yuezhi Mao,  
 N. Mardirossian,  A. V. Marenich,  L. A. Martinez-Martinez,  S. A. Maurer,  
 N. J. Mayhall,  S. C. McKenzie,  J.-M. Mewes,  A. F. Morrison,  K. Nanda,  
 T. S. Nguyen-Beck,  R. Olivares-Amaya,  J. A. Parkhill,  T. M. Perrine,  
 F. Plasser,  S. Prager,  A. Prociuk,  D. R. Rehn,  F. Rob,  M. Schneider,  
 N. Sergueev,  S. M. Sharada,  S. Sharma,  D. W. Small,  T. Stauch,  
 T. Stein,  Yu-Chuan Su,  A. J. W. Thom,  T. Tsuchimochi,  L. Vogt,  
 O. Vydrov,  M. A. Watson,  J. Wenzel,  M. de Wergifosse,  T. A. Wesolowski,  
 A. White,  J. Witte,  A. Yamada,  Jun Yang,  K. Yao,  S. Yeganeh,  
 S. R. Yost,  Zhi-Qiang You,  A. Zech,  Igor Ying Zhang,  Xing Zhang,  
 Yan Zhao,  Ying Zhu,  B. R. Brooks,  G. K. L. Chan,  C. J. Cramer,  
 M. S. Gordon,  W. J. Hehre,  A. Klamt,  M. W. Schmidt,  C. D. Sherrill,  
 D. G. Truhlar,  A. Aspuru-Guzik,  R. Baer,  A. T. Bell,  N. A. Besley,  
 Jeng-Da Chai,  A. Dreuw,  B. D. Dunietz,  T. R. Furlani,  Chao-Ping Hsu,  
 Yousung Jung,  Jing Kong,  D. S. Lambrecht,  WanZhen Liang,  C. Ochsenfeld,  
 V. A. Rassolov,  L. V. Slipchenko,  J. E. Subotnik,  T. Van Voorhis,  
 J. M. Herbert,  A. I. Krylov,  P. M. W. Gill,  M. Head-Gordon

 Contributors to earlier versions of Q-Chem not listed above: 
 R. D. Adamson,  B. Austin,  J. Baker,  G. J. O. Beran,  K. Brandhorst,  
 S. T. Brown,  E. F. C. Byrd,  A. K. Chakraborty,  C.-L. Cheng,  
 Siu Hung Chien,  D. M. Chipman,  D. L. Crittenden,  H. Dachsel,  
 R. A. DiStasio Jr.,  R. J. Doerksen,  A. D. Dutoi,  L. Fusti-Molnar,  
 W. A. Goddard III,  A. Golubeva-Zadorozhnaya,  S. R. Gwaltney,  G. Hawkins,  
 A. Heyden,  S. Hirata,  G. Kedziora,  F. J. Keil,  C. Kelley,  Jihan Kim,  
 R. A. King,  R. Z. Khaliullin,  P. P. Korambath,  W. Kurlancheek,  
 A. M. Lee,  M. S. Lee,  S. V. Levchenko,  Ching Yeh Lin,  D. Liotard,  
 R. C. Lochan,  I. Lotan,  P. E. Maslen,  N. Nair,  D. P. O'Neill,  
 D. Neuhauser,  E. Neuscamman,  C. M. Oana,  R. Olson,  B. Peters,  
 R. Peverati,  P. A. Pieniazek,  Y. M. Rhee,  J. Ritchie,  M. A. Rohrdanz,  
 E. Rosta,  N. J. Russ,  H. F. Schaefer III,  N. E. Schultz,  N. Shenvi,  
 A. C. Simmonett,  A. Sodt,  D. Stuck,  K. S. Thanthiriwatte,  V. Vanovschi,  
 Tao Wang,  A. Warshel,  C. F. Williams,  Q. Wu,  X. Xu,  W. Zhang

 Please cite Q-Chem as follows:
 Y. Shao et al., Mol. Phys. 113, 184-215 (2015)
 DOI: 10.1080/00268976.2014.952696

 Q-Chem 5.0.1 for Intel X86 EM64T Linux

 Parts of Q-Chem use Armadillo 5.200.1 (Boston Tea Smuggler).
 http://arma.sourceforge.net/

 Q-Chem begins on Tue Apr 17 22:28:46 2018  

Host: vega02.cac.cornell.edu
0

     Scratch files written to /scratch/jj585/vdw/0000_distance_4.400_01.save//
 Parallel job on  1  processors

Checking the input file for inconsistencies... 	...done.

--------------------------------------------------------------
User input:
--------------------------------------------------------------
$molecule
0  1
C        +0.24598000        +2.36274000        +4.78993000
C        +0.68179000        +0.93116000        +5.23372000
C        +1.36862000        +2.71850000        +3.79092000
C        +2.67384000        +3.03140000        +4.55521000
C        +3.11204000        +1.60054000        +4.99890000
C        +1.97239000        +0.74354000        +4.40590000
O        +1.66075000        +1.44352000        +3.18455000
H        +3.41131000        +3.48314000        +3.88951000
H        +2.51265000        +3.71259000        +5.39360000
H        +4.07009000        +1.32488000        +4.55533000
H        +3.19500000        +1.49174000        +6.08258000
H        +1.09692000        +3.43318000        +3.01610000
H        +2.23380000        -0.28731000        +4.17392000
H        +0.85898000        +0.84848000        +6.30825000
H        -0.06398000        +0.18476000        +4.95456000
H        -0.72262000        +2.34352000        +4.28759000
H        +0.18603000        +3.07138000        +5.61854000
@C        +0.20238000        +1.04766000        +0.59128000
@C        +0.63819000        -0.38392000        +1.03507000
@C        +1.32502000        +1.40342000        -0.40773000
@C        +2.63024000        +1.71632000        +0.35656000
@C        +3.06844000        +0.28546000        +0.80025000
@C        +1.92879000        -0.57154000        +0.20725000
@O        +1.61715000        +0.12844000        -1.01410000
@H        +3.36771000        +2.16806000        -0.30914000
@H        +2.46905000        +2.39751000        +1.19495000
@H        +4.02649000        +0.00980000        +0.35668000
@H        +3.15140000        +0.17666000        +1.88393000
@H        +1.05332000        +2.11810000        -1.18255000
@H        +2.19020000        -1.60239000        -0.02473000
@H        +0.81538000        -0.46660000        +2.10960000
@H        -0.10758000        -1.13032000        +0.75591000
@H        -0.76622000        +1.02844000        +0.08894000
@H        +0.14243000        +1.75630000        +1.41989000
$end

$rem
JOBTYPE                   SP
METHOD                    B3LYP
DFT_D                     d3_op
BASIS                     6-311++G(d,p)
SYMMETRY                  False
THRESH                    12
SCF_CONVERGENCE           8
MAX_SUB_FILE_NUM          128
MEM_STATIC                400
MEM_TOTAL                 4000
$end
--------------------------------------------------------------
 Adding empirical dispersion correction 
 ----------------------------------------------------------------
 Doing -D3(op) with
 s6 =   1.00000
 s8 =   0.78311
 a1 =   0.30000
 a2 =   4.25000
 n  =  10.00000
 -D3 energy without 3body term =     -0.0133729297 hartrees
 ----------------------------------------------------------------
             Standard Nuclear Orientation (Angstroms)
    I     Atom           X                Y                Z
 ----------------------------------------------------------------
    1      C       0.2459800000     2.3627400000     4.7899300000
    2      C       0.6817900000     0.9311600000     5.2337200000
    3      C       1.3686200000     2.7185000000     3.7909200000
    4      C       2.6738400000     3.0314000000     4.5552100000
    5      C       3.1120400000     1.6005400000     4.9989000000
    6      C       1.9723900000     0.7435400000     4.4059000000
    7      O       1.6607500000     1.4435200000     3.1845500000
    8      H       3.4113100000     3.4831400000     3.8895100000
    9      H       2.5126500000     3.7125900000     5.3936000000
   10      H       4.0700900000     1.3248800000     4.5553300000
   11      H       3.1950000000     1.4917400000     6.0825800000
   12      H       1.0969200000     3.4331800000     3.0161000000
   13      H       2.2338000000    -0.2873100000     4.1739200000
   14      H       0.8589800000     0.8484800000     6.3082500000
   15      H      -0.0639800000     0.1847600000     4.9545600000
   16      H      -0.7226200000     2.3435200000     4.2875900000
   17      H       0.1860300000     3.0713800000     5.6185400000
   18      GH      0.2023800000     1.0476600000     0.5912800000
   19      GH      0.6381900000    -0.3839200000     1.0350700000
   20      GH      1.3250200000     1.4034200000    -0.4077300000
   21      GH      2.6302400000     1.7163200000     0.3565600000
   22      GH      3.0684400000     0.2854600000     0.8002500000
   23      GH      1.9287900000    -0.5715400000     0.2072500000
   24      GH      1.6171500000     0.1284400000    -1.0141000000
   25      GH      3.3677100000     2.1680600000    -0.3091400000
   26      GH      2.4690500000     2.3975100000     1.1949500000
   27      GH      4.0264900000     0.0098000000     0.3566800000
   28      GH      3.1514000000     0.1766600000     1.8839300000
   29      GH      1.0533200000     2.1181000000    -1.1825500000
   30      GH      2.1902000000    -1.6023900000    -0.0247300000
   31      GH      0.8153800000    -0.4666000000     2.1096000000
   32      GH     -0.1075800000    -1.1303200000     0.7559100000
   33      GH     -0.7662200000     1.0284400000     0.0889400000
   34      GH      0.1424300000     1.7563000000     1.4198900000
 ----------------------------------------------------------------
 Nuclear Repulsion Energy =   331.2676235907 hartrees
 There are       27 alpha and       27 beta electrons
 Requested basis set is 6-311++G(d,p)
 There are 184 shells and 448 basis functions

 Total QAlloc Memory Limit   4000 MB
 Mega-Array Size       392 MB
 MEM_STATIC part       400 MB
 A cutoff of  1.0D-12 yielded  14692 shell pairs
 There are     87002 function pairs (     92256 Cartesian)
 
 -------------------------------------------------------
 OpenMP Integral Computing Module                       
 Release: version 1.0, May 2013, Q-Chem Inc. Pittsburgh 
 -------------------------------------------------------
 Integral Job Info:
 Integral job number is                      11
 Integral operator is                         1
 short-range coefficients                     0
 long-range coefficients              100000000
 Omega coefficients                           0
 if combine SR and LR in K                    0
 Integral screening is                        0
 Integral computing path is                   2
 max size of driver memory is            800000
 size of driver memory is                593474
 size of scratch memory is              2361544
 max col of scratch BK array               1296
 max len of scratch array in speh3          155
 max len of scratch index in speh4           18
 max int batch size is                      520
 min int batch size is                       52
 fixed nKL is                                52
 max L of basis functions is                  2
 order of int derivative is                   0
 number of shells is                        184
 number of basis is                         462
 number of cartesian basis is               462
 number of contracted shell pairs         14692
 number of primitive shell pairs          31732
 maxK2 (contraction) of shell pair           36
 max number of K2 of shell pair               1
 max number of CS2 of shell pair           2604
 max number of PS2 of shell pair           4584
 mem total for path MDJ                  123960
 -------------------------------------------------------
 Smallest overlap matrix eigenvalue = 1.01E-06

 Scale SEOQF with 1.000000e-01/1.000000e-01/1.000000e-02

 Standard Electronic Orientation quadrupole field applied
 Nucleus-field energy     =     0.0000000123 hartrees
 Guess from superposition of atomic densities
 Warning:  Energy on first SCF cycle will be non-variational

 Q-Chem warning in module /opt/software/qchem/qchem-5.0.1/libgen/Atomic_PolEc.C, line 58:

 No atomic polarizability available.


 Q-Chem warning in module /opt/software/qchem/qchem-5.0.1/libgen/Atomic_PolEc.C, line 73:

 No atomic polarizability available.


 Q-Chem warning in module /opt/software/qchem/qchem-5.0.1/libgen/Atomic_PolEc.C, line 58:

 No atomic polarizability available.


 Q-Chem warning in module /opt/software/qchem/qchem-5.0.1/libgen/Atomic_PolEc.C, line 73:

 No atomic polarizability available.


 Q-Chem warning in module /opt/software/qchem/qchem-5.0.1/libgen/Atomic_PolEc.C, line 58:

 No atomic polarizability available.


 Q-Chem warning in module /opt/software/qchem/qchem-5.0.1/libgen/Atomic_PolEc.C, line 73:

 No atomic polarizability available.


 Q-Chem warning in module /opt/software/qchem/qchem-5.0.1/libgen/Atomic_PolEc.C, line 58:

 No atomic polarizability available.


 Q-Chem warning in module /opt/software/qchem/qchem-5.0.1/libgen/Atomic_PolEc.C, line 73:

 No atomic polarizability available.


 Q-Chem warning in module /opt/software/qchem/qchem-5.0.1/libgen/Atomic_PolEc.C, line 58:

 No atomic polarizability available.


 Q-Chem warning in module /opt/software/qchem/qchem-5.0.1/libgen/Atomic_PolEc.C, line 73:

 No atomic polarizability available.


 Q-Chem warning in module /opt/software/qchem/qchem-5.0.1/libgen/Atomic_PolEc.C, line 58:

 No atomic polarizability available.


 Q-Chem warning in module /opt/software/qchem/qchem-5.0.1/libgen/Atomic_PolEc.C, line 73:

 No atomic polarizability available.


 Q-Chem warning in module /opt/software/qchem/qchem-5.0.1/libgen/Atomic_PolEc.C, line 58:

 No atomic polarizability available.


 Q-Chem warning in module /opt/software/qchem/qchem-5.0.1/libgen/Atomic_PolEc.C, line 73:

 No atomic polarizability available.


 Q-Chem warning in module /opt/software/qchem/qchem-5.0.1/libgen/Atomic_PolEc.C, line 58:

 No atomic polarizability available.


 Q-Chem warning in module /opt/software/qchem/qchem-5.0.1/libgen/Atomic_PolEc.C, line 73:

 No atomic polarizability available.


 Q-Chem warning in module /opt/software/qchem/qchem-5.0.1/libgen/Atomic_PolEc.C, line 58:

 No atomic polarizability available.


 Q-Chem warning in module /opt/software/qchem/qchem-5.0.1/libgen/Atomic_PolEc.C, line 73:

 No atomic polarizability available.


 Q-Chem warning in module /opt/software/qchem/qchem-5.0.1/libgen/Atomic_PolEc.C, line 58:

 No atomic polarizability available.


 Q-Chem warning in module /opt/software/qchem/qchem-5.0.1/libgen/Atomic_PolEc.C, line 73:

 No atomic polarizability available.


 Q-Chem warning in module /opt/software/qchem/qchem-5.0.1/libgen/Atomic_PolEc.C, line 58:

 No atomic polarizability available.


 Q-Chem warning in module /opt/software/qchem/qchem-5.0.1/libgen/Atomic_PolEc.C, line 73:

 No atomic polarizability available.


 Q-Chem warning in module /opt/software/qchem/qchem-5.0.1/libgen/Atomic_PolEc.C, line 58:

 No atomic polarizability available.


 Q-Chem warning in module /opt/software/qchem/qchem-5.0.1/libgen/Atomic_PolEc.C, line 73:

 No atomic polarizability available.


 Q-Chem warning in module /opt/software/qchem/qchem-5.0.1/libgen/Atomic_PolEc.C, line 58:

 No atomic polarizability available.


 Q-Chem warning in module /opt/software/qchem/qchem-5.0.1/libgen/Atomic_PolEc.C, line 73:

 No atomic polarizability available.


 Q-Chem warning in module /opt/software/qchem/qchem-5.0.1/libgen/Atomic_PolEc.C, line 58:

 No atomic polarizability available.


 Q-Chem warning in module /opt/software/qchem/qchem-5.0.1/libgen/Atomic_PolEc.C, line 73:

 No atomic polarizability available.


 Q-Chem warning in module /opt/software/qchem/qchem-5.0.1/libgen/Atomic_PolEc.C, line 58:

 No atomic polarizability available.


 Q-Chem warning in module /opt/software/qchem/qchem-5.0.1/libgen/Atomic_PolEc.C, line 73:

 No atomic polarizability available.


 Q-Chem warning in module /opt/software/qchem/qchem-5.0.1/libgen/Atomic_PolEc.C, line 58:

 No atomic polarizability available.


 Q-Chem warning in module /opt/software/qchem/qchem-5.0.1/libgen/Atomic_PolEc.C, line 73:

 No atomic polarizability available.


 Q-Chem warning in module /opt/software/qchem/qchem-5.0.1/libgen/Atomic_PolEc.C, line 58:

 No atomic polarizability available.


 Q-Chem warning in module /opt/software/qchem/qchem-5.0.1/libgen/Atomic_PolEc.C, line 73:

 No atomic polarizability available.

 A restricted hybrid HF-DFT SCF calculation will be
 performed using Pulay DIIS extrapolation
 Exchange:     0.2000 Hartree-Fock + 0.0800 Slater + 0.7200 B88
 Correlation:  0.1900 VWN1RPA + 0.8100 LYP
 Using SG-1 standard quadrature grid
 Dispersion:   Grimme D3
 SCF converges when DIIS error is below 1.0E-08
 using 4 threads for integral computing
 -------------------------------------------------------
 OpenMP Integral computing Module                
 Release: version 1.0, May 2013, Q-Chem Inc. Pittsburgh 
 -------------------------------------------------------
 -------------------------------------------------------
 OpenMP BLAS3 based DFT computing Module                
 Release: version 1.0, May 2013, Q-Chem Inc. Pittsburgh 
 -------------------------------------------------------
 ---------------------------------------
  Cycle       Energy         DIIS Error
 ---------------------------------------
    1    -311.3833878221      2.05E-02
    2    -309.8280833625      2.34E-03
    3    -309.7404761048      3.07E-03
    4    -309.9656331306      3.95E-04
    5    -309.9679703359      1.81E-04
    6    -309.9685560124      4.86E-05
    7    -309.9685954069      1.52E-05
    8    -309.9686003859      1.54E-06
    9    -309.9686004452      3.92E-07
   10    -309.9686004494      5.69E-08
   11    -309.9686004495      9.70E-09 Convergence criterion met
 ---------------------------------------
 SCF time:  CPU 478.39 s  wall 120.13 s
 SCF   energy in the final basis set = -309.96860045
 Total energy in the final basis set = -309.96860045
 
 --------------------------------------------------------------
 
                    Orbital Energies (a.u.)
 --------------------------------------------------------------
 
 Alpha MOs
 -- Occupied --
-19.118 -10.219 -10.219 -10.170 -10.170 -10.170 -10.170  -1.046
 -0.798  -0.751  -0.746  -0.612  -0.572  -0.571  -0.524  -0.478
 -0.468  -0.418  -0.408  -0.389  -0.367  -0.361  -0.348  -0.342
 -0.323  -0.306  -0.263
 -- Virtual --
 -0.011   0.008   0.009   0.012   0.029   0.032   0.032   0.032
  0.035   0.048   0.056   0.058   0.064   0.068   0.070   0.084
  0.086   0.087   0.089   0.092   0.100   0.102   0.104   0.112
  0.112   0.118   0.129   0.130   0.132   0.133   0.134   0.138
  0.140   0.141   0.147   0.152   0.153   0.155   0.158   0.162
  0.163   0.174   0.177   0.177   0.179   0.181   0.183   0.188
  0.190   0.195   0.199   0.203   0.206   0.208   0.209   0.215
  0.219   0.223   0.228   0.229   0.240   0.240   0.242   0.246
  0.251   0.254   0.262   0.270   0.271   0.271   0.279   0.281
  0.283   0.284   0.293   0.294   0.306   0.320   0.326   0.340
  0.340   0.347   0.356   0.363   0.364   0.369   0.371   0.383
  0.387   0.393   0.394   0.399   0.405   0.417   0.424   0.433
  0.435   0.437   0.445   0.446   0.453   0.455   0.473   0.490
  0.502   0.514   0.526   0.538   0.547   0.551   0.552   0.558
  0.566   0.567   0.575   0.577   0.598   0.619   0.622   0.630
  0.633   0.655   0.656   0.660   0.670   0.675   0.681   0.682
  0.691   0.699   0.709   0.728   0.729   0.740   0.741   0.750
  0.751   0.761   0.769   0.769   0.777   0.783   0.788   0.790
  0.795   0.800   0.801   0.825   0.831   0.832   0.864   0.873
  0.881   0.924   0.925   0.928   0.930   0.954   0.982   0.986
  1.008   1.044   1.051   1.066   1.093   1.110   1.139   1.155
  1.160   1.166   1.171   1.204   1.210   1.222   1.241   1.253
  1.254   1.313   1.316   1.323   1.343   1.344   1.375   1.432
  1.442   1.455   1.469   1.488   1.499   1.517   1.521   1.528
  1.541   1.554   1.562   1.566   1.598   1.611   1.615   1.621
  1.635   1.648   1.662   1.677   1.682   1.697   1.707   1.713
  1.714   1.731   1.752   1.761   1.766   1.767   1.786   1.801
  1.812   1.822   1.828   1.832   1.834   1.854   1.864   1.864
  1.876   1.896   1.897   1.903   1.921   1.923   1.937   1.947
  1.956   1.965   1.970   1.989   1.994   1.995   2.010   2.032
  2.033   2.035   2.053   2.080   2.093   2.142   2.149   2.158
  2.159   2.164   2.172   2.192   2.193   2.243   2.245   2.252
  2.274   2.283   2.304   2.311   2.337   2.342   2.361   2.407
  2.421   2.422   2.434   2.452   2.462   2.474   2.475   2.477
  2.491   2.496   2.504   2.515   2.515   2.529   2.536   2.547
  2.552   2.588   2.620   2.627   2.634   2.644   2.690   2.690
  2.714   2.719   2.737   2.759   2.764   2.766   2.771   2.799
  2.822   2.838   2.850   2.858   2.869   2.879   2.895   2.902
  2.928   2.930   2.962   2.997   2.999   3.006   3.014   3.036
  3.051   3.052   3.058   3.085   3.123   3.139   3.143   3.163
  3.189   3.196   3.231   3.240   3.259   3.291   3.305   3.308
  3.322   3.391   3.399   3.423   3.457   3.506   3.525   3.555
  3.578   3.615   3.643   3.659   3.687   3.695   3.723   3.778
  3.803   3.815   3.848   3.875   3.887   3.957   3.969   4.024
  4.027   4.064   4.124   4.126   4.129   4.164   4.257   4.359
  4.466   4.613   4.652   4.771   4.784   4.829   4.848   4.873
  4.876   4.905   4.937   5.078   5.083   5.107   5.218   5.342
  5.596   5.610   5.712   7.314   7.419   7.486   7.541   7.642
  7.661   7.680   7.834   7.920   7.973   7.989   8.010   8.170
  8.276   8.366   8.431   8.677   8.684   9.904   9.939   9.987
 10.014  10.022  10.177  13.603  13.912  13.996  18.585  23.843
 23.853  23.944  23.959  23.977  24.074  49.983  69.759  69.844
 69.868  69.879  69.944  70.104 139.647
 --------------------------------------------------------------
 
          Ground-State Mulliken Net Atomic Charges

     Atom                 Charge (a.u.)
  ----------------------------------------
      1 C                    -0.483031
      2 C                    -0.489528
      3 C                     0.202861
      4 C                    -0.486149
      5 C                    -0.487373
      6 C                     0.207541
      7 O                     0.095263
      8 H                     0.157925
      9 H                     0.130976
     10 H                     0.157531
     11 H                     0.130770
     12 H                     0.197438
     13 H                     0.197572
     14 H                     0.130745
     15 H                     0.157920
     16 H                     0.157303
     17 H                     0.130746
     18 GH                   -0.033259
     19 GH                   -0.037377
     20 GH                    0.071734
     21 GH                   -0.033219
     22 GH                   -0.037336
     23 GH                    0.074489
     24 GH                   -0.001344
     25 GH                   -0.005353
     26 GH                   -0.025666
     27 GH                   -0.005383
     28 GH                   -0.024874
     29 GH                    0.005009
     30 GH                    0.004935
     31 GH                   -0.024781
     32 GH                   -0.005369
     33 GH                   -0.005344
     34 GH                   -0.025371
  ----------------------------------------
  Sum of atomic charges =     0.000000

 -----------------------------------------------------------------
                    Cartesian Multipole Moments
 -----------------------------------------------------------------
    Charge (ESU x 10^10)
                 0.0000
    Dipole Moment (Debye)
         X       0.0201      Y       0.5262      Z       1.6711
       Tot       1.7521
    Quadrupole Moments (Debye-Ang)
        XX     -43.1122     XY       0.3371     YY     -39.8972
        XZ       3.0257     YZ       3.7087     ZZ     -31.8888
    Octopole Moments (Debye-Ang^2)
       XXX    -216.7633    XXY     -81.1110    XYY     -68.6778
       YYY    -230.0364    XXZ    -190.6931    XYZ       4.4003
       YYZ    -181.5446    XZZ     -51.8515    YZZ     -59.6666
       ZZZ    -522.8380
    Hexadecapole Moments (Debye-Ang^3)
      XXXX   -1076.4089   XXXY    -416.4280   XXYY    -374.5857
      XYYY    -401.2712   YYYY   -1143.5397   XXXZ    -972.2294
      XXYZ    -358.6751   XYYZ    -310.1527   YYYZ   -1032.7994
      XXZZ   -1069.3376   XYZZ    -110.5060   YYZZ   -1047.6958
      XZZZ    -860.6588   YZZZ    -958.6383   ZZZZ   -5133.2642
 -----------------------------------------------------------------
Archival summary:
1\1\vega02.cac.cornell.edu\SP\ProcedureUnspecified\BasisUnspecified\1610h17\jj585\TueApr1722:30:472018TueApr1722:30:472018\0\\#,ProcedureUnspecified,BasisUnspecified,\\0,1\O\C,1,1.44173\H,2,1.08855,1,109.379\C,1,1.4418,2,96.7107,3,179.971,0\H,4,1.08849,1,109.339,2,-179.996,0\C,4,1.54431,1,102.437,2,-57.0227,0\H,6,1.09115,4,110.589,1,-83.2363,0\H,6,1.09228,4,112.441,1,155.758,0\C,2,1.54431,1,102.454,3,123.009,0\H,9,1.09128,2,110.579,1,-83.396,0\H,9,1.09195,2,112.414,1,155.582,0\C,2,1.54455,1,102.477,3,-123.013,0\H,12,1.09137,2,110.674,1,83.4826,0\H,12,1.0922,2,112.425,1,-155.592,0\C,4,1.54471,1,102.381,2,57.0829,0\H,15,1.09143,4,110.534,1,83.2474,0\H,15,1.09218,4,112.489,1,-155.81,0\Gh,1,2.34886,2,93.8554,3,-31.1105,0\Gh,18,1.09195,1,116.628,2,168.512,0\Gh,19,1.09128,18,108.18,1,156.25,0\Gh,19,1.54431,18,112.414,1,-81.3618,0\Gh,21,1.08855,19,115.484,18,-85.6221,0\Gh,21,1.44173,19,102.454,18,155.582,0\Gh,23,1.4418,21,96.7107,19,-57.0198,0\Gh,24,1.08849,23,109.339,21,-179.996,0\Gh,24,1.54431,23,102.437,21,-57.0227,0\Gh,26,1.09115,24,110.589,23,-83.2363,0\Gh,26,1.09228,24,112.441,23,155.758,0\Gh,21,1.54455,19,109.93,18,47.1957,0\Gh,29,1.09137,21,110.674,19,-168.147,0\Gh,29,1.0922,21,112.425,19,-47.2213,0\Gh,24,1.54471,23,102.381,21,57.0829,0\Gh,32,1.09143,24,110.534,23,83.2474,0\Gh,32,1.09218,24,112.489,23,-155.81,0\\\@

 Total job time:  120.82s(wall), 480.53s(cpu) 
 Tue Apr 17 22:30:47 2018

        *************************************************************
        *                                                           *
        *  Thank you very much for using Q-Chem.  Have a nice day.  *
        *                                                           *
        *************************************************************


0 sent ACK to 0 
now end server 0 ... 
