mFile = /opt/software/qchem/qchem-5.0.1//bin/mpi/machines
Process 0 of 1 is on vega03.cac.cornell.edu - thread support 0
initial socket setup ...start
initial socket setup ...done 
now start server 0 ... 
vega03 10.84.3
Q-Chem Developer Version! Running on 10.84.3.*
                  Welcome to Q-Chem
     A Quantum Leap Into The Future Of Chemistry


 Q-Chem 5.0, Q-Chem, Inc., Pleasanton, CA (2017)

 Yihan Shao,  Zhengting Gan,  E. Epifanovsky,  A. T. B. Gilbert,  M. Wormit,  
 J. Kussmann,  A. W. Lange,  A. Behn,  Jia Deng,  Xintian Feng,  D. Ghosh,  
 M. Goldey,  P. R. Horn,  L. D. Jacobson,  I. Kaliman,  T. Kus,  A. Landau,  
 Jie Liu,  E. I. Proynov,  R. M. Richard,  R. P. Steele,  E. J. Sundstrom,  
 H. L. Woodcock III,  P. M. Zimmerman,  D. Zuev,  B. Albrecht,  E. Alguire,  
 S. A. Baeppler,  Z. Benda,  Y. A. Bernard,  E. J. Berquist,  K. B. Bravaya,  
 D. Casanova,  Chun-Min Chang,  Yunqing Chen,  A. Chien,  K. D. Closser,  
 M. P. Coons,  S. Dasgupta,  M. Diedenhofen,  Hainam Do,  R. G. Edgar,  
 Po-Tung Fang,  S. Fatehi,  Qingguo Feng,  Qinghui Ge,  A. Ghysels,  
 J. Gomes,  J. Gonthier,  A. Gunina,  M. W. D. Hanson-Heine,  
 P. H. P. Harbach,  A. W. Hauser,  J. E. Herr,  E. G. Hohenstein,  
 Z. C. Holden,  Kerwin Hui,  T.-C. Jagau,  Hyunjun Ji,  B. Kaduk,  
 K. Khistyaev,  Jaehoon Kim,  P. Klunzinger,  K. Koh,  D. Kosenkov,  
 T. Kowalczyk,  C. M. Krauter,  A. Kunitsa,  Ka Un Lao,  A. Laurent,  
 K. V. Lawler,  Joonho Lee,  D. Lefrancois,  S. Lehtola,  D. S. Levine,  
 Yi-Pei Li,  You-Sheng Lin,  Fenglai Liu,  E. Livshits,  A. Luenser,  
 P. Manohar,  E. Mansoor,  S. F. Manzer,  Shan-Ping Mao,  Yuezhi Mao,  
 N. Mardirossian,  A. V. Marenich,  L. A. Martinez-Martinez,  S. A. Maurer,  
 N. J. Mayhall,  S. C. McKenzie,  J.-M. Mewes,  A. F. Morrison,  K. Nanda,  
 T. S. Nguyen-Beck,  R. Olivares-Amaya,  J. A. Parkhill,  T. M. Perrine,  
 F. Plasser,  S. Prager,  A. Prociuk,  D. R. Rehn,  F. Rob,  M. Schneider,  
 N. Sergueev,  S. M. Sharada,  S. Sharma,  D. W. Small,  T. Stauch,  
 T. Stein,  Yu-Chuan Su,  A. J. W. Thom,  T. Tsuchimochi,  L. Vogt,  
 O. Vydrov,  M. A. Watson,  J. Wenzel,  M. de Wergifosse,  T. A. Wesolowski,  
 A. White,  J. Witte,  A. Yamada,  Jun Yang,  K. Yao,  S. Yeganeh,  
 S. R. Yost,  Zhi-Qiang You,  A. Zech,  Igor Ying Zhang,  Xing Zhang,  
 Yan Zhao,  Ying Zhu,  B. R. Brooks,  G. K. L. Chan,  C. J. Cramer,  
 M. S. Gordon,  W. J. Hehre,  A. Klamt,  M. W. Schmidt,  C. D. Sherrill,  
 D. G. Truhlar,  A. Aspuru-Guzik,  R. Baer,  A. T. Bell,  N. A. Besley,  
 Jeng-Da Chai,  A. Dreuw,  B. D. Dunietz,  T. R. Furlani,  Chao-Ping Hsu,  
 Yousung Jung,  Jing Kong,  D. S. Lambrecht,  WanZhen Liang,  C. Ochsenfeld,  
 V. A. Rassolov,  L. V. Slipchenko,  J. E. Subotnik,  T. Van Voorhis,  
 J. M. Herbert,  A. I. Krylov,  P. M. W. Gill,  M. Head-Gordon

 Contributors to earlier versions of Q-Chem not listed above: 
 R. D. Adamson,  B. Austin,  J. Baker,  G. J. O. Beran,  K. Brandhorst,  
 S. T. Brown,  E. F. C. Byrd,  A. K. Chakraborty,  C.-L. Cheng,  
 Siu Hung Chien,  D. M. Chipman,  D. L. Crittenden,  H. Dachsel,  
 R. A. DiStasio Jr.,  R. J. Doerksen,  A. D. Dutoi,  L. Fusti-Molnar,  
 W. A. Goddard III,  A. Golubeva-Zadorozhnaya,  S. R. Gwaltney,  G. Hawkins,  
 A. Heyden,  S. Hirata,  G. Kedziora,  F. J. Keil,  C. Kelley,  Jihan Kim,  
 R. A. King,  R. Z. Khaliullin,  P. P. Korambath,  W. Kurlancheek,  
 A. M. Lee,  M. S. Lee,  S. V. Levchenko,  Ching Yeh Lin,  D. Liotard,  
 R. C. Lochan,  I. Lotan,  P. E. Maslen,  N. Nair,  D. P. O'Neill,  
 D. Neuhauser,  E. Neuscamman,  C. M. Oana,  R. Olson,  B. Peters,  
 R. Peverati,  P. A. Pieniazek,  Y. M. Rhee,  J. Ritchie,  M. A. Rohrdanz,  
 E. Rosta,  N. J. Russ,  H. F. Schaefer III,  N. E. Schultz,  N. Shenvi,  
 A. C. Simmonett,  A. Sodt,  D. Stuck,  K. S. Thanthiriwatte,  V. Vanovschi,  
 Tao Wang,  A. Warshel,  C. F. Williams,  Q. Wu,  X. Xu,  W. Zhang

 Please cite Q-Chem as follows:
 Y. Shao et al., Mol. Phys. 113, 184-215 (2015)
 DOI: 10.1080/00268976.2014.952696

 Q-Chem 5.0.1 for Intel X86 EM64T Linux

 Parts of Q-Chem use Armadillo 5.200.1 (Boston Tea Smuggler).
 http://arma.sourceforge.net/

 Q-Chem begins on Tue Apr 17 00:09:29 2018  

Host: vega03.cac.cornell.edu
0

     Scratch files written to /scratch/jj585/vdw/0110_distance_4.400_11.save//
 Parallel job on  1  processors

Checking the input file for inconsistencies... 	...done.

--------------------------------------------------------------
User input:
--------------------------------------------------------------
$molecule
0  1
--
0  1
C        +0.22270000        +1.04488000        +0.58595000
C        +0.62626000        -0.41353000        +0.99871000
C        +1.33008000        +1.39974000        -0.43491000
C        +2.63070000        +1.71700000        +0.32855000
C        +3.04336000        +0.29351000        +0.80300000
C        +1.94423000        -0.59299000        +0.15262000
O        +1.62840000        +0.13663000        -1.04376000
H        +3.37234000        +2.13782000        -0.35195000
H        +2.48236000        +2.42488000        +1.14651000
H        +4.02182000        +0.00994000        +0.41161000
H        +3.07359000        +0.18738000        +1.88928000
C        +0.90028000        +2.39077000        -1.49430000
C        +2.35450000        -2.01267000        -0.16812000
H        +3.26311000        -2.00678000        -0.77366000
H        +2.54990000        -2.57059000        +0.75079000
H        +1.57335000        -2.52896000        -0.72872000
H        +1.71845000        +2.58186000        -2.15686000
H        +0.59919000        +3.30478000        -1.02650000
H        +0.07925000        +1.98653000        -2.04874000
H        +0.81693000        -0.48905000        +2.04887000
H        -0.12524000        -1.15356000        +0.81843000
H        -0.74673000        +1.06811000        +0.13365000
H        +0.15552000        +1.72617000        +1.40828000
--
0  1
C        +3.52522000        +2.81006000        +2.89625000
C        +3.92878000        +1.35165000        +3.30901000
C        +4.63260000        +3.16492000        +1.87539000
C        +5.93322000        +3.48218000        +2.63885000
C        +6.34588000        +2.05869000        +3.11330000
C        +5.24675000        +1.17219000        +2.46292000
O        +4.93092000        +1.90181000        +1.26654000
H        +6.67486000        +3.90300000        +1.95835000
H        +5.78488000        +4.19006000        +3.45681000
H        +7.32434000        +1.77512000        +2.72191000
H        +6.37611000        +1.95256000        +4.19958000
C        +4.20280000        +4.15595000        +0.81600000
C        +5.65702000        -0.24749000        +2.14218000
H        +6.56563000        -0.24160000        +1.53664000
H        +5.85242000        -0.80541000        +3.06109000
H        +4.87587000        -0.76378000        +1.58158000
H        +5.02097000        +4.34704000        +0.15344000
H        +3.90171000        +5.06996000        +1.28380000
H        +3.38177000        +3.75171000        +0.26156000
H        +4.11945000        +1.27613000        +4.35917000
H        +3.17728000        +0.61162000        +3.12873000
H        +2.55579000        +2.83329000        +2.44395000
H        +3.45804000        +3.49135000        +3.71858000
$end

$rem
JOBTYPE                   SP
METHOD                    B3LYP
DFT_D                     d3_op
BASIS                     6-311++G(d,p)
SYMMETRY                  False
THRESH                    12
SCF_CONVERGENCE           8
MAX_SUB_FILE_NUM          128
MEM_STATIC                400
MEM_TOTAL                 4000
$end
--------------------------------------------------------------
 Adding empirical dispersion correction 
 ----------------------------------------------------------------
 Doing -D3(op) with
 s6 =   1.00000
 s8 =   0.78311
 a1 =   0.30000
 a2 =   4.25000
 n  =  10.00000
 -D3 energy without 3body term =     -0.0601354888 hartrees
 ----------------------------------------------------------------
             Standard Nuclear Orientation (Angstroms)
    I     Atom           X                Y                Z
 ----------------------------------------------------------------
    1      C       2.7163738627    -0.8061372824     1.3032521531
    2      C       2.7821922211     0.7607971976     1.3272416969
    3      C       2.2499495350    -1.0783383771    -0.1468258221
    4      C       0.7431596390    -0.7726273683    -0.2529505224
    5      C       0.7566745540     0.7818756336    -0.1818687217
    6      C       2.2800812993     1.0878060864    -0.1308628637
    7      O       2.8377904700     0.0003594602    -0.8857399090
    8      H       0.3558788270    -1.1216110802    -1.2112946952
    9      H       0.1567158830    -1.2417198698     0.5396359762
   10      H       0.3235631589     1.2266401154    -1.0794104331
   11      H       0.2232343028     1.1837700657     0.6819044152
   12      C       2.7202191572    -2.4016220363    -0.7098022984
   13      C       2.6986036953     2.4215844394    -0.7075440859
   14      H       2.3119153573     2.5224019784    -1.7237101496
   15      H       2.3052079535     3.2404769426    -0.1004968613
   16      H       3.7858483973     2.5081696024    -0.7452934456
   17      H       2.3573880471    -2.5127330817    -1.7102578006
   18      H       2.3459431263    -3.2002008809    -0.1039181595
   19      H       3.7898957562    -2.4277601025    -0.7133698231
   20      H       2.1326054226     1.1727232313     2.0710483108
   21      H       3.7427884570     1.1644626651     1.5705657425
   22      H       3.6761527877    -1.2397840999     1.4921550403
   23      H       2.0764858817    -1.2255008884     2.0512985308
   24      C      -1.6827538773    -0.8064869977     1.3907728791
   25      C      -1.6169355190     0.7604474823     1.4147624229
   26      C      -2.1491782050    -1.0786880924    -0.0593050961
   27      C      -3.6559681010    -0.7729770836    -0.1654297964
   28      C      -3.6424531860     0.7815259183    -0.0943479957
   29      C      -2.1190464407     1.0874563711    -0.0433421377
   30      O      -1.5613372700     0.0000097449    -0.7982191830
   31      H      -4.0432489130    -1.1219607955    -1.1237739692
   32      H      -4.2424118570    -1.2420695851     0.6271567022
   33      H      -4.0755645811     1.2262904001    -0.9918897071
   34      H      -4.1758934373     1.1834203504     0.7694251412
   35      C      -1.6789085828    -2.4019717516    -0.6222815724
   36      C      -1.7005240447     2.4212347241    -0.6200233599
   37      H      -2.0872123827     2.5220522631    -1.6361894236
   38      H      -2.0939197865     3.2401272273    -0.0129761353
   39      H      -0.6132793427     2.5078198871    -0.6577727196
   40      H      -2.0417396929    -2.5130827970    -1.6227370746
   41      H      -2.0531846137    -3.2005505962    -0.0163974335
   42      H      -0.6092319839    -2.4281098178    -0.6258490971
   43      H      -2.2665223175     1.1723735160     2.1585690368
   44      H      -0.6563392830     1.1641129498     1.6580864685
   45      H      -0.7229749524    -1.2401338152     1.5796757663
   46      H      -2.3226418583    -1.2258506037     2.1388192568
 ----------------------------------------------------------------
 Molecular Point Group                 C1    NOp =  1
 Largest Abelian Subgroup              C1    NOp =  1
 Nuclear Repulsion Energy =  1567.6765349050 hartrees
 There are       70 alpha and       70 beta electrons
 Requested basis set is 6-311++G(d,p)
 There are 248 shells and 592 basis functions

 Total QAlloc Memory Limit   4000 MB
 Mega-Array Size       392 MB
 MEM_STATIC part       400 MB
 A cutoff of  1.0D-12 yielded  25941 shell pairs
 There are    147134 function pairs (    155687 Cartesian)
 
 -------------------------------------------------------
 OpenMP Integral Computing Module                       
 Release: version 1.0, May 2013, Q-Chem Inc. Pittsburgh 
 -------------------------------------------------------
 Integral Job Info:
 Integral job number is                      11
 Integral operator is                         1
 short-range coefficients                     0
 long-range coefficients              100000000
 Omega coefficients                           0
 if combine SR and LR in K                    0
 Integral screening is                        0
 Integral computing path is                   2
 max size of driver memory is            800000
 size of driver memory is                593474
 size of scratch memory is              2361544
 max col of scratch BK array               1296
 max len of scratch array in speh3          155
 max len of scratch index in speh4           18
 max int batch size is                      520
 min int batch size is                       52
 fixed nKL is                                52
 max L of basis functions is                  2
 order of int derivative is                   0
 number of shells is                        248
 number of basis is                         610
 number of cartesian basis is               610
 number of contracted shell pairs         25941
 number of primitive shell pairs          54092
 maxK2 (contraction) of shell pair           36
 max number of K2 of shell pair               1
 max number of CS2 of shell pair           4690
 max number of PS2 of shell pair           8106
 mem total for path MDJ                  200946
 -------------------------------------------------------
 Smallest overlap matrix eigenvalue = 2.12E-07
 Linear dependence detected in AO basis
 Number of orthogonalized atomic orbitals = 590
 Maximum deviation from orthogonality = 3.410E-10

 Scale SEOQF with 1.000000e-01/1.000000e-01/1.000000e-01

 Standard Electronic Orientation quadrupole field applied
 Nucleus-field energy     =     0.0000000384 hartrees
 Guess from superposition of atomic densities
 Warning:  Energy on first SCF cycle will be non-variational
 A restricted hybrid HF-DFT SCF calculation will be
 performed using Pulay DIIS extrapolation
 Exchange:     0.2000 Hartree-Fock + 0.0800 Slater + 0.7200 B88
 Correlation:  0.1900 VWN1RPA + 0.8100 LYP
 Using SG-1 standard quadrature grid
 Dispersion:   Grimme D3
 SCF converges when DIIS error is below 1.0E-08
 using 4 threads for integral computing
 -------------------------------------------------------
 OpenMP Integral computing Module                
 Release: version 1.0, May 2013, Q-Chem Inc. Pittsburgh 
 -------------------------------------------------------
 -------------------------------------------------------
 OpenMP BLAS3 based DFT computing Module                
 Release: version 1.0, May 2013, Q-Chem Inc. Pittsburgh 
 -------------------------------------------------------
 ---------------------------------------
  Cycle       Energy         DIIS Error
 ---------------------------------------
    1    -781.3342496256      2.56E-02
    2    -776.7589905023      3.15E-03
    3    -776.6063863159      3.69E-03
    4    -777.1784120262      6.24E-04
    5    -777.1904671809      2.11E-04
    6    -777.1918129173      5.92E-05
    7    -777.1919137350      2.16E-05
    8    -777.1919308147      2.48E-06
    9    -777.1919310302      1.01E-06
   10    -777.1919310644      3.61E-07
   11    -777.1919310683      1.09E-07
   12    -777.1919310685      2.71E-08
   13    -777.1919310687      6.51E-09 Convergence criterion met
 ---------------------------------------
 SCF time:  CPU 1531.22 s  wall 386.10 s
 SCF   energy in the final basis set = -777.19193107
 Total energy in the final basis set = -777.19193107
 
 --------------------------------------------------------------
 
                    Orbital Energies (a.u.)
 --------------------------------------------------------------
 
 Alpha MOs
 -- Occupied --
-19.118 -19.102 -10.231 -10.228 -10.211 -10.207 -10.172 -10.171
-10.169 -10.168 -10.161 -10.155 -10.154 -10.153 -10.151 -10.144
-10.142 -10.141  -1.059  -1.036  -0.809  -0.799  -0.791  -0.779
 -0.762  -0.737  -0.721  -0.710  -0.660  -0.649  -0.631  -0.603
 -0.573  -0.570  -0.555  -0.544  -0.507  -0.493  -0.478  -0.466
 -0.464  -0.457  -0.447  -0.439  -0.426  -0.424  -0.418  -0.414
 -0.410  -0.401  -0.399  -0.391  -0.380  -0.370  -0.367  -0.358
 -0.353  -0.350  -0.348  -0.342  -0.336  -0.329  -0.325  -0.318
 -0.312  -0.304  -0.289  -0.283  -0.268  -0.242
 -- Virtual --
 -0.013  -0.004  -0.001   0.007   0.014   0.015   0.018   0.025
  0.028   0.031   0.038   0.040   0.043   0.048   0.051   0.052
  0.060   0.061   0.065   0.066   0.069   0.076   0.077   0.083
  0.084   0.089   0.091   0.098   0.099   0.100   0.106   0.108
  0.111   0.112   0.114   0.117   0.119   0.123   0.126   0.129
  0.130   0.134   0.137   0.141   0.142   0.144   0.147   0.148
  0.149   0.149   0.151   0.154   0.157   0.159   0.160   0.163
  0.166   0.167   0.171   0.173   0.174   0.175   0.176   0.181
  0.183   0.184   0.186   0.187   0.190   0.191   0.192   0.195
  0.196   0.203   0.204   0.208   0.212   0.214   0.218   0.219
  0.221   0.224   0.227   0.228   0.231   0.233   0.235   0.238
  0.244   0.246   0.253   0.257   0.259   0.261   0.266   0.268
  0.272   0.276   0.280   0.283   0.288   0.291   0.296   0.296
  0.298   0.303   0.308   0.312   0.313   0.318   0.326   0.333
  0.335   0.340   0.343   0.345   0.351   0.353   0.354   0.357
  0.362   0.363   0.368   0.372   0.372   0.375   0.379   0.382
  0.386   0.388   0.394   0.398   0.405   0.411   0.417   0.421
  0.424   0.430   0.433   0.447   0.449   0.457   0.459   0.480
  0.485   0.495   0.504   0.511   0.519   0.527   0.539   0.547
  0.550   0.552   0.557   0.560   0.565   0.568   0.578   0.581
  0.586   0.592   0.599   0.611   0.616   0.618   0.624   0.630
  0.646   0.650   0.655   0.659   0.663   0.666   0.668   0.672
  0.673   0.678   0.681   0.688   0.691   0.706   0.710   0.713
  0.714   0.722   0.723   0.726   0.738   0.742   0.748   0.753
  0.756   0.762   0.764   0.770   0.773   0.777   0.781   0.788
  0.799   0.804   0.813   0.814   0.818   0.821   0.830   0.834
  0.836   0.843   0.855   0.861   0.865   0.871   0.892   0.902
  0.907   0.913   0.931   0.949   0.953   0.961   0.969   0.991
  1.015   1.025   1.034   1.050   1.076   1.083   1.087   1.106
  1.107   1.132   1.140   1.145   1.164   1.181   1.189   1.198
  1.222   1.234   1.240   1.252   1.265   1.270   1.284   1.289
  1.300   1.316   1.319   1.349   1.363   1.377   1.398   1.402
  1.437   1.449   1.467   1.475   1.479   1.483   1.491   1.500
  1.510   1.520   1.522   1.527   1.535   1.539   1.545   1.549
  1.554   1.561   1.563   1.568   1.577   1.591   1.593   1.604
  1.607   1.613   1.616   1.617   1.621   1.636   1.645   1.649
  1.651   1.660   1.674   1.679   1.690   1.695   1.699   1.706
  1.716   1.723   1.727   1.731   1.735   1.741   1.742   1.745
  1.757   1.766   1.770   1.776   1.795   1.799   1.803   1.810
  1.815   1.830   1.839   1.860   1.862   1.865   1.871   1.886
  1.888   1.896   1.906   1.910   1.918   1.925   1.944   1.955
  1.957   1.968   1.971   1.994   2.006   2.009   2.023   2.031
  2.041   2.044   2.048   2.052   2.063   2.084   2.101   2.103
  2.114   2.133   2.143   2.152   2.161   2.167   2.185   2.192
  2.202   2.212   2.235   2.242   2.252   2.263   2.272   2.279
  2.290   2.298   2.314   2.328   2.348   2.361   2.375   2.384
  2.408   2.422   2.429   2.438   2.460   2.471   2.482   2.499
  2.505   2.515   2.520   2.524   2.532   2.537   2.554   2.557
  2.568   2.572   2.576   2.586   2.589   2.593   2.594   2.611
  2.617   2.625   2.633   2.640   2.643   2.648   2.652   2.660
  2.670   2.678   2.696   2.711   2.723   2.725   2.735   2.743
  2.768   2.772   2.787   2.798   2.799   2.810   2.824   2.831
  2.845   2.869   2.872   2.884   2.909   2.919   2.924   2.931
  2.939   2.950   2.970   2.985   2.989   3.002   3.022   3.035
  3.040   3.048   3.061   3.063   3.078   3.112   3.120   3.134
  3.139   3.149   3.155   3.171   3.192   3.207   3.228   3.240
  3.266   3.280   3.305   3.311   3.330   3.345   3.356   3.367
  3.372   3.402   3.460   3.480   3.562   3.582   3.626   3.680
  3.713   3.724   3.735   3.785   3.836   3.841   3.844   3.863
  3.886   3.896   3.901   3.937   3.970   3.992   4.021   4.044
  4.124   4.140   4.148   4.181   4.202   4.219   4.222   4.244
  4.291   4.310   4.315   4.336   4.472   4.490   4.520   4.578
  5.250   5.347   5.540   5.586   5.706   5.713  23.793  23.812
 23.866  23.885  23.963  23.986  23.990  24.016  24.027  24.031
 24.042  24.047  24.053  24.067  24.080  24.120  50.011  50.074
 --------------------------------------------------------------
 
          Ground-State Mulliken Net Atomic Charges

     Atom                 Charge (a.u.)
  ----------------------------------------
      1 C                    -0.400073
      2 C                    -0.399031
      3 C                    -0.280125
      4 C                    -0.150320
      5 C                    -0.229642
      6 C                    -0.391618
      7 O                     0.079453
      8 H                     0.222533
      9 H                    -0.055806
     10 H                     0.213292
     11 H                     0.006133
     12 C                    -0.223216
     13 C                    -0.266109
     14 H                     0.150749
     15 H                     0.154036
     16 H                     0.165529
     17 H                     0.141616
     18 H                     0.149733
     19 H                     0.163609
     20 H                     0.116878
     21 H                     0.173030
     22 H                     0.158170
     23 H                     0.130771
     24 C                    -0.373495
     25 C                    -0.392485
     26 C                     0.115259
     27 C                    -0.487540
     28 C                    -0.478889
     29 C                     0.223394
     30 O                     0.175784
     31 H                     0.156970
     32 H                     0.138981
     33 H                     0.161285
     34 H                     0.134543
     35 C                    -0.308740
     36 C                    -0.378547
     37 H                     0.159305
     38 H                     0.152680
     39 H                     0.148856
     40 H                     0.159068
     41 H                     0.149656
     42 H                     0.148862
     43 H                     0.186553
     44 H                     0.195860
     45 H                     0.188718
     46 H                     0.194331
  ----------------------------------------
  Sum of atomic charges =    -0.000000

 -----------------------------------------------------------------
                    Cartesian Multipole Moments
 -----------------------------------------------------------------
    Charge (ESU x 10^10)
                -0.0000
    Dipole Moment (Debye)
         X      -2.6673      Y       0.0386      Z       2.3142
       Tot       3.5315
    Quadrupole Moments (Debye-Ang)
        XX    -117.4421     XY       0.1526     YY    -110.4943
        XZ       2.6698     YZ      -0.2239     ZZ    -116.3309
    Octopole Moments (Debye-Ang^2)
       XXX     -25.4958    XXY      -0.1806    XYY       0.7981
       YYY       0.5190    XXZ      13.5709    XYZ       0.2996
       YYZ      -1.5410    XZZ      -7.8320    YZZ      -0.2929
       ZZZ      -5.6670
    Hexadecapole Moments (Debye-Ang^3)
      XXXX   -4085.7405   XXXY       3.7671   XXYY    -937.3300
      XYYY       0.7131   YYYY   -1703.1312   XXXZ      38.4419
      XXYZ      -1.5567   XYYZ      -4.7744   YYYZ      -1.3496
      XXZZ    -798.1953   XYZZ       0.6657   YYZZ    -387.4904
      XZZZ      -0.9939   YZZZ       0.3118   ZZZZ    -690.2564
 -----------------------------------------------------------------
Archival summary:
1\1\vega03.cac.cornell.edu\SP\ProcedureUnspecified\BasisUnspecified\21628\jj585\TueApr1700:15:562018TueApr1700:15:562018\0\\#,ProcedureUnspecified,BasisUnspecified,\\0,1\O\C,1,1.43358\C,1,1.43646,2,98.0224\C,3,1.51218,1,111.091,2,-178.393,0\H,4,1.09134,3,111.033,1,-57.0184,0\H,4,1.09192,3,109.775,1,62.6469,0\H,4,1.09264,3,110.458,1,-177.522,0\C,2,1.513,1,109.807,3,-177.944,0\H,8,1.07,2,109.471,1,-64.7983,0\H,8,1.07,2,109.471,1,55.2018,0\H,8,1.07,2,109.471,1,175.202,0\C,2,1.54115,1,102.483,3,57.1986,0\H,12,1.09096,2,110.128,1,81.1589,0\H,12,1.09186,2,112.95,1,-157.962,0\C,2,1.54738,1,103.124,3,-55.9256,0\H,15,1.07,2,113.95,1,155.255,0\H,15,1.07,2,111.379,1,-86.5463,0\H,17,1.36218,15,116.42,2,34.9856,0\C,18,1.09186,17,154.236,15,55.3688,0\H,19,1.09096,18,108.033,17,-113.231,0\C,19,1.54115,18,112.95,17,124.706,0\O,21,1.43358,19,102.483,18,-157.962,0\C,22,1.43646,21,98.0224,19,57.1986,0\C,23,1.51218,22,111.091,21,-178.393,0\H,24,1.09134,23,111.033,22,-57.0184,0\H,24,1.09192,23,109.775,22,62.6469,0\H,24,1.09264,23,110.458,22,-177.522,0\C,21,1.513,19,116.857,18,81.963,0\H,28,1.07,21,109.471,19,51.2997,0\H,28,1.07,21,109.471,19,171.3,0\H,28,1.07,21,109.471,19,-68.6999,0\C,21,1.54738,19,108.926,18,-49.1929,0\H,32,1.07,21,113.95,19,46.9191,0\H,32,1.07,21,111.379,19,165.118,0\C,3,1.55466,1,102.371,2,-54.4128,0\H,35,1.09132,3,109.614,1,-87.4148,0\H,35,1.09187,3,112.355,1,152.676,0\C,23,1.55466,22,102.371,21,-54.4128,0\H,38,1.09132,23,109.614,22,-87.4148,0\H,38,1.09187,23,112.355,22,152.676,0\H,40,1.31414,38,155.387,23,-138.534,0\C,41,1.07,40,115.951,38,-42.0707,0\H,42,1.07,41,103.987,40,-158.39,0\C,32,1.5685,21,101.696,19,-76.1436,0\H,44,1.07,32,111.7,21,120.458,0\H,44,1.07,32,114.71,21,-121.541,0\\\@

 Total job time:  387.36s(wall), 1534.23s(cpu) 
 Tue Apr 17 00:15:56 2018

        *************************************************************
        *                                                           *
        *  Thank you very much for using Q-Chem.  Have a nice day.  *
        *                                                           *
        *************************************************************


0 sent ACK to 0 
now end server 0 ... 
