mFile = /opt/software/qchem/qchem-5.0.1//bin/mpi/machines
Process 0 of 1 is on vega03.cac.cornell.edu - thread support 0
initial socket setup ...start
initial socket setup ...done 
now start server 0 ... 
vega03 10.84.3
Q-Chem Developer Version! Running on 10.84.3.*
                  Welcome to Q-Chem
     A Quantum Leap Into The Future Of Chemistry


 Q-Chem 5.0, Q-Chem, Inc., Pleasanton, CA (2017)

 Yihan Shao,  Zhengting Gan,  E. Epifanovsky,  A. T. B. Gilbert,  M. Wormit,  
 J. Kussmann,  A. W. Lange,  A. Behn,  Jia Deng,  Xintian Feng,  D. Ghosh,  
 M. Goldey,  P. R. Horn,  L. D. Jacobson,  I. Kaliman,  T. Kus,  A. Landau,  
 Jie Liu,  E. I. Proynov,  R. M. Richard,  R. P. Steele,  E. J. Sundstrom,  
 H. L. Woodcock III,  P. M. Zimmerman,  D. Zuev,  B. Albrecht,  E. Alguire,  
 S. A. Baeppler,  Z. Benda,  Y. A. Bernard,  E. J. Berquist,  K. B. Bravaya,  
 D. Casanova,  Chun-Min Chang,  Yunqing Chen,  A. Chien,  K. D. Closser,  
 M. P. Coons,  S. Dasgupta,  M. Diedenhofen,  Hainam Do,  R. G. Edgar,  
 Po-Tung Fang,  S. Fatehi,  Qingguo Feng,  Qinghui Ge,  A. Ghysels,  
 J. Gomes,  J. Gonthier,  A. Gunina,  M. W. D. Hanson-Heine,  
 P. H. P. Harbach,  A. W. Hauser,  J. E. Herr,  E. G. Hohenstein,  
 Z. C. Holden,  Kerwin Hui,  T.-C. Jagau,  Hyunjun Ji,  B. Kaduk,  
 K. Khistyaev,  Jaehoon Kim,  P. Klunzinger,  K. Koh,  D. Kosenkov,  
 T. Kowalczyk,  C. M. Krauter,  A. Kunitsa,  Ka Un Lao,  A. Laurent,  
 K. V. Lawler,  Joonho Lee,  D. Lefrancois,  S. Lehtola,  D. S. Levine,  
 Yi-Pei Li,  You-Sheng Lin,  Fenglai Liu,  E. Livshits,  A. Luenser,  
 P. Manohar,  E. Mansoor,  S. F. Manzer,  Shan-Ping Mao,  Yuezhi Mao,  
 N. Mardirossian,  A. V. Marenich,  L. A. Martinez-Martinez,  S. A. Maurer,  
 N. J. Mayhall,  S. C. McKenzie,  J.-M. Mewes,  A. F. Morrison,  K. Nanda,  
 T. S. Nguyen-Beck,  R. Olivares-Amaya,  J. A. Parkhill,  T. M. Perrine,  
 F. Plasser,  S. Prager,  A. Prociuk,  D. R. Rehn,  F. Rob,  M. Schneider,  
 N. Sergueev,  S. M. Sharada,  S. Sharma,  D. W. Small,  T. Stauch,  
 T. Stein,  Yu-Chuan Su,  A. J. W. Thom,  T. Tsuchimochi,  L. Vogt,  
 O. Vydrov,  M. A. Watson,  J. Wenzel,  M. de Wergifosse,  T. A. Wesolowski,  
 A. White,  J. Witte,  A. Yamada,  Jun Yang,  K. Yao,  S. Yeganeh,  
 S. R. Yost,  Zhi-Qiang You,  A. Zech,  Igor Ying Zhang,  Xing Zhang,  
 Yan Zhao,  Ying Zhu,  B. R. Brooks,  G. K. L. Chan,  C. J. Cramer,  
 M. S. Gordon,  W. J. Hehre,  A. Klamt,  M. W. Schmidt,  C. D. Sherrill,  
 D. G. Truhlar,  A. Aspuru-Guzik,  R. Baer,  A. T. Bell,  N. A. Besley,  
 Jeng-Da Chai,  A. Dreuw,  B. D. Dunietz,  T. R. Furlani,  Chao-Ping Hsu,  
 Yousung Jung,  Jing Kong,  D. S. Lambrecht,  WanZhen Liang,  C. Ochsenfeld,  
 V. A. Rassolov,  L. V. Slipchenko,  J. E. Subotnik,  T. Van Voorhis,  
 J. M. Herbert,  A. I. Krylov,  P. M. W. Gill,  M. Head-Gordon

 Contributors to earlier versions of Q-Chem not listed above: 
 R. D. Adamson,  B. Austin,  J. Baker,  G. J. O. Beran,  K. Brandhorst,  
 S. T. Brown,  E. F. C. Byrd,  A. K. Chakraborty,  C.-L. Cheng,  
 Siu Hung Chien,  D. M. Chipman,  D. L. Crittenden,  H. Dachsel,  
 R. A. DiStasio Jr.,  R. J. Doerksen,  A. D. Dutoi,  L. Fusti-Molnar,  
 W. A. Goddard III,  A. Golubeva-Zadorozhnaya,  S. R. Gwaltney,  G. Hawkins,  
 A. Heyden,  S. Hirata,  G. Kedziora,  F. J. Keil,  C. Kelley,  Jihan Kim,  
 R. A. King,  R. Z. Khaliullin,  P. P. Korambath,  W. Kurlancheek,  
 A. M. Lee,  M. S. Lee,  S. V. Levchenko,  Ching Yeh Lin,  D. Liotard,  
 R. C. Lochan,  I. Lotan,  P. E. Maslen,  N. Nair,  D. P. O'Neill,  
 D. Neuhauser,  E. Neuscamman,  C. M. Oana,  R. Olson,  B. Peters,  
 R. Peverati,  P. A. Pieniazek,  Y. M. Rhee,  J. Ritchie,  M. A. Rohrdanz,  
 E. Rosta,  N. J. Russ,  H. F. Schaefer III,  N. E. Schultz,  N. Shenvi,  
 A. C. Simmonett,  A. Sodt,  D. Stuck,  K. S. Thanthiriwatte,  V. Vanovschi,  
 Tao Wang,  A. Warshel,  C. F. Williams,  Q. Wu,  X. Xu,  W. Zhang

 Please cite Q-Chem as follows:
 Y. Shao et al., Mol. Phys. 113, 184-215 (2015)
 DOI: 10.1080/00268976.2014.952696

 Q-Chem 5.0.1 for Intel X86 EM64T Linux

 Parts of Q-Chem use Armadillo 5.200.1 (Boston Tea Smuggler).
 http://arma.sourceforge.net/

 Q-Chem begins on Tue Apr 17 00:49:19 2018  

Host: vega03.cac.cornell.edu
0

     Scratch files written to /scratch/jj585/vdw/01n00_distance_4.400_01.save//
 Parallel job on  1  processors

Checking the input file for inconsistencies... 	...done.

--------------------------------------------------------------
User input:
--------------------------------------------------------------
$molecule
0  1
C        -0.69482000        -0.99829000        +4.31927000
C        -0.70747000        +0.40419000        +4.44109000
C        -1.89358000        -1.73075000        +4.26064000
C        -3.08990000        -1.01515000        +4.33331000
C        -3.10351000        +0.36796000        +4.45550000
C        -1.92199000        +1.10945000        +4.51426000
H        -4.05392000        +0.88866000        +4.50326000
H        -4.02930000        -1.55670000        +4.29628000
C        -1.98998000        +2.61287000        +4.63455000
H        -1.39252000        +3.10893000        +3.86551000
H        -1.60541000        +2.94968000        +5.59900000
H        -3.02249000        +2.95164000        +4.53254000
H        -1.88916000        -2.75852000        +4.16741000
H        +0.20787000        -1.49625000        +4.27230000
H        +0.18513000        +0.92090000        +4.47713000
@C        -0.54444000        -0.68370000        -0.06689000
@C        -0.55709000        +0.71878000        +0.05493000
@C        -1.74320000        -1.41616000        -0.12552000
@C        -2.93952000        -0.70056000        -0.05285000
@C        -2.95313000        +0.68255000        +0.06934000
@C        -1.77161000        +1.42404000        +0.12810000
@H        -3.90354000        +1.20325000        +0.11710000
@H        -3.87892000        -1.24211000        -0.08988000
@C        -1.83960000        +2.92746000        +0.24839000
@H        -1.24214000        +3.42352000        -0.52065000
@H        -1.45503000        +3.26427000        +1.21284000
@H        -2.87211000        +3.26623000        +0.14638000
@H        -1.73878000        -2.44393000        -0.21875000
@H        +0.35825000        -1.18166000        -0.11386000
@H        +0.33551000        +1.23549000        +0.09097000
$end

$rem
JOBTYPE                   SP
METHOD                    B3LYP
DFT_D                     d3_op
BASIS                     6-311++G(d,p)
SYMMETRY                  False
THRESH                    12
SCF_CONVERGENCE           8
MAX_SUB_FILE_NUM          128
MEM_STATIC                400
MEM_TOTAL                 4000
$end
--------------------------------------------------------------
 Adding empirical dispersion correction 
 ----------------------------------------------------------------
 Doing -D3(op) with
 s6 =   1.00000
 s8 =   0.78311
 a1 =   0.30000
 a2 =   4.25000
 n  =  10.00000
 -D3 energy without 3body term =     -0.0113800034 hartrees
 ----------------------------------------------------------------
             Standard Nuclear Orientation (Angstroms)
    I     Atom           X                Y                Z
 ----------------------------------------------------------------
    1      C      -0.6948200000    -0.9982900000     4.3192700000
    2      C      -0.7074700000     0.4041900000     4.4410900000
    3      C      -1.8935800000    -1.7307500000     4.2606400000
    4      C      -3.0899000000    -1.0151500000     4.3333100000
    5      C      -3.1035100000     0.3679600000     4.4555000000
    6      C      -1.9219900000     1.1094500000     4.5142600000
    7      H      -4.0539200000     0.8886600000     4.5032600000
    8      H      -4.0293000000    -1.5567000000     4.2962800000
    9      C      -1.9899800000     2.6128700000     4.6345500000
   10      H      -1.3925200000     3.1089300000     3.8655100000
   11      H      -1.6054100000     2.9496800000     5.5990000000
   12      H      -3.0224900000     2.9516400000     4.5325400000
   13      H      -1.8891600000    -2.7585200000     4.1674100000
   14      H       0.2078700000    -1.4962500000     4.2723000000
   15      H       0.1851300000     0.9209000000     4.4771300000
   16      GH     -0.5444400000    -0.6837000000    -0.0668900000
   17      GH     -0.5570900000     0.7187800000     0.0549300000
   18      GH     -1.7432000000    -1.4161600000    -0.1255200000
   19      GH     -2.9395200000    -0.7005600000    -0.0528500000
   20      GH     -2.9531300000     0.6825500000     0.0693400000
   21      GH     -1.7716100000     1.4240400000     0.1281000000
   22      GH     -3.9035400000     1.2032500000     0.1171000000
   23      GH     -3.8789200000    -1.2421100000    -0.0898800000
   24      GH     -1.8396000000     2.9274600000     0.2483900000
   25      GH     -1.2421400000     3.4235200000    -0.5206500000
   26      GH     -1.4550300000     3.2642700000     1.2128400000
   27      GH     -2.8721100000     3.2662300000     0.1463800000
   28      GH     -1.7387800000    -2.4439300000    -0.2187500000
   29      GH      0.3582500000    -1.1816600000    -0.1138600000
   30      GH      0.3355100000     1.2354900000     0.0909700000
 ----------------------------------------------------------------
 Nuclear Repulsion Energy =   269.2168625664 hartrees
 There are       25 alpha and       25 beta electrons
 Requested basis set is 6-311++G(d,p)
 There are 164 shells and 420 basis functions

 Total QAlloc Memory Limit   4000 MB
 Mega-Array Size       392 MB
 MEM_STATIC part       400 MB
 A cutoff of  1.0D-12 yielded  11152 shell pairs
 There are     73910 function pairs (     78618 Cartesian)
 
 -------------------------------------------------------
 OpenMP Integral Computing Module                       
 Release: version 1.0, May 2013, Q-Chem Inc. Pittsburgh 
 -------------------------------------------------------
 Integral Job Info:
 Integral job number is                      11
 Integral operator is                         1
 short-range coefficients                     0
 long-range coefficients              100000000
 Omega coefficients                           0
 if combine SR and LR in K                    0
 Integral screening is                        0
 Integral computing path is                   2
 max size of driver memory is            800000
 size of driver memory is                593474
 size of scratch memory is              2361544
 max col of scratch BK array               1296
 max len of scratch array in speh3          155
 max len of scratch index in speh4           18
 max int batch size is                      520
 min int batch size is                       52
 fixed nKL is                                52
 max L of basis functions is                  2
 order of int derivative is                   0
 number of shells is                        164
 number of basis is                         434
 number of cartesian basis is               434
 number of contracted shell pairs         11152
 number of primitive shell pairs          24434
 maxK2 (contraction) of shell pair           36
 max number of K2 of shell pair               1
 max number of CS2 of shell pair           2086
 max number of PS2 of shell pair           3426
 mem total for path MDJ                  126456
 -------------------------------------------------------
 Smallest overlap matrix eigenvalue = 3.28E-07
 Linear dependence detected in AO basis
 Number of orthogonalized atomic orbitals = 418
 Maximum deviation from orthogonality = 6.713E-11

 Scale SEOQF with 1.000000e-01/1.000000e-01/1.000000e-02

 Standard Electronic Orientation quadrupole field applied
 Nucleus-field energy     =     0.0000000066 hartrees
 Guess from superposition of atomic densities
 Warning:  Energy on first SCF cycle will be non-variational

 Q-Chem warning in module /opt/software/qchem/qchem-5.0.1/libgen/Atomic_PolEc.C, line 58:

 No atomic polarizability available.


 Q-Chem warning in module /opt/software/qchem/qchem-5.0.1/libgen/Atomic_PolEc.C, line 73:

 No atomic polarizability available.


 Q-Chem warning in module /opt/software/qchem/qchem-5.0.1/libgen/Atomic_PolEc.C, line 58:

 No atomic polarizability available.


 Q-Chem warning in module /opt/software/qchem/qchem-5.0.1/libgen/Atomic_PolEc.C, line 73:

 No atomic polarizability available.


 Q-Chem warning in module /opt/software/qchem/qchem-5.0.1/libgen/Atomic_PolEc.C, line 58:

 No atomic polarizability available.


 Q-Chem warning in module /opt/software/qchem/qchem-5.0.1/libgen/Atomic_PolEc.C, line 73:

 No atomic polarizability available.


 Q-Chem warning in module /opt/software/qchem/qchem-5.0.1/libgen/Atomic_PolEc.C, line 58:

 No atomic polarizability available.


 Q-Chem warning in module /opt/software/qchem/qchem-5.0.1/libgen/Atomic_PolEc.C, line 73:

 No atomic polarizability available.


 Q-Chem warning in module /opt/software/qchem/qchem-5.0.1/libgen/Atomic_PolEc.C, line 58:

 No atomic polarizability available.


 Q-Chem warning in module /opt/software/qchem/qchem-5.0.1/libgen/Atomic_PolEc.C, line 73:

 No atomic polarizability available.


 Q-Chem warning in module /opt/software/qchem/qchem-5.0.1/libgen/Atomic_PolEc.C, line 58:

 No atomic polarizability available.


 Q-Chem warning in module /opt/software/qchem/qchem-5.0.1/libgen/Atomic_PolEc.C, line 73:

 No atomic polarizability available.


 Q-Chem warning in module /opt/software/qchem/qchem-5.0.1/libgen/Atomic_PolEc.C, line 58:

 No atomic polarizability available.


 Q-Chem warning in module /opt/software/qchem/qchem-5.0.1/libgen/Atomic_PolEc.C, line 73:

 No atomic polarizability available.


 Q-Chem warning in module /opt/software/qchem/qchem-5.0.1/libgen/Atomic_PolEc.C, line 58:

 No atomic polarizability available.


 Q-Chem warning in module /opt/software/qchem/qchem-5.0.1/libgen/Atomic_PolEc.C, line 73:

 No atomic polarizability available.


 Q-Chem warning in module /opt/software/qchem/qchem-5.0.1/libgen/Atomic_PolEc.C, line 58:

 No atomic polarizability available.


 Q-Chem warning in module /opt/software/qchem/qchem-5.0.1/libgen/Atomic_PolEc.C, line 73:

 No atomic polarizability available.


 Q-Chem warning in module /opt/software/qchem/qchem-5.0.1/libgen/Atomic_PolEc.C, line 58:

 No atomic polarizability available.


 Q-Chem warning in module /opt/software/qchem/qchem-5.0.1/libgen/Atomic_PolEc.C, line 73:

 No atomic polarizability available.


 Q-Chem warning in module /opt/software/qchem/qchem-5.0.1/libgen/Atomic_PolEc.C, line 58:

 No atomic polarizability available.


 Q-Chem warning in module /opt/software/qchem/qchem-5.0.1/libgen/Atomic_PolEc.C, line 73:

 No atomic polarizability available.


 Q-Chem warning in module /opt/software/qchem/qchem-5.0.1/libgen/Atomic_PolEc.C, line 58:

 No atomic polarizability available.


 Q-Chem warning in module /opt/software/qchem/qchem-5.0.1/libgen/Atomic_PolEc.C, line 73:

 No atomic polarizability available.


 Q-Chem warning in module /opt/software/qchem/qchem-5.0.1/libgen/Atomic_PolEc.C, line 58:

 No atomic polarizability available.


 Q-Chem warning in module /opt/software/qchem/qchem-5.0.1/libgen/Atomic_PolEc.C, line 73:

 No atomic polarizability available.


 Q-Chem warning in module /opt/software/qchem/qchem-5.0.1/libgen/Atomic_PolEc.C, line 58:

 No atomic polarizability available.


 Q-Chem warning in module /opt/software/qchem/qchem-5.0.1/libgen/Atomic_PolEc.C, line 73:

 No atomic polarizability available.


 Q-Chem warning in module /opt/software/qchem/qchem-5.0.1/libgen/Atomic_PolEc.C, line 58:

 No atomic polarizability available.


 Q-Chem warning in module /opt/software/qchem/qchem-5.0.1/libgen/Atomic_PolEc.C, line 73:

 No atomic polarizability available.

 A restricted hybrid HF-DFT SCF calculation will be
 performed using Pulay DIIS extrapolation
 Exchange:     0.2000 Hartree-Fock + 0.0800 Slater + 0.7200 B88
 Correlation:  0.1900 VWN1RPA + 0.8100 LYP
 Using SG-1 standard quadrature grid
 Dispersion:   Grimme D3
 SCF converges when DIIS error is below 1.0E-08
 using 4 threads for integral computing
 -------------------------------------------------------
 OpenMP Integral computing Module                
 Release: version 1.0, May 2013, Q-Chem Inc. Pittsburgh 
 -------------------------------------------------------
 -------------------------------------------------------
 OpenMP BLAS3 based DFT computing Module                
 Release: version 1.0, May 2013, Q-Chem Inc. Pittsburgh 
 -------------------------------------------------------
 ---------------------------------------
  Cycle       Energy         DIIS Error
 ---------------------------------------
    1    -273.1502244882      2.19E-02
    2    -271.4969019993      2.45E-03
    3    -271.4748125609      2.66E-03
    4    -271.6431348749      2.00E-04
    5    -271.6437368714      1.01E-04
    6    -271.6439132121      4.36E-05
    7    -271.6439515978      1.60E-05
    8    -271.6439577565      1.32E-06
    9    -271.6439577863      7.98E-07
   10    -271.6439578002      1.86E-07
   11    -271.6439578009      8.05E-08
   12    -271.6439578010      9.87E-09 Convergence criterion met
 ---------------------------------------
 SCF time:  CPU 336.19 s  wall 84.32 s
 SCF   energy in the final basis set = -271.64395780
 Total energy in the final basis set = -271.64395780
 
 --------------------------------------------------------------
 
                    Orbital Energies (a.u.)
 --------------------------------------------------------------
 
 Alpha MOs
 -- Occupied --
-10.185 -10.174 -10.172 -10.171 -10.170 -10.169 -10.169  -0.858
 -0.776  -0.748  -0.691  -0.611  -0.591  -0.521  -0.465  -0.463
 -0.424  -0.423  -0.418  -0.390  -0.358  -0.350  -0.342  -0.255
 -0.248
 -- Virtual --
 -0.017  -0.013  -0.008   0.005   0.009   0.019   0.028   0.031
  0.035   0.040   0.047   0.052   0.058   0.062   0.065   0.068
  0.078   0.083   0.089   0.092   0.093   0.103   0.105   0.107
  0.112   0.113   0.120   0.125   0.126   0.128   0.130   0.130
  0.136   0.138   0.140   0.144   0.153   0.159   0.161   0.164
  0.167   0.173   0.175   0.176   0.180   0.181   0.186   0.187
  0.193   0.194   0.198   0.205   0.210   0.214   0.218   0.222
  0.227   0.232   0.234   0.239   0.244   0.245   0.251   0.254
  0.262   0.263   0.270   0.275   0.276   0.280   0.282   0.291
  0.296   0.301   0.303   0.310   0.312   0.317   0.328   0.330
  0.335   0.339   0.356   0.364   0.373   0.374   0.377   0.387
  0.402   0.409   0.416   0.422   0.431   0.438   0.445   0.454
  0.475   0.481   0.486   0.505   0.514   0.521   0.528   0.542
  0.546   0.550   0.558   0.575   0.580   0.584   0.594   0.598
  0.599   0.602   0.613   0.616   0.630   0.635   0.637   0.641
  0.646   0.654   0.661   0.669   0.672   0.684   0.690   0.701
  0.708   0.728   0.731   0.736   0.743   0.746   0.750   0.765
  0.777   0.794   0.809   0.814   0.822   0.838   0.857   0.863
  0.882   0.896   0.898   0.910   0.925   0.927   0.938   0.946
  0.948   0.967   0.975   1.007   1.015   1.016   1.021   1.043
  1.056   1.078   1.093   1.103   1.126   1.129   1.149   1.153
  1.176   1.190   1.206   1.222   1.281   1.331   1.361   1.371
  1.414   1.427   1.437   1.448   1.462   1.480   1.495   1.501
  1.527   1.529   1.536   1.537   1.545   1.555   1.562   1.568
  1.576   1.593   1.598   1.616   1.628   1.654   1.664   1.673
  1.692   1.699   1.714   1.717   1.729   1.742   1.744   1.756
  1.767   1.772   1.788   1.791   1.805   1.814   1.827   1.850
  1.857   1.864   1.872   1.890   1.894   1.903   1.907   1.928
  1.939   1.946   1.957   1.962   1.964   1.965   1.986   2.010
  2.027   2.036   2.040   2.043   2.050   2.063   2.095   2.105
  2.117   2.149   2.164   2.202   2.240   2.252   2.258   2.307
  2.314   2.320   2.323   2.332   2.390   2.402   2.409   2.416
  2.419   2.426   2.445   2.449   2.481   2.488   2.493   2.506
  2.526   2.537   2.548   2.560   2.563   2.575   2.586   2.601
  2.608   2.635   2.641   2.675   2.686   2.709   2.730   2.734
  2.742   2.747   2.758   2.768   2.781   2.811   2.833   2.841
  2.867   2.899   2.906   2.916   2.923   2.930   2.944   2.954
  2.987   2.992   3.000   3.002   3.013   3.043   3.094   3.113
  3.159   3.169   3.204   3.224   3.247   3.278   3.342   3.357
  3.363   3.384   3.389   3.398   3.444   3.484   3.504   3.511
  3.519   3.543   3.554   3.566   3.592   3.625   3.654   3.665
  3.710   3.725   3.791   3.795   3.863   4.009   4.036   4.040
  4.122   4.180   4.188   4.205   4.344   4.637   4.729   4.838
  4.857   4.866   4.916   4.960   5.099   5.204   5.644   7.071
  7.127   7.158   7.221   7.240   7.373   7.613   7.720   7.726
  7.751   7.779   7.785   7.828   7.843   7.870   7.982   8.029
  8.051   8.169   8.485   8.910   9.712  10.004  10.190  10.210
 10.239  10.250  10.309  23.675  23.942  24.003  24.014  24.096
 24.108  24.205  69.848  69.953  70.069  70.075  70.094  70.100
 70.137
 --------------------------------------------------------------
 
          Ground-State Mulliken Net Atomic Charges

     Atom                 Charge (a.u.)
  ----------------------------------------
      1 C                    -0.224568
      2 C                    -0.214452
      3 C                    -0.276025
      4 C                    -0.262659
      5 C                    -0.247368
      6 C                     0.659215
      7 H                     0.154902
      8 H                     0.172656
      9 C                    -0.684916
     10 H                     0.157048
     11 H                     0.158527
     12 H                     0.140088
     13 H                     0.145724
     14 H                     0.161550
     15 H                     0.171189
     16 GH                   -0.021284
     17 GH                   -0.009549
     18 GH                    0.013762
     19 GH                   -0.009755
     20 GH                   -0.003665
     21 GH                   -0.000962
     22 GH                    0.001193
     23 GH                    0.001308
     24 GH                    0.017181
     25 GH                   -0.000296
     26 GH                   -0.003261
     27 GH                    0.001940
     28 GH                    0.002778
     29 GH                    0.000487
     30 GH                   -0.000789
  ----------------------------------------
  Sum of atomic charges =    -0.000000

 -----------------------------------------------------------------
                    Cartesian Multipole Moments
 -----------------------------------------------------------------
    Charge (ESU x 10^10)
                -0.0000
    Dipole Moment (Debye)
         X       0.0625      Y       0.3876      Z       0.0392
       Tot       0.3945
    Quadrupole Moments (Debye-Ang)
        XX     -39.4002     XY      -0.7091     YY     -38.3374
        XZ       0.1743     YZ       2.4099     ZZ     -46.0597
    Octopole Moments (Debye-Ang^2)
       XXX     226.4702    XXY      -6.9324    XYY      74.0708
       YYY     -26.7166    XXZ    -174.5555    XYZ      -4.4135
       YYZ    -170.7007    XZZ      90.0322    YZZ       8.6766
       ZZZ    -613.0617
    Hexadecapole Moments (Debye-Ang^3)
      XXXX   -1159.0502   XXXY      47.8650   XXYY    -293.4129
      XYYY      56.8267   YYYY    -628.0537   XXXZ    1005.0839
      XXYZ     -35.9800   XYYZ     329.9840   YYYZ    -140.4530
      XXZZ   -1016.6442   XYZZ     -12.2440   YYZZ    -882.6450
      XZZZ    1190.8242   YZZZ     -17.9699   ZZZZ   -5494.1295
 -----------------------------------------------------------------
Archival summary:
1\1\vega03.cac.cornell.edu\SP\ProcedureUnspecified\BasisUnspecified\78h15\jj585\TueApr1700:50:442018TueApr1700:50:442018\0\\#,ProcedureUnspecified,BasisUnspecified,\\0,1\C\C,1,1.39616\H,2,1.08475,1,118.991\C,2,1.38856,1,121.629,3,179.783,0\H,4,1.08495,2,119.453,1,179.671,0\C,4,1.3959,2,121.575,1,-0.129654,0\H,6,1.032,4,121.26,2,-179.84,0\C,6,1.40604,4,117.481,2,0.160349,0\H,8,1.032,6,119.504,4,179.742,0\C,1,1.40634,2,117.536,3,-179.6,0\H,10,1.032,1,119.607,2,179.72,0\C,1,1.50976,2,119.611,3,-0.341033,0\H,12,1.09144,1,110.135,2,-7.24194,0\H,12,1.09156,1,111.21,2,113.289,0\H,12,1.09291,1,111.796,2,-127.427,0\Gh,15,2.65795,12,135.72,1,63.8122,0\Gh,16,1.09156,15,150.698,12,-11.1381,0\Gh,17,1.09144,16,108.669,15,71.7146,0\Gh,17,1.09291,16,106.802,15,-171.901,0\Gh,17,1.50976,16,111.21,15,-49.677,0\Gh,20,1.39616,17,119.611,16,113.289,0\Gh,21,1.08475,20,118.991,17,-0.341033,0\Gh,21,1.38856,20,121.629,17,179.442,0\Gh,23,1.08495,21,119.453,20,179.671,0\Gh,23,1.3959,21,121.575,20,-0.129654,0\Gh,25,1.032,23,121.26,21,-179.84,0\Gh,25,1.40604,23,117.481,21,0.160349,0\Gh,27,1.032,25,119.504,23,179.742,0\Gh,20,1.40634,17,122.848,16,-67.4939,0\Gh,29,1.032,20,119.607,17,0.487832,0\\\@

 Total job time:  85.01s(wall), 338.32s(cpu) 
 Tue Apr 17 00:50:44 2018

        *************************************************************
        *                                                           *
        *  Thank you very much for using Q-Chem.  Have a nice day.  *
        *                                                           *
        *************************************************************


0 sent ACK to 0 
now end server 0 ... 
