mFile = /opt/software/qchem/qchem-5.0.1//bin/mpi/machines
Process 0 of 1 is on vega03.cac.cornell.edu - thread support 0
initial socket setup ...start
initial socket setup ...done 
now start server 0 ... 
vega03 10.84.3
Q-Chem Developer Version! Running on 10.84.3.*
                  Welcome to Q-Chem
     A Quantum Leap Into The Future Of Chemistry


 Q-Chem 5.0, Q-Chem, Inc., Pleasanton, CA (2017)

 Yihan Shao,  Zhengting Gan,  E. Epifanovsky,  A. T. B. Gilbert,  M. Wormit,  
 J. Kussmann,  A. W. Lange,  A. Behn,  Jia Deng,  Xintian Feng,  D. Ghosh,  
 M. Goldey,  P. R. Horn,  L. D. Jacobson,  I. Kaliman,  T. Kus,  A. Landau,  
 Jie Liu,  E. I. Proynov,  R. M. Richard,  R. P. Steele,  E. J. Sundstrom,  
 H. L. Woodcock III,  P. M. Zimmerman,  D. Zuev,  B. Albrecht,  E. Alguire,  
 S. A. Baeppler,  Z. Benda,  Y. A. Bernard,  E. J. Berquist,  K. B. Bravaya,  
 D. Casanova,  Chun-Min Chang,  Yunqing Chen,  A. Chien,  K. D. Closser,  
 M. P. Coons,  S. Dasgupta,  M. Diedenhofen,  Hainam Do,  R. G. Edgar,  
 Po-Tung Fang,  S. Fatehi,  Qingguo Feng,  Qinghui Ge,  A. Ghysels,  
 J. Gomes,  J. Gonthier,  A. Gunina,  M. W. D. Hanson-Heine,  
 P. H. P. Harbach,  A. W. Hauser,  J. E. Herr,  E. G. Hohenstein,  
 Z. C. Holden,  Kerwin Hui,  T.-C. Jagau,  Hyunjun Ji,  B. Kaduk,  
 K. Khistyaev,  Jaehoon Kim,  P. Klunzinger,  K. Koh,  D. Kosenkov,  
 T. Kowalczyk,  C. M. Krauter,  A. Kunitsa,  Ka Un Lao,  A. Laurent,  
 K. V. Lawler,  Joonho Lee,  D. Lefrancois,  S. Lehtola,  D. S. Levine,  
 Yi-Pei Li,  You-Sheng Lin,  Fenglai Liu,  E. Livshits,  A. Luenser,  
 P. Manohar,  E. Mansoor,  S. F. Manzer,  Shan-Ping Mao,  Yuezhi Mao,  
 N. Mardirossian,  A. V. Marenich,  L. A. Martinez-Martinez,  S. A. Maurer,  
 N. J. Mayhall,  S. C. McKenzie,  J.-M. Mewes,  A. F. Morrison,  K. Nanda,  
 T. S. Nguyen-Beck,  R. Olivares-Amaya,  J. A. Parkhill,  T. M. Perrine,  
 F. Plasser,  S. Prager,  A. Prociuk,  D. R. Rehn,  F. Rob,  M. Schneider,  
 N. Sergueev,  S. M. Sharada,  S. Sharma,  D. W. Small,  T. Stauch,  
 T. Stein,  Yu-Chuan Su,  A. J. W. Thom,  T. Tsuchimochi,  L. Vogt,  
 O. Vydrov,  M. A. Watson,  J. Wenzel,  M. de Wergifosse,  T. A. Wesolowski,  
 A. White,  J. Witte,  A. Yamada,  Jun Yang,  K. Yao,  S. Yeganeh,  
 S. R. Yost,  Zhi-Qiang You,  A. Zech,  Igor Ying Zhang,  Xing Zhang,  
 Yan Zhao,  Ying Zhu,  B. R. Brooks,  G. K. L. Chan,  C. J. Cramer,  
 M. S. Gordon,  W. J. Hehre,  A. Klamt,  M. W. Schmidt,  C. D. Sherrill,  
 D. G. Truhlar,  A. Aspuru-Guzik,  R. Baer,  A. T. Bell,  N. A. Besley,  
 Jeng-Da Chai,  A. Dreuw,  B. D. Dunietz,  T. R. Furlani,  Chao-Ping Hsu,  
 Yousung Jung,  Jing Kong,  D. S. Lambrecht,  WanZhen Liang,  C. Ochsenfeld,  
 V. A. Rassolov,  L. V. Slipchenko,  J. E. Subotnik,  T. Van Voorhis,  
 J. M. Herbert,  A. I. Krylov,  P. M. W. Gill,  M. Head-Gordon

 Contributors to earlier versions of Q-Chem not listed above: 
 R. D. Adamson,  B. Austin,  J. Baker,  G. J. O. Beran,  K. Brandhorst,  
 S. T. Brown,  E. F. C. Byrd,  A. K. Chakraborty,  C.-L. Cheng,  
 Siu Hung Chien,  D. M. Chipman,  D. L. Crittenden,  H. Dachsel,  
 R. A. DiStasio Jr.,  R. J. Doerksen,  A. D. Dutoi,  L. Fusti-Molnar,  
 W. A. Goddard III,  A. Golubeva-Zadorozhnaya,  S. R. Gwaltney,  G. Hawkins,  
 A. Heyden,  S. Hirata,  G. Kedziora,  F. J. Keil,  C. Kelley,  Jihan Kim,  
 R. A. King,  R. Z. Khaliullin,  P. P. Korambath,  W. Kurlancheek,  
 A. M. Lee,  M. S. Lee,  S. V. Levchenko,  Ching Yeh Lin,  D. Liotard,  
 R. C. Lochan,  I. Lotan,  P. E. Maslen,  N. Nair,  D. P. O'Neill,  
 D. Neuhauser,  E. Neuscamman,  C. M. Oana,  R. Olson,  B. Peters,  
 R. Peverati,  P. A. Pieniazek,  Y. M. Rhee,  J. Ritchie,  M. A. Rohrdanz,  
 E. Rosta,  N. J. Russ,  H. F. Schaefer III,  N. E. Schultz,  N. Shenvi,  
 A. C. Simmonett,  A. Sodt,  D. Stuck,  K. S. Thanthiriwatte,  V. Vanovschi,  
 Tao Wang,  A. Warshel,  C. F. Williams,  Q. Wu,  X. Xu,  W. Zhang

 Please cite Q-Chem as follows:
 Y. Shao et al., Mol. Phys. 113, 184-215 (2015)
 DOI: 10.1080/00268976.2014.952696

 Q-Chem 5.0.1 for Intel X86 EM64T Linux

 Parts of Q-Chem use Armadillo 5.200.1 (Boston Tea Smuggler).
 http://arma.sourceforge.net/

 Q-Chem begins on Tue Apr 17 01:11:09 2018  

Host: vega03.cac.cornell.edu
0

     Scratch files written to /scratch/jj585/vdw/01n10_distance_5.700_01.save//
 Parallel job on  1  processors

Checking the input file for inconsistencies... 	...done.

--------------------------------------------------------------
User input:
--------------------------------------------------------------
$molecule
0  1
C        -2.28157000        +0.25789000        +5.27968000
C        -2.29422000        +1.66037000        +5.40150000
C        -3.48033000        -0.47457000        +5.22105000
C        -4.67665000        +0.24103000        +5.29372000
C        -4.69026000        +1.62414000        +5.41591000
C        -3.50874000        +2.36563000        +5.47467000
H        -5.64067000        +2.14484000        +5.46367000
H        -5.61605000        -0.30052000        +5.25669000
C        -3.57673000        +3.86905000        +5.59496000
C        -3.51816000        -1.98067000        +5.10067000
H        -3.13465000        -2.31064000        +4.13334000
H        -4.54285000        -2.34016000        +5.21030000
H        -2.90671000        -2.46618000        +5.86583000
H        -2.97927000        +4.36511000        +4.82592000
H        -3.19216000        +4.20586000        +6.55941000
H        -4.60924000        +4.20782000        +5.49295000
H        -1.37888000        -0.24007000        +5.23271000
H        -1.40162000        +2.17708000        +5.43754000
@C        -0.54444000        -0.68370000        -0.06689000
@C        -0.55709000        +0.71878000        +0.05493000
@C        -1.74320000        -1.41616000        -0.12552000
@C        -2.93952000        -0.70056000        -0.05285000
@C        -2.95313000        +0.68255000        +0.06934000
@C        -1.77161000        +1.42404000        +0.12810000
@H        -3.90354000        +1.20325000        +0.11710000
@H        -3.87892000        -1.24211000        -0.08988000
@C        -1.83960000        +2.92746000        +0.24839000
@C        -1.78103000        -2.92226000        -0.24590000
@H        -1.39752000        -3.25223000        -1.21323000
@H        -2.80572000        -3.28175000        -0.13627000
@H        -1.16958000        -3.40777000        +0.51926000
@H        -1.24214000        +3.42352000        -0.52065000
@H        -1.45503000        +3.26427000        +1.21284000
@H        -2.87211000        +3.26623000        +0.14638000
@H        +0.35825000        -1.18166000        -0.11386000
@H        +0.33551000        +1.23549000        +0.09097000
$end

$rem
JOBTYPE                   SP
METHOD                    B3LYP
DFT_D                     d3_op
BASIS                     6-311++G(d,p)
SYMMETRY                  False
THRESH                    12
SCF_CONVERGENCE           8
MAX_SUB_FILE_NUM          128
MEM_STATIC                400
MEM_TOTAL                 4000
$end
--------------------------------------------------------------
 Adding empirical dispersion correction 
 ----------------------------------------------------------------
 Doing -D3(op) with
 s6 =   1.00000
 s8 =   0.78311
 a1 =   0.30000
 a2 =   4.25000
 n  =  10.00000
 -D3 energy without 3body term =     -0.0145338490 hartrees
 ----------------------------------------------------------------
             Standard Nuclear Orientation (Angstroms)
    I     Atom           X                Y                Z
 ----------------------------------------------------------------
    1      C      -2.2815700000     0.2578900000     5.2796800000
    2      C      -2.2942200000     1.6603700000     5.4015000000
    3      C      -3.4803300000    -0.4745700000     5.2210500000
    4      C      -4.6766500000     0.2410300000     5.2937200000
    5      C      -4.6902600000     1.6241400000     5.4159100000
    6      C      -3.5087400000     2.3656300000     5.4746700000
    7      H      -5.6406700000     2.1448400000     5.4636700000
    8      H      -5.6160500000    -0.3005200000     5.2566900000
    9      C      -3.5767300000     3.8690500000     5.5949600000
   10      C      -3.5181600000    -1.9806700000     5.1006700000
   11      H      -3.1346500000    -2.3106400000     4.1333400000
   12      H      -4.5428500000    -2.3401600000     5.2103000000
   13      H      -2.9067100000    -2.4661800000     5.8658300000
   14      H      -2.9792700000     4.3651100000     4.8259200000
   15      H      -3.1921600000     4.2058600000     6.5594100000
   16      H      -4.6092400000     4.2078200000     5.4929500000
   17      H      -1.3788800000    -0.2400700000     5.2327100000
   18      H      -1.4016200000     2.1770800000     5.4375400000
   19      GH     -0.5444400000    -0.6837000000    -0.0668900000
   20      GH     -0.5570900000     0.7187800000     0.0549300000
   21      GH     -1.7432000000    -1.4161600000    -0.1255200000
   22      GH     -2.9395200000    -0.7005600000    -0.0528500000
   23      GH     -2.9531300000     0.6825500000     0.0693400000
   24      GH     -1.7716100000     1.4240400000     0.1281000000
   25      GH     -3.9035400000     1.2032500000     0.1171000000
   26      GH     -3.8789200000    -1.2421100000    -0.0898800000
   27      GH     -1.8396000000     2.9274600000     0.2483900000
   28      GH     -1.7810300000    -2.9222600000    -0.2459000000
   29      GH     -1.3975200000    -3.2522300000    -1.2132300000
   30      GH     -2.8057200000    -3.2817500000    -0.1362700000
   31      GH     -1.1695800000    -3.4077700000     0.5192600000
   32      GH     -1.2421400000     3.4235200000    -0.5206500000
   33      GH     -1.4550300000     3.2642700000     1.2128400000
   34      GH     -2.8721100000     3.2662300000     0.1463800000
   35      GH      0.3582500000    -1.1816600000    -0.1138600000
   36      GH      0.3355100000     1.2354900000     0.0909700000
 ----------------------------------------------------------------
 Nuclear Repulsion Energy =   339.8694378517 hartrees
 There are       29 alpha and       29 beta electrons
 Requested basis set is 6-311++G(d,p)
 There are 196 shells and 492 basis functions

 Total QAlloc Memory Limit   4000 MB
 Mega-Array Size       392 MB
 MEM_STATIC part       400 MB
 A cutoff of  1.0D-12 yielded  14653 shell pairs
 There are     91412 function pairs (     96624 Cartesian)
 
 -------------------------------------------------------
 OpenMP Integral Computing Module                       
 Release: version 1.0, May 2013, Q-Chem Inc. Pittsburgh 
 -------------------------------------------------------
 Integral Job Info:
 Integral job number is                      11
 Integral operator is                         1
 short-range coefficients                     0
 long-range coefficients              100000000
 Omega coefficients                           0
 if combine SR and LR in K                    0
 Integral screening is                        0
 Integral computing path is                   2
 max size of driver memory is            800000
 size of driver memory is                593474
 size of scratch memory is              2361544
 max col of scratch BK array               1296
 max len of scratch array in speh3          155
 max len of scratch index in speh4           18
 max int batch size is                      520
 min int batch size is                       52
 fixed nKL is                                52
 max L of basis functions is                  2
 order of int derivative is                   0
 number of shells is                        196
 number of basis is                         508
 number of cartesian basis is               508
 number of contracted shell pairs         14653
 number of primitive shell pairs          31610
 maxK2 (contraction) of shell pair           36
 max number of K2 of shell pair               1
 max number of CS2 of shell pair           2862
 max number of PS2 of shell pair           4596
 mem total for path MDJ                  147138
 -------------------------------------------------------
 Smallest overlap matrix eigenvalue = 6.52E-07
 Linear dependence detected in AO basis
 Number of orthogonalized atomic orbitals = 490
 Maximum deviation from orthogonality = 1.383E-10

 Scale SEOQF with 1.000000e-02/1.000000e-01/1.000000e-02

 Standard Electronic Orientation quadrupole field applied
 Nucleus-field energy     =     0.0000000037 hartrees
 Guess from superposition of atomic densities
 Warning:  Energy on first SCF cycle will be non-variational

 Q-Chem warning in module /opt/software/qchem/qchem-5.0.1/libgen/Atomic_PolEc.C, line 58:

 No atomic polarizability available.


 Q-Chem warning in module /opt/software/qchem/qchem-5.0.1/libgen/Atomic_PolEc.C, line 73:

 No atomic polarizability available.


 Q-Chem warning in module /opt/software/qchem/qchem-5.0.1/libgen/Atomic_PolEc.C, line 58:

 No atomic polarizability available.


 Q-Chem warning in module /opt/software/qchem/qchem-5.0.1/libgen/Atomic_PolEc.C, line 73:

 No atomic polarizability available.


 Q-Chem warning in module /opt/software/qchem/qchem-5.0.1/libgen/Atomic_PolEc.C, line 58:

 No atomic polarizability available.


 Q-Chem warning in module /opt/software/qchem/qchem-5.0.1/libgen/Atomic_PolEc.C, line 73:

 No atomic polarizability available.


 Q-Chem warning in module /opt/software/qchem/qchem-5.0.1/libgen/Atomic_PolEc.C, line 58:

 No atomic polarizability available.


 Q-Chem warning in module /opt/software/qchem/qchem-5.0.1/libgen/Atomic_PolEc.C, line 73:

 No atomic polarizability available.


 Q-Chem warning in module /opt/software/qchem/qchem-5.0.1/libgen/Atomic_PolEc.C, line 58:

 No atomic polarizability available.


 Q-Chem warning in module /opt/software/qchem/qchem-5.0.1/libgen/Atomic_PolEc.C, line 73:

 No atomic polarizability available.


 Q-Chem warning in module /opt/software/qchem/qchem-5.0.1/libgen/Atomic_PolEc.C, line 58:

 No atomic polarizability available.


 Q-Chem warning in module /opt/software/qchem/qchem-5.0.1/libgen/Atomic_PolEc.C, line 73:

 No atomic polarizability available.


 Q-Chem warning in module /opt/software/qchem/qchem-5.0.1/libgen/Atomic_PolEc.C, line 58:

 No atomic polarizability available.


 Q-Chem warning in module /opt/software/qchem/qchem-5.0.1/libgen/Atomic_PolEc.C, line 73:

 No atomic polarizability available.


 Q-Chem warning in module /opt/software/qchem/qchem-5.0.1/libgen/Atomic_PolEc.C, line 58:

 No atomic polarizability available.


 Q-Chem warning in module /opt/software/qchem/qchem-5.0.1/libgen/Atomic_PolEc.C, line 73:

 No atomic polarizability available.


 Q-Chem warning in module /opt/software/qchem/qchem-5.0.1/libgen/Atomic_PolEc.C, line 58:

 No atomic polarizability available.


 Q-Chem warning in module /opt/software/qchem/qchem-5.0.1/libgen/Atomic_PolEc.C, line 73:

 No atomic polarizability available.


 Q-Chem warning in module /opt/software/qchem/qchem-5.0.1/libgen/Atomic_PolEc.C, line 58:

 No atomic polarizability available.


 Q-Chem warning in module /opt/software/qchem/qchem-5.0.1/libgen/Atomic_PolEc.C, line 73:

 No atomic polarizability available.


 Q-Chem warning in module /opt/software/qchem/qchem-5.0.1/libgen/Atomic_PolEc.C, line 58:

 No atomic polarizability available.


 Q-Chem warning in module /opt/software/qchem/qchem-5.0.1/libgen/Atomic_PolEc.C, line 73:

 No atomic polarizability available.


 Q-Chem warning in module /opt/software/qchem/qchem-5.0.1/libgen/Atomic_PolEc.C, line 58:

 No atomic polarizability available.


 Q-Chem warning in module /opt/software/qchem/qchem-5.0.1/libgen/Atomic_PolEc.C, line 73:

 No atomic polarizability available.


 Q-Chem warning in module /opt/software/qchem/qchem-5.0.1/libgen/Atomic_PolEc.C, line 58:

 No atomic polarizability available.


 Q-Chem warning in module /opt/software/qchem/qchem-5.0.1/libgen/Atomic_PolEc.C, line 73:

 No atomic polarizability available.


 Q-Chem warning in module /opt/software/qchem/qchem-5.0.1/libgen/Atomic_PolEc.C, line 58:

 No atomic polarizability available.


 Q-Chem warning in module /opt/software/qchem/qchem-5.0.1/libgen/Atomic_PolEc.C, line 73:

 No atomic polarizability available.


 Q-Chem warning in module /opt/software/qchem/qchem-5.0.1/libgen/Atomic_PolEc.C, line 58:

 No atomic polarizability available.


 Q-Chem warning in module /opt/software/qchem/qchem-5.0.1/libgen/Atomic_PolEc.C, line 73:

 No atomic polarizability available.


 Q-Chem warning in module /opt/software/qchem/qchem-5.0.1/libgen/Atomic_PolEc.C, line 58:

 No atomic polarizability available.


 Q-Chem warning in module /opt/software/qchem/qchem-5.0.1/libgen/Atomic_PolEc.C, line 73:

 No atomic polarizability available.


 Q-Chem warning in module /opt/software/qchem/qchem-5.0.1/libgen/Atomic_PolEc.C, line 58:

 No atomic polarizability available.


 Q-Chem warning in module /opt/software/qchem/qchem-5.0.1/libgen/Atomic_PolEc.C, line 73:

 No atomic polarizability available.


 Q-Chem warning in module /opt/software/qchem/qchem-5.0.1/libgen/Atomic_PolEc.C, line 58:

 No atomic polarizability available.


 Q-Chem warning in module /opt/software/qchem/qchem-5.0.1/libgen/Atomic_PolEc.C, line 73:

 No atomic polarizability available.

 A restricted hybrid HF-DFT SCF calculation will be
 performed using Pulay DIIS extrapolation
 Exchange:     0.2000 Hartree-Fock + 0.0800 Slater + 0.7200 B88
 Correlation:  0.1900 VWN1RPA + 0.8100 LYP
 Using SG-1 standard quadrature grid
 Dispersion:   Grimme D3
 SCF converges when DIIS error is below 1.0E-08
 using 4 threads for integral computing
 -------------------------------------------------------
 OpenMP Integral computing Module                
 Release: version 1.0, May 2013, Q-Chem Inc. Pittsburgh 
 -------------------------------------------------------
 -------------------------------------------------------
 OpenMP BLAS3 based DFT computing Module                
 Release: version 1.0, May 2013, Q-Chem Inc. Pittsburgh 
 -------------------------------------------------------
 ---------------------------------------
  Cycle       Energy         DIIS Error
 ---------------------------------------
    1    -312.6528664607      2.00E-02
    2    -310.7986473376      2.30E-03
    3    -310.7765425344      2.45E-03
    4    -310.9750380884      1.78E-04
    5    -310.9756459081      1.10E-04
    6    -310.9759729680      2.44E-05
    7    -310.9759852879      1.35E-05
    8    -310.9759913212      1.71E-06
    9    -310.9759913934      8.44E-07
   10    -310.9759914145      9.42E-08
   11    -310.9759914148      9.29E-09 Convergence criterion met
 ---------------------------------------
 SCF time:  CPU 456.01 s  wall 114.45 s
 SCF   energy in the final basis set = -310.97599141
 Total energy in the final basis set = -310.97599141
 
 --------------------------------------------------------------
 
                    Orbital Energies (a.u.)
 --------------------------------------------------------------
 
 Alpha MOs
 -- Occupied --
-10.180 -10.180 -10.168 -10.168 -10.168 -10.167 -10.167 -10.167
 -0.859  -0.787  -0.745  -0.721  -0.658  -0.612  -0.577  -0.496
 -0.472  -0.460  -0.425  -0.421  -0.417  -0.404  -0.397  -0.376
 -0.345  -0.343  -0.339  -0.252  -0.236
 -- Virtual --
 -0.015  -0.011  -0.008   0.001   0.009   0.019   0.021   0.028
  0.031   0.036   0.043   0.047   0.050   0.052   0.056   0.061
  0.064   0.072   0.074   0.078   0.081   0.086   0.092   0.093
  0.094   0.096   0.103   0.107   0.111   0.116   0.118   0.120
  0.125   0.126   0.129   0.132   0.133   0.137   0.138   0.140
  0.145   0.148   0.153   0.155   0.157   0.160   0.165   0.166
  0.169   0.171   0.174   0.180   0.181   0.185   0.186   0.189
  0.192   0.196   0.199   0.201   0.204   0.206   0.213   0.216
  0.223   0.226   0.228   0.231   0.234   0.234   0.238   0.242
  0.247   0.252   0.257   0.258   0.260   0.263   0.268   0.273
  0.278   0.284   0.287   0.290   0.292   0.297   0.299   0.304
  0.305   0.311   0.318   0.326   0.331   0.338   0.341   0.345
  0.354   0.360   0.362   0.369   0.371   0.376   0.380   0.385
  0.390   0.392   0.405   0.414   0.424   0.431   0.434   0.451
  0.462   0.470   0.477   0.483   0.490   0.494   0.515   0.519
  0.522   0.527   0.535   0.548   0.550   0.559   0.567   0.571
  0.582   0.586   0.591   0.593   0.603   0.606   0.611   0.619
  0.624   0.630   0.632   0.640   0.649   0.656   0.656   0.663
  0.670   0.678   0.683   0.689   0.691   0.693   0.699   0.704
  0.713   0.727   0.730   0.740   0.746   0.759   0.765   0.773
  0.775   0.781   0.789   0.804   0.810   0.835   0.836   0.861
  0.867   0.890   0.902   0.904   0.913   0.923   0.934   0.948
  0.955   0.959   0.961   0.972   0.980   1.008   1.010   1.019
  1.025   1.038   1.046   1.048   1.081   1.087   1.092   1.102
  1.113   1.128   1.147   1.147   1.171   1.195   1.199   1.224
  1.238   1.327   1.329   1.337   1.370   1.373   1.398   1.418
  1.421   1.426   1.442   1.449   1.465   1.470   1.480   1.497
  1.509   1.531   1.534   1.539   1.551   1.556   1.561   1.566
  1.574   1.579   1.586   1.602   1.613   1.621   1.626   1.632
  1.649   1.677   1.682   1.686   1.700   1.705   1.721   1.726
  1.729   1.744   1.744   1.748   1.757   1.785   1.790   1.793
  1.802   1.821   1.831   1.833   1.840   1.843   1.852   1.858
  1.868   1.886   1.895   1.901   1.905   1.913   1.914   1.929
  1.945   1.948   1.972   1.979   1.982   1.983   2.012   2.019
  2.039   2.051   2.065   2.077   2.090   2.096   2.098   2.101
  2.105   2.131   2.140   2.150   2.158   2.193   2.208   2.215
  2.231   2.284   2.304   2.310   2.314   2.319   2.324   2.327
  2.336   2.401   2.411   2.415   2.424   2.425   2.437   2.446
  2.447   2.466   2.477   2.483   2.493   2.499   2.502   2.532
  2.537   2.554   2.566   2.569   2.579   2.584   2.593   2.596
  2.621   2.627   2.638   2.646   2.658   2.675   2.689   2.692
  2.716   2.744   2.751   2.756   2.771   2.787   2.792   2.803
  2.825   2.828   2.853   2.861   2.862   2.901   2.926   2.930
  2.939   2.953   2.958   2.971   2.982   2.983   3.007   3.013
  3.024   3.081   3.083   3.106   3.107   3.134   3.180   3.191
  3.192   3.236   3.238   3.304   3.311   3.350   3.365   3.369
  3.395   3.414   3.433   3.439   3.478   3.487   3.510   3.523
  3.531   3.551   3.568   3.599   3.609   3.614   3.648   3.662
  3.680   3.720   3.727   3.739   3.794   3.796   3.852   3.872
  3.981   4.037   4.050   4.084   4.192   4.216   4.293   4.298
  4.383   4.626   4.672   4.839   4.846   4.847   4.854   4.861
  4.900   4.941   5.020   5.199   5.553   7.069   7.122   7.167
  7.218   7.236   7.370   7.585   7.628   7.712   7.758   7.762
  7.771   7.780   7.796   7.837   7.853   7.854   7.886   7.987
  8.060   8.151   8.390   8.536   8.937   9.723   9.997  10.009
 10.220  10.240  10.279  10.291  10.359  23.640  23.931  23.952
 24.005  24.009  24.084  24.116  24.197  69.723  69.906  69.925
 69.963  70.003  70.013  70.041  70.053
 --------------------------------------------------------------
 
          Ground-State Mulliken Net Atomic Charges

     Atom                 Charge (a.u.)
  ----------------------------------------
      1 C                    -0.222671
      2 C                    -0.164602
      3 C                     0.626693
      4 C                    -0.586393
      5 C                    -0.547417
      6 C                     0.635880
      7 H                     0.145132
      8 H                     0.152008
      9 C                    -0.622863
     10 C                    -0.637471
     11 H                     0.161346
     12 H                     0.143713
     13 H                     0.147310
     14 H                     0.150097
     15 H                     0.158891
     16 H                     0.146737
     17 H                     0.163960
     18 H                     0.161513
     19 GH                    0.000241
     20 GH                   -0.007275
     21 GH                    0.005093
     22 GH                   -0.006039
     23 GH                   -0.008829
     24 GH                    0.011952
     25 GH                    0.000159
     26 GH                   -0.001393
     27 GH                   -0.008183
     28 GH                    0.002110
     29 GH                    0.000035
     30 GH                    0.000083
     31 GH                    0.000963
     32 GH                   -0.000573
     33 GH                   -0.000351
     34 GH                    0.001196
     35 GH                   -0.000401
     36 GH                   -0.000652
  ----------------------------------------
  Sum of atomic charges =    -0.000000

 -----------------------------------------------------------------
                    Cartesian Multipole Moments
 -----------------------------------------------------------------
    Charge (ESU x 10^10)
                -0.0000
    Dipole Moment (Debye)
         X       0.0917      Y       0.0024      Z      -0.0027
       Tot       0.0917
    Quadrupole Moments (Debye-Ang)
        XX     -46.5900     XY       0.0803     YY     -44.6913
        XZ       0.4579     YZ       0.6881     ZZ     -52.7499
    Octopole Moments (Debye-Ang^2)
       XXX     486.9400    XXY     -44.0093    XYY     157.6179
       YYY    -126.7664    XXZ    -248.8973    XYZ      -1.9275
       YYZ    -237.7074    XZZ     188.4559    YZZ     -42.5257
       ZZZ    -845.9980
    Hexadecapole Moments (Debye-Ang^3)
      XXXX   -3714.3846   XXXY     463.7455   XXYY    -823.9157
      XYYY     450.9839   YYYY   -1339.9687   XXXZ    2603.6464
      XXYZ    -241.7116   XYYZ     838.8026   YYYZ    -720.4862
      XXZZ   -2062.6171   XYZZ     154.1725   YYZZ   -1508.0442
      XZZZ    2999.3660   YZZZ    -782.7332   ZZZZ   -9130.6813
 -----------------------------------------------------------------
Archival summary:
1\1\vega03.cac.cornell.edu\SP\ProcedureUnspecified\BasisUnspecified\810h18\jj585\TueApr1701:13:052018TueApr1701:13:052018\0\\#,ProcedureUnspecified,BasisUnspecified,\\0,1\C\C,1,1.39616\H,2,1.08475,1,118.991\C,2,1.38856,1,121.629,3,179.783,0\H,4,1.08495,2,119.453,1,179.671,0\C,4,1.3959,2,121.575,1,-0.129654,0\C,6,1.40604,4,117.481,2,0.160349,0\H,7,1.032,6,119.504,4,179.742,0\C,1,1.40634,2,117.536,3,-179.6,0\H,9,1.032,1,119.607,2,179.72,0\C,1,1.50976,2,119.611,3,-0.341033,0\H,11,1.09144,1,110.135,2,-7.24194,0\H,11,1.09156,1,111.21,2,113.289,0\H,11,1.09291,1,111.796,2,-127.427,0\C,6,1.51138,4,119.574,2,179.468,0\H,15,1.09144,6,110.104,4,-7.00566,0\H,15,1.09164,6,111.284,4,113.49,0\H,15,1.09319,6,111.89,4,-127.081,0\Gh,14,4.07302,11,134.919,1,19.74,0\Gh,19,1.09156,14,137.335,11,61.3419,0\Gh,20,1.09144,19,108.669,14,23.1439,0\Gh,20,1.09291,19,106.802,14,139.528,0\Gh,20,1.50976,19,111.21,14,-98.2477,0\Gh,23,1.39616,20,119.611,19,113.289,0\Gh,24,1.08475,23,118.991,20,-0.341033,0\Gh,24,1.38856,23,121.629,20,179.442,0\Gh,26,1.08495,24,119.453,23,179.671,0\Gh,26,1.3959,24,121.575,23,-0.129654,0\Gh,28,1.40604,26,117.481,24,0.160349,0\Gh,29,1.032,28,119.504,26,179.742,0\Gh,23,1.40634,20,122.848,19,-67.4939,0\Gh,31,1.032,23,119.607,20,0.487832,0\Gh,28,1.51138,26,119.574,24,179.468,0\Gh,33,1.09144,28,110.104,26,-7.00566,0\Gh,33,1.09164,28,111.284,26,113.49,0\Gh,33,1.09319,28,111.89,26,-127.081,0\\\@

 Total job time:  115.39s(wall), 458.64s(cpu) 
 Tue Apr 17 01:13:05 2018

        *************************************************************
        *                                                           *
        *  Thank you very much for using Q-Chem.  Have a nice day.  *
        *                                                           *
        *************************************************************


0 sent ACK to 0 
now end server 0 ... 
