mFile = /opt/software/qchem/qchem-5.0.1//bin/mpi/machines
Process 0 of 1 is on vega03.cac.cornell.edu - thread support 0
initial socket setup ...start
initial socket setup ...done 
now start server 0 ... 
vega03 10.84.3
Q-Chem Developer Version! Running on 10.84.3.*
                  Welcome to Q-Chem
     A Quantum Leap Into The Future Of Chemistry


 Q-Chem 5.0, Q-Chem, Inc., Pleasanton, CA (2017)

 Yihan Shao,  Zhengting Gan,  E. Epifanovsky,  A. T. B. Gilbert,  M. Wormit,  
 J. Kussmann,  A. W. Lange,  A. Behn,  Jia Deng,  Xintian Feng,  D. Ghosh,  
 M. Goldey,  P. R. Horn,  L. D. Jacobson,  I. Kaliman,  T. Kus,  A. Landau,  
 Jie Liu,  E. I. Proynov,  R. M. Richard,  R. P. Steele,  E. J. Sundstrom,  
 H. L. Woodcock III,  P. M. Zimmerman,  D. Zuev,  B. Albrecht,  E. Alguire,  
 S. A. Baeppler,  Z. Benda,  Y. A. Bernard,  E. J. Berquist,  K. B. Bravaya,  
 D. Casanova,  Chun-Min Chang,  Yunqing Chen,  A. Chien,  K. D. Closser,  
 M. P. Coons,  S. Dasgupta,  M. Diedenhofen,  Hainam Do,  R. G. Edgar,  
 Po-Tung Fang,  S. Fatehi,  Qingguo Feng,  Qinghui Ge,  A. Ghysels,  
 J. Gomes,  J. Gonthier,  A. Gunina,  M. W. D. Hanson-Heine,  
 P. H. P. Harbach,  A. W. Hauser,  J. E. Herr,  E. G. Hohenstein,  
 Z. C. Holden,  Kerwin Hui,  T.-C. Jagau,  Hyunjun Ji,  B. Kaduk,  
 K. Khistyaev,  Jaehoon Kim,  P. Klunzinger,  K. Koh,  D. Kosenkov,  
 T. Kowalczyk,  C. M. Krauter,  A. Kunitsa,  Ka Un Lao,  A. Laurent,  
 K. V. Lawler,  Joonho Lee,  D. Lefrancois,  S. Lehtola,  D. S. Levine,  
 Yi-Pei Li,  You-Sheng Lin,  Fenglai Liu,  E. Livshits,  A. Luenser,  
 P. Manohar,  E. Mansoor,  S. F. Manzer,  Shan-Ping Mao,  Yuezhi Mao,  
 N. Mardirossian,  A. V. Marenich,  L. A. Martinez-Martinez,  S. A. Maurer,  
 N. J. Mayhall,  S. C. McKenzie,  J.-M. Mewes,  A. F. Morrison,  K. Nanda,  
 T. S. Nguyen-Beck,  R. Olivares-Amaya,  J. A. Parkhill,  T. M. Perrine,  
 F. Plasser,  S. Prager,  A. Prociuk,  D. R. Rehn,  F. Rob,  M. Schneider,  
 N. Sergueev,  S. M. Sharada,  S. Sharma,  D. W. Small,  T. Stauch,  
 T. Stein,  Yu-Chuan Su,  A. J. W. Thom,  T. Tsuchimochi,  L. Vogt,  
 O. Vydrov,  M. A. Watson,  J. Wenzel,  M. de Wergifosse,  T. A. Wesolowski,  
 A. White,  J. Witte,  A. Yamada,  Jun Yang,  K. Yao,  S. Yeganeh,  
 S. R. Yost,  Zhi-Qiang You,  A. Zech,  Igor Ying Zhang,  Xing Zhang,  
 Yan Zhao,  Ying Zhu,  B. R. Brooks,  G. K. L. Chan,  C. J. Cramer,  
 M. S. Gordon,  W. J. Hehre,  A. Klamt,  M. W. Schmidt,  C. D. Sherrill,  
 D. G. Truhlar,  A. Aspuru-Guzik,  R. Baer,  A. T. Bell,  N. A. Besley,  
 Jeng-Da Chai,  A. Dreuw,  B. D. Dunietz,  T. R. Furlani,  Chao-Ping Hsu,  
 Yousung Jung,  Jing Kong,  D. S. Lambrecht,  WanZhen Liang,  C. Ochsenfeld,  
 V. A. Rassolov,  L. V. Slipchenko,  J. E. Subotnik,  T. Van Voorhis,  
 J. M. Herbert,  A. I. Krylov,  P. M. W. Gill,  M. Head-Gordon

 Contributors to earlier versions of Q-Chem not listed above: 
 R. D. Adamson,  B. Austin,  J. Baker,  G. J. O. Beran,  K. Brandhorst,  
 S. T. Brown,  E. F. C. Byrd,  A. K. Chakraborty,  C.-L. Cheng,  
 Siu Hung Chien,  D. M. Chipman,  D. L. Crittenden,  H. Dachsel,  
 R. A. DiStasio Jr.,  R. J. Doerksen,  A. D. Dutoi,  L. Fusti-Molnar,  
 W. A. Goddard III,  A. Golubeva-Zadorozhnaya,  S. R. Gwaltney,  G. Hawkins,  
 A. Heyden,  S. Hirata,  G. Kedziora,  F. J. Keil,  C. Kelley,  Jihan Kim,  
 R. A. King,  R. Z. Khaliullin,  P. P. Korambath,  W. Kurlancheek,  
 A. M. Lee,  M. S. Lee,  S. V. Levchenko,  Ching Yeh Lin,  D. Liotard,  
 R. C. Lochan,  I. Lotan,  P. E. Maslen,  N. Nair,  D. P. O'Neill,  
 D. Neuhauser,  E. Neuscamman,  C. M. Oana,  R. Olson,  B. Peters,  
 R. Peverati,  P. A. Pieniazek,  Y. M. Rhee,  J. Ritchie,  M. A. Rohrdanz,  
 E. Rosta,  N. J. Russ,  H. F. Schaefer III,  N. E. Schultz,  N. Shenvi,  
 A. C. Simmonett,  A. Sodt,  D. Stuck,  K. S. Thanthiriwatte,  V. Vanovschi,  
 Tao Wang,  A. Warshel,  C. F. Williams,  Q. Wu,  X. Xu,  W. Zhang

 Please cite Q-Chem as follows:
 Y. Shao et al., Mol. Phys. 113, 184-215 (2015)
 DOI: 10.1080/00268976.2014.952696

 Q-Chem 5.0.1 for Intel X86 EM64T Linux

 Parts of Q-Chem use Armadillo 5.200.1 (Boston Tea Smuggler).
 http://arma.sourceforge.net/

 Q-Chem begins on Mon Apr  2 14:54:59 2018  

Host: vega03.cac.cornell.edu
0

     Scratch files written to /scratch/jj585/vdw/10n01_distance_4.800_10.save//
 Parallel job on  1  processors

Checking the input file for inconsistencies... 	...done.

--------------------------------------------------------------
User input:
--------------------------------------------------------------
$molecule
0  1
C        -0.54444000        -0.68370000        -0.06689000
C        -0.55709000        +0.71878000        +0.05493000
C        +0.74969000        -1.43776000        -0.09374000
C        +0.72843000        +1.48436000        +0.06598000
O        +1.53645000        -1.09176000        +0.94813000
O        +1.04702000        -2.28405000        -0.90088000
O        +1.53784000        +1.08301000        -0.93877000
O        +1.01035000        +2.37097000        +0.83478000
C        +2.83449000        +1.70121000        -0.99358000
C        +2.82316000        -1.73208000        +1.00475000
C        -1.74320000        -1.41616000        -0.12552000
C        -2.93952000        -0.70056000        -0.05285000
C        -2.95313000        +0.68255000        +0.06934000
C        -1.77161000        +1.42404000        +0.12810000
H        +2.73835000        +2.77989000        -1.12464000
H        +2.70778000        -2.81319000        +1.09555000
H        -3.90354000        +1.20325000        +0.11710000
H        +3.38998000        +1.50093000        -0.07544000
H        +3.33184000        +1.25269000        -1.85067000
H        +3.31095000        -1.32281000        +1.88650000
H        +3.39889000        -1.50934000        +0.10459000
H        -3.87892000        -1.24211000        -0.08988000
H        -1.78886000        +2.45164000        +0.22176000
H        -1.73878000        -2.44393000        -0.21875000
@C        -0.51141000        -1.10222000        +4.71472000
@C        -0.52406000        +0.30026000        +4.83654000
@C        +0.78272000        -1.85628000        +4.68787000
@C        +0.76146000        +1.06584000        +4.84759000
@O        +1.56948000        -1.51028000        +5.72974000
@O        +1.08005000        -2.70257000        +3.88073000
@O        +1.57087000        +0.66449000        +3.84284000
@O        +1.04338000        +1.95245000        +5.61639000
@C        +2.86752000        +1.28269000        +3.78803000
@C        +2.85619000        -2.15060000        +5.78636000
@C        -1.71017000        -1.83468000        +4.65609000
@C        -2.90649000        -1.11908000        +4.72876000
@C        -2.92010000        +0.26403000        +4.85095000
@C        -1.73858000        +1.00552000        +4.90971000
@H        +2.77138000        +2.36137000        +3.65697000
@H        +2.74081000        -3.23171000        +5.87716000
@H        -3.87051000        +0.78473000        +4.89871000
@H        +3.42301000        +1.08241000        +4.70617000
@H        +3.36487000        +0.83417000        +2.93094000
@H        +3.34398000        -1.74133000        +6.66811000
@H        +3.43192000        -1.92786000        +4.88620000
@H        -3.84589000        -1.66063000        +4.69173000
@H        -1.75583000        +2.03312000        +5.00337000
@H        -1.70575000        -2.86245000        +4.56286000
$end

$rem
JOBTYPE                   SP
METHOD                    B3LYP
DFT_D                     d3_op
BASIS                     6-311++G(d,p)
SYMMETRY                  False
THRESH                    12
SCF_CONVERGENCE           8
MAX_SUB_FILE_NUM          128
MEM_STATIC                400
MEM_TOTAL                 4000
$end
--------------------------------------------------------------
 Adding empirical dispersion correction 
 ----------------------------------------------------------------
 Doing -D3(op) with
 s6 =   1.00000
 s8 =   0.78311
 a1 =   0.30000
 a2 =   4.25000
 n  =  10.00000
 -D3 energy without 3body term =     -0.0247543049 hartrees
 ----------------------------------------------------------------
             Standard Nuclear Orientation (Angstroms)
    I     Atom           X                Y                Z
 ----------------------------------------------------------------
    1      C      -0.5444400000    -0.6837000000    -0.0668900000
    2      C      -0.5570900000     0.7187800000     0.0549300000
    3      C       0.7496900000    -1.4377600000    -0.0937400000
    4      C       0.7284300000     1.4843600000     0.0659800000
    5      O       1.5364500000    -1.0917600000     0.9481300000
    6      O       1.0470200000    -2.2840500000    -0.9008800000
    7      O       1.5378400000     1.0830100000    -0.9387700000
    8      O       1.0103500000     2.3709700000     0.8347800000
    9      C       2.8344900000     1.7012100000    -0.9935800000
   10      C       2.8231600000    -1.7320800000     1.0047500000
   11      C      -1.7432000000    -1.4161600000    -0.1255200000
   12      C      -2.9395200000    -0.7005600000    -0.0528500000
   13      C      -2.9531300000     0.6825500000     0.0693400000
   14      C      -1.7716100000     1.4240400000     0.1281000000
   15      H       2.7383500000     2.7798900000    -1.1246400000
   16      H       2.7077800000    -2.8131900000     1.0955500000
   17      H      -3.9035400000     1.2032500000     0.1171000000
   18      H       3.3899800000     1.5009300000    -0.0754400000
   19      H       3.3318400000     1.2526900000    -1.8506700000
   20      H       3.3109500000    -1.3228100000     1.8865000000
   21      H       3.3988900000    -1.5093400000     0.1045900000
   22      H      -3.8789200000    -1.2421100000    -0.0898800000
   23      H      -1.7888600000     2.4516400000     0.2217600000
   24      H      -1.7387800000    -2.4439300000    -0.2187500000
   25      GH     -0.5114100000    -1.1022200000     4.7147200000
   26      GH     -0.5240600000     0.3002600000     4.8365400000
   27      GH      0.7827200000    -1.8562800000     4.6878700000
   28      GH      0.7614600000     1.0658400000     4.8475900000
   29      GH      1.5694800000    -1.5102800000     5.7297400000
   30      GH      1.0800500000    -2.7025700000     3.8807300000
   31      GH      1.5708700000     0.6644900000     3.8428400000
   32      GH      1.0433800000     1.9524500000     5.6163900000
   33      GH      2.8675200000     1.2826900000     3.7880300000
   34      GH      2.8561900000    -2.1506000000     5.7863600000
   35      GH     -1.7101700000    -1.8346800000     4.6560900000
   36      GH     -2.9064900000    -1.1190800000     4.7287600000
   37      GH     -2.9201000000     0.2640300000     4.8509500000
   38      GH     -1.7385800000     1.0055200000     4.9097100000
   39      GH      2.7713800000     2.3613700000     3.6569700000
   40      GH      2.7408100000    -3.2317100000     5.8771600000
   41      GH     -3.8705100000     0.7847300000     4.8987100000
   42      GH      3.4230100000     1.0824100000     4.7061700000
   43      GH      3.3648700000     0.8341700000     2.9309400000
   44      GH      3.3439800000    -1.7413300000     6.6681100000
   45      GH      3.4319200000    -1.9278600000     4.8862000000
   46      GH     -3.8458900000    -1.6606300000     4.6917300000
   47      GH     -1.7558300000     2.0331200000     5.0033700000
   48      GH     -1.7057500000    -2.8624500000     4.5628600000
 ----------------------------------------------------------------
 Nuclear Repulsion Energy =   900.9237854012 hartrees
 There are       51 alpha and       51 beta electrons
 Requested basis set is 6-311++G(d,p)
 There are 268 shells and 756 basis functions

 Total QAlloc Memory Limit   4000 MB
 Mega-Array Size       392 MB
 MEM_STATIC part       400 MB
 A cutoff of  1.0D-12 yielded  25819 shell pairs
 There are    207769 function pairs (    221128 Cartesian)
 
 -------------------------------------------------------
 OpenMP Integral Computing Module                       
 Release: version 1.0, May 2013, Q-Chem Inc. Pittsburgh 
 -------------------------------------------------------
 Integral Job Info:
 Integral job number is                      11
 Integral operator is                         1
 short-range coefficients                     0
 long-range coefficients              100000000
 Omega coefficients                           0
 if combine SR and LR in K                    0
 Integral screening is                        0
 Integral computing path is                   2
 max size of driver memory is            800000
 size of driver memory is                593474
 size of scratch memory is              2361544
 max col of scratch BK array               1296
 max len of scratch array in speh3          155
 max len of scratch index in speh4           18
 max int batch size is                      520
 min int batch size is                       52
 fixed nKL is                                52
 max L of basis functions is                  2
 order of int derivative is                   0
 number of shells is                        268
 number of basis is                         784
 number of cartesian basis is               784
 number of contracted shell pairs         25819
 number of primitive shell pairs          57032
 maxK2 (contraction) of shell pair           36
 max number of K2 of shell pair               1
 max number of CS2 of shell pair           4978
 max number of PS2 of shell pair          10236
 mem total for path MDJ                  419736
 -------------------------------------------------------
 Smallest overlap matrix eigenvalue = 1.99E-07
 Linear dependence detected in AO basis
 Number of orthogonalized atomic orbitals = 751
 Maximum deviation from orthogonality = 2.635E-10

 Scale SEOQF with 1.000000e-01/1.000000e-01/1.000000e-02

 Standard Electronic Orientation quadrupole field applied
 Nucleus-field energy     =     0.0000000309 hartrees
 Guess from superposition of atomic densities
 Warning:  Energy on first SCF cycle will be non-variational

 Q-Chem warning in module /opt/software/qchem/qchem-5.0.1/libgen/Atomic_PolEc.C, line 58:

 No atomic polarizability available.


 Q-Chem warning in module /opt/software/qchem/qchem-5.0.1/libgen/Atomic_PolEc.C, line 73:

 No atomic polarizability available.


 Q-Chem warning in module /opt/software/qchem/qchem-5.0.1/libgen/Atomic_PolEc.C, line 58:

 No atomic polarizability available.


 Q-Chem warning in module /opt/software/qchem/qchem-5.0.1/libgen/Atomic_PolEc.C, line 73:

 No atomic polarizability available.


 Q-Chem warning in module /opt/software/qchem/qchem-5.0.1/libgen/Atomic_PolEc.C, line 58:

 No atomic polarizability available.


 Q-Chem warning in module /opt/software/qchem/qchem-5.0.1/libgen/Atomic_PolEc.C, line 73:

 No atomic polarizability available.


 Q-Chem warning in module /opt/software/qchem/qchem-5.0.1/libgen/Atomic_PolEc.C, line 58:

 No atomic polarizability available.


 Q-Chem warning in module /opt/software/qchem/qchem-5.0.1/libgen/Atomic_PolEc.C, line 73:

 No atomic polarizability available.


 Q-Chem warning in module /opt/software/qchem/qchem-5.0.1/libgen/Atomic_PolEc.C, line 58:

 No atomic polarizability available.


 Q-Chem warning in module /opt/software/qchem/qchem-5.0.1/libgen/Atomic_PolEc.C, line 73:

 No atomic polarizability available.


 Q-Chem warning in module /opt/software/qchem/qchem-5.0.1/libgen/Atomic_PolEc.C, line 58:

 No atomic polarizability available.


 Q-Chem warning in module /opt/software/qchem/qchem-5.0.1/libgen/Atomic_PolEc.C, line 73:

 No atomic polarizability available.


 Q-Chem warning in module /opt/software/qchem/qchem-5.0.1/libgen/Atomic_PolEc.C, line 58:

 No atomic polarizability available.


 Q-Chem warning in module /opt/software/qchem/qchem-5.0.1/libgen/Atomic_PolEc.C, line 73:

 No atomic polarizability available.


 Q-Chem warning in module /opt/software/qchem/qchem-5.0.1/libgen/Atomic_PolEc.C, line 58:

 No atomic polarizability available.


 Q-Chem warning in module /opt/software/qchem/qchem-5.0.1/libgen/Atomic_PolEc.C, line 73:

 No atomic polarizability available.


 Q-Chem warning in module /opt/software/qchem/qchem-5.0.1/libgen/Atomic_PolEc.C, line 58:

 No atomic polarizability available.


 Q-Chem warning in module /opt/software/qchem/qchem-5.0.1/libgen/Atomic_PolEc.C, line 73:

 No atomic polarizability available.


 Q-Chem warning in module /opt/software/qchem/qchem-5.0.1/libgen/Atomic_PolEc.C, line 58:

 No atomic polarizability available.


 Q-Chem warning in module /opt/software/qchem/qchem-5.0.1/libgen/Atomic_PolEc.C, line 73:

 No atomic polarizability available.


 Q-Chem warning in module /opt/software/qchem/qchem-5.0.1/libgen/Atomic_PolEc.C, line 58:

 No atomic polarizability available.


 Q-Chem warning in module /opt/software/qchem/qchem-5.0.1/libgen/Atomic_PolEc.C, line 73:

 No atomic polarizability available.


 Q-Chem warning in module /opt/software/qchem/qchem-5.0.1/libgen/Atomic_PolEc.C, line 58:

 No atomic polarizability available.


 Q-Chem warning in module /opt/software/qchem/qchem-5.0.1/libgen/Atomic_PolEc.C, line 73:

 No atomic polarizability available.


 Q-Chem warning in module /opt/software/qchem/qchem-5.0.1/libgen/Atomic_PolEc.C, line 58:

 No atomic polarizability available.


 Q-Chem warning in module /opt/software/qchem/qchem-5.0.1/libgen/Atomic_PolEc.C, line 73:

 No atomic polarizability available.


 Q-Chem warning in module /opt/software/qchem/qchem-5.0.1/libgen/Atomic_PolEc.C, line 58:

 No atomic polarizability available.


 Q-Chem warning in module /opt/software/qchem/qchem-5.0.1/libgen/Atomic_PolEc.C, line 73:

 No atomic polarizability available.


 Q-Chem warning in module /opt/software/qchem/qchem-5.0.1/libgen/Atomic_PolEc.C, line 58:

 No atomic polarizability available.


 Q-Chem warning in module /opt/software/qchem/qchem-5.0.1/libgen/Atomic_PolEc.C, line 73:

 No atomic polarizability available.


 Q-Chem warning in module /opt/software/qchem/qchem-5.0.1/libgen/Atomic_PolEc.C, line 58:

 No atomic polarizability available.


 Q-Chem warning in module /opt/software/qchem/qchem-5.0.1/libgen/Atomic_PolEc.C, line 73:

 No atomic polarizability available.


 Q-Chem warning in module /opt/software/qchem/qchem-5.0.1/libgen/Atomic_PolEc.C, line 58:

 No atomic polarizability available.


 Q-Chem warning in module /opt/software/qchem/qchem-5.0.1/libgen/Atomic_PolEc.C, line 73:

 No atomic polarizability available.


 Q-Chem warning in module /opt/software/qchem/qchem-5.0.1/libgen/Atomic_PolEc.C, line 58:

 No atomic polarizability available.


 Q-Chem warning in module /opt/software/qchem/qchem-5.0.1/libgen/Atomic_PolEc.C, line 73:

 No atomic polarizability available.


 Q-Chem warning in module /opt/software/qchem/qchem-5.0.1/libgen/Atomic_PolEc.C, line 58:

 No atomic polarizability available.


 Q-Chem warning in module /opt/software/qchem/qchem-5.0.1/libgen/Atomic_PolEc.C, line 73:

 No atomic polarizability available.


 Q-Chem warning in module /opt/software/qchem/qchem-5.0.1/libgen/Atomic_PolEc.C, line 58:

 No atomic polarizability available.


 Q-Chem warning in module /opt/software/qchem/qchem-5.0.1/libgen/Atomic_PolEc.C, line 73:

 No atomic polarizability available.


 Q-Chem warning in module /opt/software/qchem/qchem-5.0.1/libgen/Atomic_PolEc.C, line 58:

 No atomic polarizability available.


 Q-Chem warning in module /opt/software/qchem/qchem-5.0.1/libgen/Atomic_PolEc.C, line 73:

 No atomic polarizability available.


 Q-Chem warning in module /opt/software/qchem/qchem-5.0.1/libgen/Atomic_PolEc.C, line 58:

 No atomic polarizability available.


 Q-Chem warning in module /opt/software/qchem/qchem-5.0.1/libgen/Atomic_PolEc.C, line 73:

 No atomic polarizability available.


 Q-Chem warning in module /opt/software/qchem/qchem-5.0.1/libgen/Atomic_PolEc.C, line 58:

 No atomic polarizability available.


 Q-Chem warning in module /opt/software/qchem/qchem-5.0.1/libgen/Atomic_PolEc.C, line 73:

 No atomic polarizability available.


 Q-Chem warning in module /opt/software/qchem/qchem-5.0.1/libgen/Atomic_PolEc.C, line 58:

 No atomic polarizability available.


 Q-Chem warning in module /opt/software/qchem/qchem-5.0.1/libgen/Atomic_PolEc.C, line 73:

 No atomic polarizability available.

 A restricted hybrid HF-DFT SCF calculation will be
 performed using Pulay DIIS extrapolation
 Exchange:     0.2000 Hartree-Fock + 0.0800 Slater + 0.7200 B88
 Correlation:  0.1900 VWN1RPA + 0.8100 LYP
 Using SG-1 standard quadrature grid
 Dispersion:   Grimme D3
 SCF converges when DIIS error is below 1.0E-08
 using 2 threads for integral computing
 -------------------------------------------------------
 OpenMP Integral computing Module                
 Release: version 1.0, May 2013, Q-Chem Inc. Pittsburgh 
 -------------------------------------------------------
 -------------------------------------------------------
 OpenMP BLAS3 based DFT computing Module                
 Release: version 1.0, May 2013, Q-Chem Inc. Pittsburgh 
 -------------------------------------------------------
 ---------------------------------------
  Cycle       Energy         DIIS Error
 ---------------------------------------
    1    -691.1650405172      1.68E-02
    2    -687.9412334089      2.16E-03
    3    -687.4067928985      3.91E-03
    4    -688.1662217742      8.63E-04
    5    -688.2083734371      2.37E-04
    6    -688.2109365710      8.28E-05
    7    -688.2112929111      2.00E-05
    8    -688.2113140144      5.87E-06
    9    -688.2113160686      1.60E-06
   10    -688.2113161875      8.56E-07
   11    -688.2113162434      1.13E-07
   12    -688.2113162435      1.10E-07
   13    -688.2113162441      1.29E-08
   14    -688.2113162441      5.74E-09 Convergence criterion met
 ---------------------------------------
 SCF time:  CPU 2447.57 s  wall 1230.10 s
 SCF   energy in the final basis set = -688.21131624
 Total energy in the final basis set = -688.21131624
 
 --------------------------------------------------------------
 
                    Orbital Energies (a.u.)
 --------------------------------------------------------------
 
 Alpha MOs
 -- Occupied --
-19.178 -19.178 -19.122 -19.122 -10.314 -10.314 -10.233 -10.233
-10.215 -10.214 -10.198 -10.198 -10.197 -10.197  -1.123  -1.116
 -1.033  -1.032  -0.887  -0.800  -0.787  -0.744  -0.733  -0.656
 -0.646  -0.596  -0.579  -0.555  -0.524  -0.516  -0.493  -0.492
 -0.485  -0.479  -0.472  -0.468  -0.440  -0.431  -0.416  -0.408
 -0.389  -0.387  -0.384  -0.369  -0.366  -0.324  -0.315  -0.301
 -0.297  -0.275  -0.272
 -- Virtual --
 -0.061  -0.046  -0.013  -0.007   0.003   0.004   0.012   0.016
  0.019   0.020   0.025   0.032   0.034   0.039   0.040   0.045
  0.050   0.052   0.056   0.059   0.061   0.063   0.067   0.072
  0.077   0.080   0.084   0.091   0.093   0.095   0.096   0.099
  0.103   0.105   0.107   0.108   0.112   0.114   0.118   0.120
  0.124   0.126   0.128   0.130   0.132   0.134   0.138   0.140
  0.141   0.143   0.145   0.149   0.150   0.154   0.155   0.157
  0.161   0.161   0.163   0.166   0.171   0.174   0.177   0.179
  0.182   0.183   0.188   0.191   0.195   0.196   0.197   0.199
  0.203   0.207   0.211   0.211   0.213   0.218   0.221   0.222
  0.226   0.227   0.231   0.233   0.235   0.239   0.241   0.244
  0.247   0.250   0.251   0.253   0.258   0.261   0.262   0.264
  0.269   0.270   0.273   0.276   0.277   0.280   0.284   0.288
  0.292   0.293   0.296   0.300   0.306   0.308   0.312   0.315
  0.319   0.320   0.322   0.330   0.330   0.334   0.336   0.341
  0.342   0.348   0.349   0.351   0.354   0.357   0.361   0.362
  0.365   0.370   0.374   0.380   0.382   0.386   0.387   0.390
  0.393   0.395   0.397   0.403   0.405   0.413   0.417   0.420
  0.424   0.431   0.433   0.434   0.436   0.439   0.448   0.454
  0.458   0.463   0.469   0.471   0.479   0.484   0.491   0.493
  0.499   0.504   0.508   0.513   0.522   0.525   0.531   0.535
  0.538   0.546   0.551   0.553   0.556   0.563   0.567   0.572
  0.580   0.586   0.591   0.595   0.599   0.604   0.606   0.611
  0.612   0.621   0.626   0.631   0.633   0.635   0.642   0.644
  0.652   0.658   0.664   0.671   0.673   0.676   0.679   0.683
  0.687   0.691   0.695   0.702   0.705   0.709   0.712   0.715
  0.724   0.728   0.732   0.734   0.740   0.742   0.749   0.756
  0.762   0.763   0.772   0.775   0.781   0.788   0.797   0.801
  0.806   0.810   0.810   0.822   0.833   0.836   0.841   0.863
  0.867   0.872   0.883   0.891   0.892   0.899   0.908   0.919
  0.920   0.935   0.947   0.957   0.962   0.968   0.977   0.981
  0.994   0.997   1.000   1.008   1.017   1.024   1.030   1.031
  1.041   1.044   1.050   1.062   1.064   1.068   1.082   1.092
  1.097   1.101   1.102   1.116   1.121   1.124   1.127   1.144
  1.156   1.159   1.160   1.170   1.178   1.182   1.202   1.208
  1.219   1.225   1.229   1.233   1.237   1.241   1.257   1.266
  1.272   1.275   1.290   1.296   1.298   1.305   1.318   1.321
  1.338   1.354   1.363   1.376   1.386   1.390   1.401   1.412
  1.416   1.454   1.461   1.466   1.479   1.485   1.489   1.498
  1.521   1.524   1.525   1.539   1.545   1.553   1.556   1.557
  1.567   1.572   1.579   1.584   1.586   1.595   1.608   1.612
  1.617   1.623   1.629   1.640   1.656   1.659   1.671   1.685
  1.690   1.698   1.715   1.724   1.728   1.732   1.738   1.741
  1.748   1.748   1.760   1.763   1.769   1.780   1.783   1.792
  1.797   1.808   1.810   1.813   1.816   1.823   1.831   1.837
  1.842   1.847   1.851   1.857   1.866   1.876   1.886   1.898
  1.902   1.909   1.916   1.922   1.936   1.941   1.947   1.952
  1.959   1.967   1.971   1.975   1.980   1.991   1.999   2.005
  2.009   2.013   2.016   2.019   2.038   2.067   2.073   2.080
  2.089   2.094   2.107   2.118   2.124   2.130   2.136   2.145
  2.150   2.157   2.175   2.178   2.189   2.194   2.210   2.272
  2.281   2.284   2.309   2.312   2.334   2.345   2.351   2.352
  2.359   2.370   2.390   2.393   2.397   2.403   2.412   2.436
  2.440   2.462   2.490   2.492   2.498   2.499   2.504   2.505
  2.509   2.515   2.518   2.528   2.536   2.538   2.557   2.567
  2.601   2.605   2.608   2.616   2.630   2.637   2.642   2.648
  2.654   2.666   2.667   2.677   2.689   2.696   2.702   2.708
  2.731   2.733   2.734   2.745   2.750   2.756   2.765   2.770
  2.775   2.781   2.787   2.794   2.803   2.827   2.837   2.852
  2.862   2.870   2.880   2.883   2.886   2.898   2.902   2.902
  2.906   2.914   2.922   2.930   2.955   2.959   2.971   2.976
  3.004   3.008   3.028   3.044   3.045   3.051   3.055   3.062
  3.073   3.075   3.080   3.090   3.108   3.115   3.137   3.142
  3.165   3.179   3.206   3.220   3.227   3.236   3.243   3.248
  3.250   3.264   3.282   3.291   3.292   3.295   3.324   3.342
  3.353   3.357   3.362   3.375   3.385   3.391   3.416   3.428
  3.432   3.435   3.483   3.491   3.496   3.531   3.542   3.547
  3.558   3.562   3.577   3.590   3.593   3.606   3.612   3.619
  3.654   3.656   3.668   3.677   3.741   3.780   3.792   3.802
  3.821   3.837   3.872   3.896   3.907   3.921   3.954   4.023
  4.030   4.042   4.073   4.086   4.097   4.121   4.159   4.173
  4.250   4.274   4.329   4.345   4.540   4.551   4.574   4.592
  4.667   4.714   4.739   4.779   4.797   4.813   4.826   4.835
  4.841   4.889   4.904   4.958   4.968   4.976   4.986   5.045
  5.059   5.129   5.158   5.163   5.189   5.192   5.218   5.242
  5.259   5.308   5.333   5.406   5.442   5.516   5.566   5.579
  5.621   5.629   5.696   5.736   5.882   5.906   6.113   6.134
  7.107   7.185   7.191   7.278   7.288   7.383   7.400   7.437
  7.712   7.719   7.787   7.790   7.799   7.810   7.823   7.840
  7.849   7.870   7.885   7.919   7.962   8.002   8.014   8.036
  8.059   8.089   8.264   8.384   8.633   8.953   9.765  10.002
 10.018  10.059  10.093  10.216  10.241  10.268  10.290  10.331
 13.554  13.605  13.627  13.699  13.714  13.726  13.876  13.935
 14.154  14.184  14.297  14.310  18.569  18.600  18.712  18.762
 23.650  23.852  23.866  23.930  23.946  23.951  24.001  24.055
 24.082  24.175  49.897  49.928  50.017  50.029  69.776  69.890
 69.928  69.961  69.991  69.997  70.025  70.055  70.069  70.106
139.780 139.785 139.814 139.925
 --------------------------------------------------------------
 
          Ground-State Mulliken Net Atomic Charges

     Atom                 Charge (a.u.)
  ----------------------------------------
      1 C                     0.930944
      2 C                     0.787455
      3 C                    -0.638123
      4 C                    -0.811600
      5 O                     0.087451
      6 O                    -0.163808
      7 O                     0.085206
      8 O                    -0.116534
      9 C                    -0.163304
     10 C                    -0.376499
     11 C                    -0.301795
     12 C                    -0.309006
     13 C                    -0.270447
     14 C                    -0.517491
     15 H                     0.169102
     16 H                     0.203717
     17 H                     0.184338
     18 H                     0.183889
     19 H                     0.171980
     20 H                     0.114493
     21 H                     0.194087
     22 H                     0.181939
     23 H                     0.200751
     24 H                     0.206329
     25 GH                   -0.031556
     26 GH                   -0.041130
     27 GH                    0.066124
     28 GH                   -0.027828
     29 GH                    0.000355
     30 GH                   -0.006420
     31 GH                   -0.014126
     32 GH                    0.000851
     33 GH                    0.005965
     34 GH                   -0.009493
     35 GH                    0.028910
     36 GH                    0.002897
     37 GH                   -0.003599
     38 GH                   -0.005689
     39 GH                    0.000684
     40 GH                    0.000544
     41 GH                   -0.000270
     42 GH                    0.001574
     43 GH                   -0.003377
     44 GH                   -0.000637
     45 GH                    0.003274
     46 GH                    0.000120
     47 GH                    0.000321
     48 GH                   -0.000570
  ----------------------------------------
  Sum of atomic charges =     0.000000

 -----------------------------------------------------------------
                    Cartesian Multipole Moments
 -----------------------------------------------------------------
    Charge (ESU x 10^10)
                 0.0000
    Dipole Moment (Debye)
         X      -0.0493      Y      -0.1149      Z       0.0876
       Tot       0.1527
    Quadrupole Moments (Debye-Ang)
        XX     -61.3618     XY      -0.0399     YY     -84.3366
        XZ       0.0586     YZ      -9.7105     ZZ     -87.0197
    Octopole Moments (Debye-Ang^2)
       XXX     -28.9862    XXY      -0.3879    XYY     -27.4435
       YYY      -4.5321    XXZ       0.7298    XYZ     -18.4461
       YYZ       0.2189    XZZ      -6.0171    YZZ      -0.0282
       ZZZ       1.2830
    Hexadecapole Moments (Debye-Ang^3)
      XXXX   -1729.0224   XXXY       2.5906   XXYY    -472.1768
      XYYY      -0.3210   YYYY   -1216.7582   XXXZ       0.9813
      XXYZ     -21.5736   XYYZ       1.0124   YYYZ     -40.6376
      XXZZ    -377.3145   XYZZ       1.1769   YYZZ    -268.1987
      XZZZ       3.2152   YZZZ      15.7508   ZZZZ    -303.7711
 -----------------------------------------------------------------
Archival summary:
1\1\vega03.cac.cornell.edu\SP\ProcedureUnspecified\BasisUnspecified\41010h24\jj585\MonApr215:15:322018MonApr215:15:322018\0\\#,ProcedureUnspecified,BasisUnspecified,\\0,1\O\C,1,1.3512\O,2,1.2069,1,123.501\C,1,1.43752,2,116.164,3,4.8931,0\H,4,1.08772,1,105.376,2,179.706,0\H,4,1.09086,1,110.507,2,-60.681,0\H,4,1.09163,1,110.367,2,60.0909,0\C,2,1.49626,1,110.928,3,178.057,0\C,8,1.40634,2,119.012,1,-130.615,0\H,9,1.032,8,121.232,2,-2.14291,0\C,9,1.39616,8,117.536,2,177.857,0\H,11,1.08475,9,118.991,8,-179.6,0\C,11,1.38856,9,121.629,8,0.183585,0\H,13,1.08495,11,119.453,9,179.671,0\C,13,1.3959,11,121.575,9,-0.129654,0\H,15,1.032,13,121.26,11,-179.84,0\C,15,1.40604,13,117.481,11,0.160349,0\C,17,1.49803,15,118.266,13,177.84,0\O,18,1.20668,17,125.302,15,50.5403,0\O,18,1.35063,17,111.128,15,-126.75,0\C,20,1.43835,18,115.94,17,-178.519,0\H,21,1.08762,20,105.403,18,179.104,0\H,21,1.09103,20,110.475,18,-61.3232,0\H,21,1.0915,20,110.399,18,59.3962,0\Gh,22,2.39715,21,134.581,20,-36.8157,0\Gh,25,1.08772,22,134.755,21,100.793,0\Gh,26,1.09086,25,110.694,22,-152.015,0\Gh,26,1.09163,25,110.757,22,86.8302,0\Gh,26,1.43752,25,105.376,22,-32.5252,0\Gh,29,1.3512,26,116.164,25,179.706,0\Gh,30,1.2069,29,123.501,26,4.8931,0\Gh,30,1.49626,29,110.928,26,-177.05,0\Gh,32,1.40634,30,119.012,29,-130.615,0\Gh,33,1.032,32,121.232,30,-2.14291,0\Gh,33,1.39616,32,117.536,30,177.857,0\Gh,35,1.08475,33,118.991,32,-179.6,0\Gh,35,1.38856,33,121.629,32,0.183585,0\Gh,37,1.08495,35,119.453,33,179.671,0\Gh,37,1.3959,35,121.575,33,-0.129654,0\Gh,39,1.032,37,121.26,35,-179.84,0\Gh,39,1.40604,37,117.481,35,0.160349,0\Gh,41,1.49803,39,118.266,37,177.84,0\Gh,42,1.20668,41,125.302,39,50.5403,0\Gh,42,1.35063,41,111.128,39,-126.75,0\Gh,44,1.43835,42,115.94,41,-178.519,0\Gh,45,1.08762,44,105.403,42,179.104,0\Gh,45,1.09103,44,110.475,42,-61.3232,0\Gh,45,1.0915,44,110.399,42,59.3962,0\\\@

 Total job time:  1233.54s(wall), 2450.64s(cpu) 
 Mon Apr  2 15:15:32 2018

        *************************************************************
        *                                                           *
        *  Thank you very much for using Q-Chem.  Have a nice day.  *
        *                                                           *
        *************************************************************


0 sent ACK to 0 
now end server 0 ... 
