62
	Energy:     -15.2432057
C          3.81393       -1.73328        0.00588
C          4.00858       -0.23694       -0.30235
C          2.41370       -2.14133        0.42196
C          2.77814        0.64206       -0.32790
O          2.10712       -3.34336       -0.14753
O          1.67658       -1.52311        1.17350
O          1.87101        0.13348       -1.21474
O          2.66615        1.71951        0.23873
C          0.67355        0.90615       -1.31373
C          0.82184       -3.88178        0.19562
C          4.81977       -1.95377        1.15033
C          6.26096       -1.81517        0.62134
C          6.39774       -0.30152        0.43786
C          4.99412        0.18665        0.79783
O          4.68427       -0.71855        1.88480
H          4.09065       -2.32560       -0.87604
H          4.47888       -0.09957       -1.28554
C          4.62523       -3.17198        2.03125
H          6.99970       -2.15754        1.35523
H          6.42433       -2.37161       -0.30703
H          7.13173        0.08587        1.15389
H          6.71525       -0.01630       -0.56911
H          4.95903        1.23059        1.11688
C         -2.99767       -5.75286        2.80494
C         -1.79602       -6.70716        2.97460
C         -2.69045       -4.27104        2.86373
C         -0.42829       -6.05435        2.86713
O         -3.32394       -3.62818        1.84072
O         -1.98341       -3.72646        3.69762
O         -0.37737       -5.30034        1.72517
O          0.54097       -6.28070        3.57364
C          0.88017       -4.64411        1.51440
C         -3.07583       -2.22111        1.80218
C         -3.87602       -6.10618        4.00332
C         -4.49688       -7.48974        3.81875
C         -3.29707       -8.41215        4.04874
C         -2.15411       -7.40604        4.30991
O         -2.89026       -6.38420        5.02197
H         -3.51464       -5.96225        1.86001
H         -1.79851       -7.46156        2.17499
H         -2.00633       -2.02234        1.68077
H         -4.58192       -5.33423        4.32057
H         -5.25331       -7.67794        4.58900
H         -4.96277       -7.62627        2.83853
H         -3.49280       -9.03858        4.92722
H         -3.09985       -9.07518        3.20063
C         -1.05308       -7.99739        5.16465
H         -3.46202       -1.74039        2.70624
H         -3.60396       -1.80903        0.93783
H         -0.01141        0.38333       -1.98684
H          0.89031        1.89213       -1.73622
H          0.19146        0.99914       -0.33526
H          0.53176       -4.56462       -0.61115
H          0.04968       -3.10255        0.21497
H          1.68971       -5.38302        1.47291
H          1.08272       -3.95604        2.34316
H          4.67598       -4.09688        1.44872
H          3.66873       -3.13729        2.56264
H          5.39366       -3.21271        2.81154
H         -0.43643       -8.70024        4.59681
H         -1.47313       -8.53166        6.02490
H         -0.41906       -7.21772        5.59807
