62
	Energy:     -15.1157020
C          6.42597       -5.33809        2.40931
C          7.80482       -6.01662        2.30519
C          5.23201       -6.21194        2.07405
C          7.84070       -7.51286        2.09133
O          4.16562       -5.82434        2.83386
O          5.19715       -7.09717        1.23394
O          7.15012       -8.13221        3.09519
O          8.50084       -8.09118        1.24036
C          7.13902       -9.55671        2.98718
C          2.95296       -6.53764        2.56166
C          6.56498       -4.18914        1.39396
C          7.60274       -3.16272        1.89026
C          8.92745       -3.88571        1.63397
C          8.44790       -5.25007        1.13842
O          7.30949       -4.83946        0.34157
H          6.28600       -4.95366        3.42791
H          8.39210       -5.84569        3.21791
C          5.29234       -3.54384        0.88123
H          7.57671       -2.23793        1.30245
H          7.46084       -2.89778        2.94285
H          9.47795       -3.36452        0.84221
H          9.56689       -3.94090        2.51950
H          9.18778       -5.78755        0.54140
C         -3.01486       -6.01731        2.67480
C         -1.75230       -6.76769        3.14909
C         -2.79830       -4.56172        2.29979
C         -0.53561       -5.92551        3.47220
O         -1.76939       -4.48062        1.39932
O         -3.50616       -3.61763        2.61227
O          0.58698       -6.54918        3.01024
O         -0.54006       -4.86260        4.07394
C          1.80094       -5.83255        3.26518
C         -1.49195       -3.14964        0.95906
C         -3.99728       -6.32207        3.83237
C         -4.45506       -7.79379        3.71730
C         -3.19981       -8.56067        4.13905
C         -2.22251       -7.42794        4.44374
O         -3.11921       -6.42884        4.97784
H         -3.40658       -6.47855        1.75701
H         -1.46159       -7.51673        2.40165
H         -1.27147       -2.49828        1.81080
H         -5.26464       -8.02207        4.42073
H         -4.79877       -8.05861        2.71252
H         -3.41345       -9.13818        5.04556
H         -2.83666       -9.24878        3.37024
H         -1.43736       -7.69096        5.15746
H         -2.33233       -2.75913        0.37705
H         -0.60931       -3.18423        0.31454
H          6.51477       -9.95211        3.79313
H          8.15130       -9.95569        3.10504
H          6.70680       -9.86826        2.03093
H          1.98921       -5.79583        4.34487
H          1.72377       -4.80275        2.89439
H          3.04343       -7.56739        2.92698
H          2.75399       -6.57113        1.48331
H          5.52253       -2.75911        0.15173
H          4.71570       -3.09753        1.69715
H          4.66036       -4.26284        0.34963
C         -5.15507       -5.38284        4.09757
H         -5.75711       -5.22336        3.19814
H         -4.81095       -4.41960        4.48625
H         -5.81105       -5.78505        4.87848
