r0172.ten.osc.edu 10.25.155
Q-Chem Developer Version! Running on 10.25.155.*
                  Welcome to Q-Chem
     A Quantum Leap Into The Future Of Chemistry


 Q-Chem 5.0, Q-Chem, Inc., Pleasanton, CA (2017)

 Yihan Shao,  Zhengting Gan,  E. Epifanovsky,  A. T. B. Gilbert,  M. Wormit,  
 J. Kussmann,  A. W. Lange,  A. Behn,  Jia Deng,  Xintian Feng,  D. Ghosh,  
 M. Goldey,  P. R. Horn,  L. D. Jacobson,  I. Kaliman,  T. Kus,  A. Landau,  
 Jie Liu,  E. I. Proynov,  R. M. Richard,  R. P. Steele,  E. J. Sundstrom,  
 H. L. Woodcock III,  P. M. Zimmerman,  D. Zuev,  B. Albrecht,  E. Alguire,  
 S. A. Baeppler,  Z. Benda,  Y. A. Bernard,  E. J. Berquist,  K. B. Bravaya,  
 D. Casanova,  Chun-Min Chang,  Yunqing Chen,  A. Chien,  K. D. Closser,  
 M. P. Coons,  S. Dasgupta,  M. Diedenhofen,  Hainam Do,  R. G. Edgar,  
 Po-Tung Fang,  S. Fatehi,  Qingguo Feng,  Qinghui Ge,  A. Ghysels,  
 J. Gomes,  J. Gonthier,  A. Gunina,  M. W. D. Hanson-Heine,  
 P. H. P. Harbach,  A. W. Hauser,  J. E. Herr,  E. G. Hohenstein,  
 Z. C. Holden,  Kerwin Hui,  T.-C. Jagau,  Hyunjun Ji,  B. Kaduk,  
 K. Khistyaev,  Jaehoon Kim,  P. Klunzinger,  K. Koh,  D. Kosenkov,  
 T. Kowalczyk,  C. M. Krauter,  A. Kunitsa,  Ka Un Lao,  A. Laurent,  
 K. V. Lawler,  Joonho Lee,  D. Lefrancois,  S. Lehtola,  D. S. Levine,  
 Yi-Pei Li,  You-Sheng Lin,  Fenglai Liu,  E. Livshits,  A. Luenser,  
 P. Manohar,  E. Mansoor,  S. F. Manzer,  Shan-Ping Mao,  Yuezhi Mao,  
 N. Mardirossian,  A. V. Marenich,  L. A. Martinez-Martinez,  S. A. Maurer,  
 N. J. Mayhall,  S. C. McKenzie,  J.-M. Mewes,  A. F. Morrison,  K. Nanda,  
 T. S. Nguyen-Beck,  R. Olivares-Amaya,  J. A. Parkhill,  T. M. Perrine,  
 F. Plasser,  S. Prager,  A. Prociuk,  D. R. Rehn,  F. Rob,  M. Schneider,  
 N. Sergueev,  S. M. Sharada,  S. Sharma,  D. W. Small,  T. Stauch,  
 T. Stein,  Yu-Chuan Su,  A. J. W. Thom,  T. Tsuchimochi,  L. Vogt,  
 O. Vydrov,  M. A. Watson,  J. Wenzel,  M. de Wergifosse,  T. A. Wesolowski,  
 A. White,  J. Witte,  A. Yamada,  Jun Yang,  K. Yao,  S. Yeganeh,  
 S. R. Yost,  Zhi-Qiang You,  A. Zech,  Igor Ying Zhang,  Xing Zhang,  
 Yan Zhao,  Ying Zhu,  B. R. Brooks,  G. K. L. Chan,  C. J. Cramer,  
 M. S. Gordon,  W. J. Hehre,  A. Klamt,  M. W. Schmidt,  C. D. Sherrill,  
 D. G. Truhlar,  A. Aspuru-Guzik,  R. Baer,  A. T. Bell,  N. A. Besley,  
 Jeng-Da Chai,  A. Dreuw,  B. D. Dunietz,  T. R. Furlani,  Chao-Ping Hsu,  
 Yousung Jung,  Jing Kong,  D. S. Lambrecht,  WanZhen Liang,  C. Ochsenfeld,  
 V. A. Rassolov,  L. V. Slipchenko,  J. E. Subotnik,  T. Van Voorhis,  
 J. M. Herbert,  A. I. Krylov,  P. M. W. Gill,  M. Head-Gordon

 Contributors to earlier versions of Q-Chem not listed above: 
 R. D. Adamson,  B. Austin,  J. Baker,  G. J. O. Beran,  K. Brandhorst,  
 S. T. Brown,  E. F. C. Byrd,  A. K. Chakraborty,  C.-L. Cheng,  
 Siu Hung Chien,  D. M. Chipman,  D. L. Crittenden,  H. Dachsel,  
 R. A. DiStasio Jr.,  R. J. Doerksen,  A. D. Dutoi,  L. Fusti-Molnar,  
 W. A. Goddard III,  A. Golubeva-Zadorozhnaya,  S. R. Gwaltney,  G. Hawkins,  
 A. Heyden,  S. Hirata,  G. Kedziora,  F. J. Keil,  C. Kelley,  Jihan Kim,  
 R. A. King,  R. Z. Khaliullin,  P. P. Korambath,  W. Kurlancheek,  
 A. M. Lee,  M. S. Lee,  S. V. Levchenko,  Ching Yeh Lin,  D. Liotard,  
 R. C. Lochan,  I. Lotan,  P. E. Maslen,  N. Nair,  D. P. O'Neill,  
 D. Neuhauser,  E. Neuscamman,  C. M. Oana,  R. Olson,  B. Peters,  
 R. Peverati,  P. A. Pieniazek,  Y. M. Rhee,  J. Ritchie,  M. A. Rohrdanz,  
 E. Rosta,  N. J. Russ,  H. F. Schaefer III,  N. E. Schultz,  N. Shenvi,  
 A. C. Simmonett,  A. Sodt,  D. Stuck,  K. S. Thanthiriwatte,  V. Vanovschi,  
 Tao Wang,  A. Warshel,  C. F. Williams,  Q. Wu,  X. Xu,  W. Zhang

 Please cite Q-Chem as follows:
 Y. Shao et al., Mol. Phys. 113, 184-215 (2015)
 DOI: 10.1080/00268976.2014.952696

 Q-Chem 5.0.1 for Intel X86 EM64T Linux

 Parts of Q-Chem use Armadillo 5.200.1 (Boston Tea Smuggler).
 http://arma.sourceforge.net/

 Q-Chem begins on Sat Oct 14 21:21:09 2017  

Host: r0172.ten.osc.edu
0

     Scratch files written to /tmp/pbstmp.1310495/02//
Processing $rem in /users/PAS0291/osu6415/.qchemrc.
molden_format             true

Checking the input file for inconsistencies... 	...done.

--------------------------------------------------------------
User input:
--------------------------------------------------------------
$molecule
0 1
C -0.23313872 -1.12068470 -0.08249054
C -0.80218932 0.15525263 0.07736047
C 1.23898645 -1.37944316 -0.06849381
C 0.05630734 1.38272283 0.14937457
O 1.89847095 -0.51097977 0.72412165
O 1.77642849 -2.29318043 -0.64857661
O 0.80165684 1.50989010 -0.96773225
O 0.05410684 2.18253997 1.05186601
C 1.72734054 2.61071189 -0.98367380
C 3.32535067 -0.67357821 0.79380863
C -1.05670833 -2.24105567 -0.21755177
C -2.43716537 -2.09803905 -0.17092115
C -2.99635701 -0.83589183 0.00468080
C -2.19976111 0.30695306 0.12790747
H 1.19810383 3.56003513 -0.89043941
H 3.57791853 -1.68314349 1.11991115
H -4.07519112 -0.72729891 0.03871307
H 2.43904721 2.51462568 -0.16170415
H 2.23597868 2.54724984 -1.94297700
H 3.66382795 0.06220570 1.51973953
H 3.77453166 -0.48864144 -0.18369371
H -3.07767837 -2.96717767 -0.26828734
H -0.59839532 -3.21306658 -0.34837923
C -2.84991488 1.66019255 0.29295945
H -2.50762514 2.36592102 -0.46930972
H -2.60599122 2.09582807 1.26375903
H -3.93449399 1.57548200 0.20951049
$end

$rem
sym_ignore      true
jobtype         opt
method          b3lyp
basis           6-311++G(d,p)
dft_d           d3_op
mem_total       62000
MEM_STATIC      4000
ao2mo_disk      350000
max_scf_cycles  200
geom_opt_max_cycles 1000
geom_opt_tol_displacement 1
GEOM_OPT_TOL_GRADIENT       1
GEOM_OPT_TOL_ENERGY         1
$end

--------------------------------------------------------------
 Adding empirical dispersion correction 
 ----------------------------------------------------------------
 Doing -D3(op) with
 s6 =   1.00000
 s8 =   0.78311
 a1 =   0.30000
 a2 =   4.25000
 n  =  10.00000
 -D3 energy without 3body term =     -0.0287957797 hartrees
 ----------------------------------------------------------------
             Standard Nuclear Orientation (Angstroms)
    I     Atom           X                Y                Z
 ----------------------------------------------------------------
    1      C      -0.2331387200    -1.1206847000    -0.0824905400
    2      C      -0.8021893200     0.1552526300     0.0773604700
    3      C       1.2389864500    -1.3794431600    -0.0684938100
    4      C       0.0563073400     1.3827228300     0.1493745700
    5      O       1.8984709500    -0.5109797700     0.7241216500
    6      O       1.7764284900    -2.2931804300    -0.6485766100
    7      O       0.8016568400     1.5098901000    -0.9677322500
    8      O       0.0541068400     2.1825399700     1.0518660100
    9      C       1.7273405400     2.6107118900    -0.9836738000
   10      C       3.3253506700    -0.6735782100     0.7938086300
   11      C      -1.0567083300    -2.2410556700    -0.2175517700
   12      C      -2.4371653700    -2.0980390500    -0.1709211500
   13      C      -2.9963570100    -0.8358918300     0.0046808000
   14      C      -2.1997611100     0.3069530600     0.1279074700
   15      H       1.1981038300     3.5600351300    -0.8904394100
   16      H       3.5779185300    -1.6831434900     1.1199111500
   17      H      -4.0751911200    -0.7272989100     0.0387130700
   18      H       2.4390472100     2.5146256800    -0.1617041500
   19      H       2.2359786800     2.5472498400    -1.9429770000
   20      H       3.6638279500     0.0622057000     1.5197395300
   21      H       3.7745316600    -0.4886414400    -0.1836937100
   22      H      -3.0776783700    -2.9671776700    -0.2682873400
   23      H      -0.5983953200    -3.2130665800    -0.3483792300
   24      C      -2.8499148800     1.6601925500     0.2929594500
   25      H      -2.5076251400     2.3659210200    -0.4693097200
   26      H      -2.6059912200     2.0958280700     1.2637590300
   27      H      -3.9344939900     1.5754820000     0.2095104900
 ----------------------------------------------------------------
 Nuclear Repulsion Energy =  1018.3297610629 hartrees
 There are       55 alpha and       55 beta electrons
 Requested basis set is 6-311++G(d,p)
 There are 150 shells and 414 basis functions

 Total QAlloc Memory Limit  62000 MB
 Mega-Array Size      3911 MB
 MEM_STATIC part      4000 MB
 A cutoff of  1.0D-11 yielded   9129 shell pairs
 There are     71736 function pairs (     76773 Cartesian)
 
 -------------------------------------------------------
 OpenMP Integral Computing Module                       
 Release: version 1.0, May 2013, Q-Chem Inc. Pittsburgh 
 -------------------------------------------------------
 Integral Job Info:
 Integral job number is                      11
 Integral operator is                         1
 short-range coefficients                     0
 long-range coefficients              100000000
 Omega coefficients                           0
 if combine SR and LR in K                    0
 Integral screening is                        0
 Integral computing path is                   2
 max size of driver memory is            800000
 size of driver memory is                593474
 size of scratch memory is              2361544
 max col of scratch BK array               1296
 max len of scratch array in speh3          155
 max len of scratch index in speh4           18
 max int batch size is                      520
 min int batch size is                       52
 fixed nKL is                                52
 max L of basis functions is                  2
 order of int derivative is                   0
 number of shells is                        150
 number of basis is                         429
 number of cartesian basis is               429
 number of contracted shell pairs          9129
 number of primitive shell pairs          20976
 maxK2 (contraction) of shell pair           36
 max number of K2 of shell pair               1
 max number of CS2 of shell pair           1684
 max number of PS2 of shell pair           3396
 mem total for path MDJ                  143304
 -------------------------------------------------------
 Smallest overlap matrix eigenvalue = 1.37E-07

 Q-Chem warning in module /fs/scratch/osu6415/qchem-kaunlao-vdw/stvman/mkSTV.C, line 281:

 Overlap eigenvalue is smaller than square root of threshold

 Linear dependence detected in AO basis
 Number of orthogonalized atomic orbitals = 412
 Maximum deviation from orthogonality = 3.060E-10

 Scale SEOQF with 1.000000e-01/1.000000e-01/1.000000e-01

 Standard Electronic Orientation quadrupole field applied
 Nucleus-field energy     =     0.0000000332 hartrees
 Guess from superposition of atomic densities
 Warning:  Energy on first SCF cycle will be non-variational
 A restricted hybrid HF-DFT SCF calculation will be
 performed using Pulay DIIS extrapolation
 Exchange:     0.2000 Hartree-Fock + 0.0800 Slater + 0.7200 B88
 Correlation:  0.1900 VWN1RPA + 0.8100 LYP
 Using SG-1 standard quadrature grid
 Dispersion:   Grimme D3
 SCF converges when DIIS error is below 1.0E-08
 using 20 threads for integral computing
 -------------------------------------------------------
 OpenMP Integral computing Module                
 Release: version 1.0, May 2013, Q-Chem Inc. Pittsburgh 
 -------------------------------------------------------
 -------------------------------------------------------
 OpenMP BLAS3 based DFT computing Module                
 Release: version 1.0, May 2013, Q-Chem Inc. Pittsburgh 
 -------------------------------------------------------
 ---------------------------------------
  Cycle       Energy         DIIS Error
 ---------------------------------------
    1    -730.6790736447      3.18E-02
    2    -727.2488374969      4.09E-03
    3    -726.7333500973      7.11E-03
    4    -727.4939749825      1.71E-03
    5    -727.5439206559      4.16E-04
    6    -727.5462034458      1.69E-04
    7    -727.5466493930      3.38E-05
    8    -727.5466665735      1.18E-05
    9    -727.5466690724      3.35E-06
   10    -727.5466692489      1.57E-06
   11    -727.5466692972      3.66E-07
   12    -727.5466692988      1.95E-07
   13    -727.5466692992      5.58E-08
   14    -727.5466692991      1.25E-08
   15    -727.5466692996      5.66E-09 Convergence criterion met
 ---------------------------------------
 SCF time:  CPU 651.27 s  wall 36.21 s
 SCF   energy in the final basis set = -727.54666930
 Total energy in the final basis set = -727.54666930
 
 --------------------------------------------------------------
 
                    Orbital Energies (a.u.)
 --------------------------------------------------------------
 
 Alpha MOs
 -- Occupied --
-19.178 -19.177 -19.121 -19.119 -10.313 -10.312 -10.233 -10.233
-10.209 -10.208 -10.206 -10.192 -10.192 -10.191 -10.175  -1.122
 -1.116  -1.032  -1.031  -0.886  -0.801  -0.795  -0.747  -0.732
 -0.703  -0.655  -0.625  -0.580  -0.574  -0.550  -0.520  -0.513
 -0.494  -0.488  -0.483  -0.479  -0.471  -0.444  -0.434  -0.430
 -0.427  -0.415  -0.406  -0.399  -0.383  -0.377  -0.371  -0.365
 -0.361  -0.324  -0.313  -0.297  -0.294  -0.270  -0.263
 -- Virtual --
 -0.063  -0.038  -0.012  -0.005   0.003   0.007   0.012   0.019
  0.024   0.026   0.035   0.037   0.040   0.044   0.050   0.054
  0.061   0.064   0.071   0.081   0.084   0.090   0.093   0.100
  0.105   0.109   0.111   0.113   0.114   0.119   0.122   0.126
  0.127   0.133   0.137   0.141   0.141   0.144   0.145   0.154
  0.157   0.159   0.165   0.166   0.167   0.174   0.175   0.182
  0.185   0.187   0.192   0.199   0.204   0.209   0.211   0.218
  0.223   0.227   0.231   0.240   0.246   0.248   0.253   0.259
  0.265   0.272   0.277   0.281   0.285   0.289   0.292   0.296
  0.303   0.308   0.312   0.316   0.322   0.324   0.327   0.333
  0.343   0.345   0.351   0.356   0.358   0.365   0.373   0.376
  0.383   0.392   0.396   0.402   0.405   0.410   0.425   0.435
  0.462   0.469   0.484   0.487   0.500   0.506   0.513   0.520
  0.531   0.540   0.545   0.560   0.566   0.574   0.582   0.583
  0.593   0.602   0.609   0.621   0.630   0.636   0.643   0.650
  0.655   0.661   0.666   0.667   0.677   0.680   0.688   0.692
  0.704   0.716   0.725   0.731   0.738   0.748   0.764   0.767
  0.769   0.778   0.795   0.808   0.840   0.842   0.860   0.861
  0.875   0.880   0.914   0.919   0.934   0.947   0.969   0.973
  0.998   1.014   1.027   1.051   1.058   1.062   1.067   1.074
  1.092   1.112   1.118   1.140   1.169   1.188   1.202   1.205
  1.220   1.225   1.237   1.264   1.281   1.290   1.307   1.321
  1.340   1.366   1.369   1.380   1.395   1.408   1.416   1.441
  1.455   1.461   1.467   1.487   1.501   1.511   1.522   1.532
  1.541   1.548   1.554   1.565   1.579   1.581   1.592   1.600
  1.617   1.631   1.647   1.658   1.681   1.691   1.703   1.709
  1.717   1.725   1.732   1.735   1.752   1.775   1.784   1.789
  1.808   1.814   1.832   1.852   1.865   1.874   1.906   1.925
  1.935   1.948   1.966   1.975   1.983   2.013   2.020   2.036
  2.051   2.085   2.097   2.109   2.127   2.137   2.150   2.181
  2.197   2.205   2.234   2.260   2.300   2.336   2.378   2.405
  2.437   2.448   2.455   2.484   2.485   2.499   2.505   2.522
  2.544   2.556   2.568   2.577   2.587   2.599   2.602   2.645
  2.652   2.664   2.673   2.707   2.715   2.728   2.739   2.760
  2.773   2.787   2.806   2.826   2.830   2.840   2.849   2.870
  2.887   2.898   2.906   2.911   2.941   2.957   2.992   3.026
  3.039   3.054   3.068   3.089   3.110   3.120   3.174   3.193
  3.218   3.230   3.247   3.264   3.282   3.310   3.368   3.376
  3.397   3.437   3.526   3.544   3.584   3.616   3.632   3.688
  3.731   3.774   3.782   3.793   3.822   3.851   3.858   3.914
  4.034   4.040   4.062   4.112   4.120   4.141   4.265   4.336
  4.355   4.845   5.026   5.090   5.130   5.154   5.227   5.245
  5.389   5.418   5.616   5.639   5.862   5.875  23.560  23.845
 23.853  23.916  23.926  23.931  23.940  23.982  24.058  24.072
 24.172  49.878  49.909  50.016  50.024
 --------------------------------------------------------------
 
          Ground-State Mulliken Net Atomic Charges

     Atom                 Charge (a.u.)
  ----------------------------------------
      1 C                     0.389418
      2 C                     0.886508
      3 C                    -0.264292
      4 C                    -0.712620
      5 O                    -0.045519
      6 O                    -0.222417
      7 O                     0.077229
      8 O                    -0.169046
      9 C                    -0.233694
     10 C                    -0.241811
     11 C                    -0.463686
     12 C                    -0.178729
     13 C                    -0.580091
     14 C                     0.295802
     15 H                     0.172343
     16 H                     0.176751
     17 H                     0.121293
     18 H                     0.175100
     19 H                     0.160024
     20 H                     0.168692
     21 H                     0.188001
     22 H                     0.181520
     23 H                     0.182110
     24 C                    -0.589452
     25 H                     0.175449
     26 H                     0.199307
     27 H                     0.151808
  ----------------------------------------
  Sum of atomic charges =    -0.000000

 -----------------------------------------------------------------
                    Cartesian Multipole Moments
 -----------------------------------------------------------------
    Charge (ESU x 10^10)
                -0.0000
    Dipole Moment (Debye)
         X      -0.2279      Y       1.0103      Z      -0.3617
       Tot       1.0970
    Quadrupole Moments (Debye-Ang)
        XX     -71.0037     XY       7.5414     YY     -88.3882
        XZ       2.4386     YZ      -8.2631     ZZ     -93.1033
    Octopole Moments (Debye-Ang^2)
       XXX      32.3022    XXY      12.8088    XYY      -4.7759
       YYY      16.0706    XXZ       9.8054    XYZ     -13.9375
       YYZ      -9.8060    XZZ      16.8430    YZZ       5.4733
       ZZZ      -2.5936
    Hexadecapole Moments (Debye-Ang^3)
      XXXX   -1952.5453   XXXY       3.2546   XXYY    -598.2639
      XYYY      58.0702   YYYY   -1526.4040   XXXZ      32.1882
      XXYZ     -19.4319   XYYZ      12.0333   YYYZ     -57.4599
      XXZZ    -414.7866   XYZZ      -8.8483   YYZZ    -324.5902
      XZZZ      -1.9262   YZZZ     -12.5452   ZZZZ    -295.8825
 -----------------------------------------------------------------
 Calculating analytic gradient of the SCF energy
 Gradient of SCF Energy
            1           2           3           4           5           6
    1  -0.0000363   0.0000232   0.0000548  -0.0001050  -0.0000423  -0.0000465
    2  -0.0000054  -0.0000605   0.0001530   0.0001330   0.0000106  -0.0001519
    3  -0.0001237   0.0000452  -0.0001173  -0.0000590  -0.0000660   0.0001957
            7           8           9          10          11          12
    1   0.0000062   0.0001094   0.0000345   0.0000170  -0.0000310  -0.0000330
    2  -0.0000504  -0.0000714  -0.0000225  -0.0000096   0.0000007   0.0000285
    3   0.0000330   0.0000530  -0.0000629   0.0000680   0.0000108   0.0000152
           13          14          15          16          17          18
    1  -0.0000170   0.0000378   0.0000332  -0.0000141  -0.0000134   0.0000224
    2  -0.0000107   0.0000643  -0.0000049  -0.0000495   0.0000432  -0.0000107
    3   0.0000393  -0.0000167   0.0000186  -0.0000204  -0.0000089   0.0000103
           19          20          21          22          23          24
    1   0.0000177  -0.0000110  -0.0000021  -0.0000335  -0.0000213  -0.0000515
    2  -0.0000216  -0.0000510  -0.0000405   0.0000280   0.0000025  -0.0000170
    3   0.0000048   0.0000112   0.0000009  -0.0000018   0.0000037  -0.0000294
           25          26          27
    1   0.0000627   0.0000153   0.0000237
    2   0.0000432   0.0000301   0.0000406
    3   0.0000209   0.0000058  -0.0000302
 Max gradient component =       1.957E-04
 RMS gradient           =       5.440E-05
 Gradient time:  CPU 217.96 s  wall 17.51 s
 Geometry Optimization Parameters
   NAtoms,    NIC,     NZ,  NCons,   NDum,   NFix, NCnnct, MaxDiis
       27     173       0       0       0       0       0       0


** GEOMETRY OPTIMIZATION IN DELOCALIZED INTERNAL COORDINATES **
   Searching for a Minimum

   Optimization Cycle:   1

                       Coordinates (Angstroms)
     ATOM                X               Y               Z
      1  C        -0.2331387200   -1.1206847000   -0.0824905400
      2  C        -0.8021893200    0.1552526300    0.0773604700
      3  C         1.2389864500   -1.3794431600   -0.0684938100
      4  C         0.0563073400    1.3827228300    0.1493745700
      5  O         1.8984709500   -0.5109797700    0.7241216500
      6  O         1.7764284900   -2.2931804300   -0.6485766100
      7  O         0.8016568400    1.5098901000   -0.9677322500
      8  O         0.0541068400    2.1825399700    1.0518660100
      9  C         1.7273405400    2.6107118900   -0.9836738000
     10  C         3.3253506700   -0.6735782100    0.7938086300
     11  C        -1.0567083300   -2.2410556700   -0.2175517700
     12  C        -2.4371653700   -2.0980390500   -0.1709211500
     13  C        -2.9963570100   -0.8358918300    0.0046808000
     14  C        -2.1997611100    0.3069530600    0.1279074700
     15  H         1.1981038300    3.5600351300   -0.8904394100
     16  H         3.5779185300   -1.6831434900    1.1199111500
     17  H        -4.0751911200   -0.7272989100    0.0387130700
     18  H         2.4390472100    2.5146256800   -0.1617041500
     19  H         2.2359786800    2.5472498400   -1.9429770000
     20  H         3.6638279500    0.0622057000    1.5197395300
     21  H         3.7745316600   -0.4886414400   -0.1836937100
     22  H        -3.0776783700   -2.9671776700   -0.2682873400
     23  H        -0.5983953200   -3.2130665800   -0.3483792300
     24  C        -2.8499148800    1.6601925500    0.2929594500
     25  H        -2.5076251400    2.3659210200   -0.4693097200
     26  H        -2.6059912200    2.0958280700    1.2637590300
     27  H        -3.9344939900    1.5754820000    0.2095104900
   Point Group: c1    Number of degrees of freedom:    75


   Energy is   -727.546669300


 Attempting to Generate Delocalized Internal Coordinates

 75 Hessian modes will be used to form the next step
  Hessian Eigenvalues:
     0.007808    0.009228    0.009872    0.010568    0.010645    0.013619
     0.014156    0.016196    0.017920    0.018512    0.021742    0.022399
     0.022510    0.022557    0.023044    0.023332    0.023466    0.023725
     0.072267    0.072575    0.101389    0.101552    0.106024    0.106159
     0.159992    0.159993    0.159999    0.160000    0.160000    0.160000
     0.160000    0.160000    0.160000    0.160000    0.160000    0.160000
     0.220834    0.234534    0.248993    0.249753    0.249800    0.249847
     0.249868    0.249979    0.250000    0.250000    0.250000    0.250000
     0.313139    0.324163    0.329334    0.343839    0.346211    0.346344
     0.346388    0.346883    0.347122    0.347462    0.350845    0.350890
     0.354182    0.355108    0.356848    0.398077    0.398882    0.415857
     0.419003    0.449151    0.459944    0.462456    0.471563    0.552470
     0.554265    1.007081    1.019118

 Minimum Search - Taking Simple RFO Step
 Searching for Lamda that Minimizes Along All modes
 Value Taken    Lamda =  -0.00001151
 Step Taken.  Stepsize is  0.032014

                             Maximum     Tolerance    Cnvgd?
         Gradient           0.000160      0.000001      NO
         Displacement       0.013216      0.000001      NO
         Energy change     *********      0.000000      NO


 New Cartesian Coordinates Obtained by Inverse Iteration

 Displacement from previous Coordinates is:  0.061337
 Adding empirical dispersion correction 
 ----------------------------------------------------------------
 Doing -D3(op) with
 s6 =   1.00000
 s8 =   0.78311
 a1 =   0.30000
 a2 =   4.25000
 n  =  10.00000
 -D3 energy without 3body term =     -0.0288078491 hartrees
 ----------------------------------------------------------------
             Standard Nuclear Orientation (Angstroms)
    I     Atom           X                Y                Z
 ----------------------------------------------------------------
    1      C      -0.2338193098    -1.1210379311    -0.0785200143
    2      C      -0.8029214253     0.1550273852     0.0801450291
    3      C       1.2383457042    -1.3793893434    -0.0665170781
    4      C       0.0556197843     1.3825012932     0.1508563863
    5      O       1.8981188402    -0.5148375963     0.7301627772
    6      O       1.7772263665    -2.2832205445    -0.6606151897
    7      O       0.8055442056     1.5050699888    -0.9637252158
    8      O       0.0465403170     2.1882815976     1.0479881024
    9      C       1.7302585773     2.6066515938    -0.9809923460
   10      C       3.3259106124    -0.6722341789     0.7918059183
   11      C      -1.0573094350    -2.2412301828    -0.2153283122
   12      C      -2.4377867498    -2.0980970952    -0.1700127085
   13      C      -2.9970735840    -0.8358944249     0.0050107875
   14      C      -2.2005446445     0.3069049904     0.1287779461
   15      H       1.1997227447     3.5559669667    -0.8955743828
   16      H       3.5840547165    -1.6824846257     1.1113093563
   17      H      -4.0759327260    -0.7272276514     0.0377371678
   18      H       2.4380637789     2.5155386142    -0.1551131693
   19      H       2.2436398772     2.5384639875    -1.9374582509
   20      H       3.6651305820     0.0609983548     1.5199954512
   21      H       3.7694744195    -0.4801670869    -0.1868744032
   22      H      -3.0782569529    -2.9671624485    -0.2682618286
   23      H      -0.5989997885    -3.2132085036    -0.3463316995
   24      C      -2.8507070594     1.6603898277     0.2919043348
   25      H      -2.5099256623     2.3644605936    -0.4725580173
   26      H      -2.6055271641     2.0981894673     1.2613894536
   27      H      -3.9353999446     1.5751765126     0.2102817356
 ----------------------------------------------------------------
 Nuclear Repulsion Energy =  1018.3907365194 hartrees
 There are       55 alpha and       55 beta electrons
 Applying Cartesian multipole field
    Component          Value
    ---------          -----
     (2,0,0)        1.00000E-11
     (0,2,0)        2.00000E-11
     (0,0,2)       -3.00000E-11
 Nucleus-field energy     =     0.0000000332 hartrees
 Requested basis set is 6-311++G(d,p)
 There are 150 shells and 414 basis functions
 A cutoff of  1.0D-11 yielded   9125 shell pairs
 There are     71720 function pairs (     76757 Cartesian)
 Smallest overlap matrix eigenvalue = 1.37E-07

 Q-Chem warning in module /fs/scratch/osu6415/qchem-kaunlao-vdw/stvman/mkSTV.C, line 281:

 Overlap eigenvalue is smaller than square root of threshold

 Linear dependence detected in AO basis
 Number of orthogonalized atomic orbitals = 412
 Maximum deviation from orthogonality = 2.662E-10
 Guess MOs from SCF MO coefficient file
 Reading MOs from coefficient file
 Reading MOs from coefficient file
 A restricted hybrid HF-DFT SCF calculation will be
 performed using Pulay DIIS extrapolation
 Exchange:     0.2000 Hartree-Fock + 0.0800 Slater + 0.7200 B88
 Correlation:  0.1900 VWN1RPA + 0.8100 LYP
 Using SG-1 standard quadrature grid
 Dispersion:   Grimme D3
 SCF converges when DIIS error is below 1.0E-08
 Geometry optimization detected.  Setting ReadMinima to 0
 Setting SaveMinima to 0
 using 20 threads for integral computing
 -------------------------------------------------------
 OpenMP Integral computing Module                
 Release: version 1.0, May 2013, Q-Chem Inc. Pittsburgh 
 -------------------------------------------------------
 -------------------------------------------------------
 OpenMP BLAS3 based DFT computing Module                
 Release: version 1.0, May 2013, Q-Chem Inc. Pittsburgh 
 -------------------------------------------------------
 ---------------------------------------
  Cycle       Energy         DIIS Error
 ---------------------------------------
    1    -727.5453476169      1.72E-04
    2    -727.5466680999      1.14E-05
    3    -727.5466678721      1.58E-05
    4    -727.5466724488      5.76E-06
    5    -727.5466729705      1.88E-06
    6    -727.5466730136      9.66E-07
    7    -727.5466730297      3.07E-07
    8    -727.5466730313      6.95E-08
    9    -727.5466730314      2.57E-08
   10    -727.5466730337      1.23E-08
   11    -727.5466730321      4.13E-09 Convergence criterion met
 ---------------------------------------
 SCF time:  CPU 477.71 s  wall 27.38 s
 SCF   energy in the final basis set = -727.54667303
 Total energy in the final basis set = -727.54667303
 
 --------------------------------------------------------------
 
                    Orbital Energies (a.u.)
 --------------------------------------------------------------
 
 Alpha MOs
 -- Occupied --
-19.178 -19.177 -19.121 -19.119 -10.313 -10.312 -10.233 -10.233
-10.209 -10.208 -10.206 -10.192 -10.192 -10.191 -10.175  -1.122
 -1.116  -1.032  -1.031  -0.886  -0.801  -0.795  -0.747  -0.733
 -0.703  -0.655  -0.625  -0.580  -0.574  -0.550  -0.520  -0.513
 -0.494  -0.488  -0.483  -0.479  -0.471  -0.444  -0.434  -0.430
 -0.427  -0.415  -0.406  -0.399  -0.383  -0.377  -0.371  -0.365
 -0.361  -0.324  -0.313  -0.297  -0.294  -0.270  -0.263
 -- Virtual --
 -0.063  -0.038  -0.012  -0.005   0.003   0.007   0.012   0.019
  0.024   0.026   0.035   0.037   0.040   0.044   0.050   0.054
  0.061   0.064   0.071   0.081   0.084   0.090   0.093   0.100
  0.105   0.109   0.111   0.113   0.114   0.119   0.122   0.126
  0.127   0.133   0.137   0.141   0.141   0.144   0.145   0.154
  0.157   0.159   0.164   0.166   0.167   0.173   0.175   0.182
  0.185   0.188   0.192   0.200   0.204   0.209   0.211   0.218
  0.223   0.227   0.231   0.240   0.246   0.248   0.253   0.259
  0.265   0.272   0.277   0.281   0.285   0.289   0.292   0.296
  0.303   0.308   0.312   0.316   0.322   0.324   0.328   0.333
  0.343   0.345   0.352   0.356   0.358   0.365   0.372   0.375
  0.383   0.392   0.396   0.402   0.405   0.410   0.424   0.435
  0.462   0.469   0.484   0.489   0.500   0.506   0.513   0.520
  0.531   0.541   0.545   0.560   0.566   0.574   0.582   0.582
  0.593   0.602   0.609   0.621   0.630   0.635   0.643   0.650
  0.655   0.661   0.666   0.667   0.677   0.680   0.687   0.692
  0.703   0.716   0.725   0.731   0.738   0.748   0.763   0.767
  0.769   0.778   0.795   0.808   0.840   0.842   0.859   0.860
  0.874   0.879   0.914   0.919   0.934   0.947   0.969   0.973
  0.998   1.014   1.027   1.051   1.058   1.062   1.067   1.074
  1.093   1.112   1.118   1.140   1.170   1.189   1.202   1.205
  1.220   1.225   1.236   1.264   1.280   1.290   1.307   1.320
  1.340   1.366   1.369   1.380   1.394   1.408   1.417   1.441
  1.455   1.461   1.468   1.487   1.500   1.511   1.522   1.532
  1.541   1.549   1.554   1.565   1.579   1.581   1.592   1.600
  1.617   1.631   1.647   1.658   1.681   1.692   1.703   1.710
  1.716   1.725   1.732   1.735   1.753   1.774   1.784   1.790
  1.808   1.813   1.831   1.852   1.866   1.873   1.906   1.925
  1.935   1.947   1.965   1.975   1.983   2.012   2.020   2.037
  2.052   2.085   2.097   2.109   2.127   2.137   2.150   2.181
  2.197   2.205   2.234   2.260   2.300   2.336   2.378   2.406
  2.437   2.448   2.455   2.484   2.485   2.499   2.505   2.522
  2.544   2.557   2.568   2.577   2.587   2.599   2.603   2.646
  2.652   2.664   2.673   2.707   2.715   2.728   2.739   2.759
  2.773   2.787   2.806   2.826   2.830   2.840   2.850   2.870
  2.886   2.897   2.906   2.911   2.941   2.957   2.992   3.026
  3.040   3.054   3.068   3.089   3.110   3.120   3.174   3.194
  3.218   3.230   3.247   3.264   3.282   3.310   3.368   3.376
  3.397   3.437   3.526   3.544   3.584   3.617   3.631   3.688
  3.731   3.774   3.783   3.794   3.822   3.851   3.858   3.914
  4.033   4.039   4.062   4.112   4.120   4.141   4.264   4.336
  4.354   4.845   5.026   5.090   5.130   5.155   5.227   5.245
  5.389   5.417   5.616   5.638   5.862   5.875  23.560  23.845
 23.853  23.916  23.926  23.931  23.940  23.982  24.057  24.072
 24.172  49.878  49.908  50.016  50.024
 --------------------------------------------------------------
 
          Ground-State Mulliken Net Atomic Charges

     Atom                 Charge (a.u.)
  ----------------------------------------
      1 C                     0.391175
      2 C                     0.905803
      3 C                    -0.270496
      4 C                    -0.707503
      5 O                    -0.043936
      6 O                    -0.221531
      7 O                     0.076662
      8 O                    -0.169920
      9 C                    -0.234577
     10 C                    -0.241087
     11 C                    -0.482387
     12 C                    -0.176189
     13 C                    -0.580071
     14 C                     0.292618
     15 H                     0.172376
     16 H                     0.176625
     17 H                     0.121292
     18 H                     0.175308
     19 H                     0.160063
     20 H                     0.168590
     21 H                     0.187760
     22 H                     0.181540
     23 H                     0.181698
     24 C                    -0.590168
     25 H                     0.175480
     26 H                     0.199364
     27 H                     0.151512
  ----------------------------------------
  Sum of atomic charges =     0.000000

 -----------------------------------------------------------------
                    Cartesian Multipole Moments
 -----------------------------------------------------------------
    Charge (ESU x 10^10)
                -0.0000
    Dipole Moment (Debye)
         X      -0.2192      Y       0.9910      Z      -0.3465
       Tot       1.0725
    Quadrupole Moments (Debye-Ang)
        XX     -71.0034     XY       7.5490     YY     -88.3530
        XZ       2.4944     YZ      -8.2944     ZZ     -93.1383
    Octopole Moments (Debye-Ang^2)
       XXX      32.4210    XXY      12.7690    XYY      -4.5275
       YYY      15.4209    XXZ       9.7903    XYZ     -13.9545
       YYZ      -9.7964    XZZ      16.7696    YZZ       5.6063
       ZZZ      -2.6817
    Hexadecapole Moments (Debye-Ang^3)
      XXXX   -1954.0002   XXXY       3.2209   XXYY    -597.8155
      XYYY      57.3664   YYYY   -1524.1190   XXXZ      32.8410
      XXYZ     -19.6611   XYYZ      12.4909   YYYZ     -58.0462
      XXZZ    -415.2199   XYZZ      -8.6554   YYZZ    -324.4035
      XZZZ      -1.3356   YZZZ     -12.9291   ZZZZ    -295.7950
 -----------------------------------------------------------------
 Calculating analytic gradient of the SCF energy
 Gradient of SCF Energy
            1           2           3           4           5           6
    1   0.0000609  -0.0002452  -0.0002442   0.0004104   0.0001086   0.0000969
    2   0.0002936   0.0000446  -0.0008183  -0.0001065   0.0002757   0.0002054
    3  -0.0002377  -0.0000418   0.0010598   0.0002152  -0.0004470  -0.0003507
            7           8           9          10          11          12
    1  -0.0001314  -0.0001634   0.0000160   0.0000095  -0.0000524  -0.0000090
    2   0.0000352   0.0000242  -0.0000084  -0.0000445  -0.0000165   0.0000282
    3  -0.0000544  -0.0001032  -0.0000151   0.0000526  -0.0000889   0.0000258
           13          14          15          16          17          18
    1  -0.0000140   0.0000457   0.0000352  -0.0000350  -0.0000137   0.0000200
    2   0.0000153  -0.0000006  -0.0000095  -0.0000388   0.0000400  -0.0000295
    3   0.0000496  -0.0000447   0.0000017  -0.0000081  -0.0000105   0.0000008
           19          20          21          22          23          24
    1   0.0000181  -0.0000130   0.0000152  -0.0000255  -0.0000133   0.0000512
    2  -0.0000245  -0.0000328  -0.0000213   0.0000283   0.0000294   0.0000143
    3  -0.0000012   0.0000047   0.0000189   0.0000003   0.0000067  -0.0000646
           25          26          27
    1   0.0000384   0.0000094   0.0000245
    2   0.0000351   0.0000256   0.0000561
    3   0.0000051   0.0000428  -0.0000162
 Max gradient component =       1.060E-03
 RMS gradient           =       1.881E-04
 Gradient time:  CPU 211.90 s  wall 17.23 s
 Geometry Optimization Parameters
   NAtoms,    NIC,     NZ,  NCons,   NDum,   NFix, NCnnct, MaxDiis
       27     173       0       0       0       0       0       0

 Cartesian Hessian Update
 Hessian Updated using BFGS Update


** GEOMETRY OPTIMIZATION IN DELOCALIZED INTERNAL COORDINATES **
   Searching for a Minimum

   Optimization Cycle:   2

                       Coordinates (Angstroms)
     ATOM                X               Y               Z
      1  C        -0.2338193098   -1.1210379311   -0.0785200143
      2  C        -0.8029214253    0.1550273852    0.0801450291
      3  C         1.2383457042   -1.3793893434   -0.0665170781
      4  C         0.0556197843    1.3825012932    0.1508563863
      5  O         1.8981188402   -0.5148375963    0.7301627772
      6  O         1.7772263665   -2.2832205445   -0.6606151897
      7  O         0.8055442056    1.5050699888   -0.9637252158
      8  O         0.0465403170    2.1882815976    1.0479881024
      9  C         1.7302585773    2.6066515938   -0.9809923460
     10  C         3.3259106124   -0.6722341789    0.7918059183
     11  C        -1.0573094350   -2.2412301828   -0.2153283122
     12  C        -2.4377867498   -2.0980970952   -0.1700127085
     13  C        -2.9970735840   -0.8358944249    0.0050107875
     14  C        -2.2005446445    0.3069049904    0.1287779461
     15  H         1.1997227447    3.5559669667   -0.8955743828
     16  H         3.5840547165   -1.6824846257    1.1113093563
     17  H        -4.0759327260   -0.7272276514    0.0377371678
     18  H         2.4380637789    2.5155386142   -0.1551131693
     19  H         2.2436398772    2.5384639875   -1.9374582509
     20  H         3.6651305820    0.0609983548    1.5199954512
     21  H         3.7694744195   -0.4801670869   -0.1868744032
     22  H        -3.0782569529   -2.9671624485   -0.2682618286
     23  H        -0.5989997885   -3.2132085036   -0.3463316995
     24  C        -2.8507070594    1.6603898277    0.2919043348
     25  H        -2.5099256623    2.3644605936   -0.4725580173
     26  H        -2.6055271641    2.0981894673    1.2613894536
     27  H        -3.9353999446    1.5751765126    0.2102817356
   Point Group: c1    Number of degrees of freedom:    75


   Energy is   -727.546673032

 Hessian Updated using BFGS Update

 66 Hessian modes will be used to form the next step
  Hessian Eigenvalues:
     0.003539    0.007978    0.009397    0.010561    0.010611    0.013701
     0.016175    0.017635    0.017977    0.021722    0.022342    0.022441
     0.022554    0.023043    0.023331    0.023464    0.023724    0.064673
     0.072204    0.072701    0.101356    0.101589    0.106026    0.106159
     0.159961    0.159993    0.159996    0.160000    0.160396    0.220849
     0.234865    0.249013    0.249719    0.249803    0.249852    0.249874
     0.249990    0.249996    0.257247    0.313133    0.324129    0.329390
     0.343836    0.346248    0.346346    0.346390    0.346877    0.347117
     0.347464    0.350837    0.350882    0.354180    0.355109    0.356874
     0.398069    0.398814    0.415898    0.419570    0.449489    0.459909
     0.462459    0.471592    0.552446    0.554253    1.007292    1.019268

 Minimum Search - Taking Simple RFO Step
 Searching for Lamda that Minimizes Along All modes
 Value Taken    Lamda =  -0.00002002
 Step Taken.  Stepsize is  0.053025

                             Maximum     Tolerance    Cnvgd?
         Gradient           0.000461      0.000001      NO
         Displacement       0.028029      0.000001      NO
         Energy change     -0.000004      0.000000      NO


 New Cartesian Coordinates Obtained by Inverse Iteration

 Displacement from previous Coordinates is:  0.131982
 Adding empirical dispersion correction 
 ----------------------------------------------------------------
 Doing -D3(op) with
 s6 =   1.00000
 s8 =   0.78311
 a1 =   0.30000
 a2 =   4.25000
 n  =  10.00000
 -D3 energy without 3body term =     -0.0288048458 hartrees
 ----------------------------------------------------------------
             Standard Nuclear Orientation (Angstroms)
    I     Atom           X                Y                Z
 ----------------------------------------------------------------
    1      C      -0.2334603026    -1.1157409676    -0.0790373828
    2      C      -0.8051987932     0.1590390139     0.0802725080
    3      C       1.2394642597    -1.3691686687    -0.0760707585
    4      C       0.0508945235     1.3884505946     0.1454649811
    5      O       1.8974260000    -0.5222373696     0.7408326953
    6      O       1.7791522601    -2.2617423630    -0.6862002668
    7      O       0.8095607054     1.5011844888    -0.9642926078
    8      O       0.0370236159     2.2008891503     1.0365389531
    9      C       1.7362048356     2.6010709488    -0.9830140159
   10      C       3.3255150749    -0.6778422029     0.7983073950
   11      C      -1.0543825288    -2.2378455333    -0.2151764347
   12      C      -2.4350747390    -2.0980834369    -0.1666384378
   13      C      -2.9970562579    -0.8372384575     0.0097088618
   14      C      -2.2031750226     0.3075751180     0.1314667657
   15      H       1.2065243259     3.5519538588    -0.9111311385
   16      H       3.5861176404    -1.6931101280     1.0993174186
   17      H      -4.0760996914    -0.7312702595     0.0445976227
   18      H       2.4364681041     2.5161377382    -0.1501015196
   19      H       2.2580695382     2.5233775680    -1.9341793559
   20      H       3.6639317810     0.0427644157     1.5394065379
   21      H       3.7676837043    -0.4669255075    -0.1771005071
   22      H      -3.0736337916    -2.9686703684    -0.2638025253
   23      H      -0.5941400263    -3.2086247166    -0.3482747285
   24      C      -2.8566134245     1.6595818722     0.2940317084
   25      H      -2.5240051234     2.3616046871    -0.4758709228
   26      H      -2.6061690360     2.1020798330     1.2599524936
   27      H      -3.9415815517     1.5702202521     0.2204744908
 ----------------------------------------------------------------
 Nuclear Repulsion Energy =  1018.3103125478 hartrees
 There are       55 alpha and       55 beta electrons
 Applying Cartesian multipole field
    Component          Value
    ---------          -----
     (2,0,0)        1.00000E-11
     (0,2,0)        2.00000E-11
     (0,0,2)       -3.00000E-11
 Nucleus-field energy     =     0.0000000331 hartrees
 Requested basis set is 6-311++G(d,p)
 There are 150 shells and 414 basis functions
 A cutoff of  1.0D-11 yielded   9123 shell pairs
 There are     71703 function pairs (     76735 Cartesian)
 Smallest overlap matrix eigenvalue = 1.38E-07

 Q-Chem warning in module /fs/scratch/osu6415/qchem-kaunlao-vdw/stvman/mkSTV.C, line 281:

 Overlap eigenvalue is smaller than square root of threshold

 Linear dependence detected in AO basis
 Number of orthogonalized atomic orbitals = 412
 Maximum deviation from orthogonality = 4.678E-10
 Guess MOs from SCF MO coefficient file
 Reading MOs from coefficient file
 Reading MOs from coefficient file
 A restricted hybrid HF-DFT SCF calculation will be
 performed using Pulay DIIS extrapolation
 Exchange:     0.2000 Hartree-Fock + 0.0800 Slater + 0.7200 B88
 Correlation:  0.1900 VWN1RPA + 0.8100 LYP
 Using SG-1 standard quadrature grid
 Dispersion:   Grimme D3
 SCF converges when DIIS error is below 1.0E-08
 Geometry optimization detected.  Setting ReadMinima to 0
 Setting SaveMinima to 0
 using 20 threads for integral computing
 -------------------------------------------------------
 OpenMP Integral computing Module                
 Release: version 1.0, May 2013, Q-Chem Inc. Pittsburgh 
 -------------------------------------------------------
 -------------------------------------------------------
 OpenMP BLAS3 based DFT computing Module                
 Release: version 1.0, May 2013, Q-Chem Inc. Pittsburgh 
 -------------------------------------------------------
 ---------------------------------------
  Cycle       Energy         DIIS Error
 ---------------------------------------
    1    -727.5477935980      2.90E-04
    2    -727.5466483730      2.78E-05
    3    -727.5466261083      4.47E-05
    4    -727.5466685656      8.12E-06
    5    -727.5466695730      4.08E-06
    6    -727.5466698257      1.68E-06
    7    -727.5466698694      6.76E-07
    8    -727.5466698778      1.30E-07
    9    -727.5466698784      4.79E-08
   10    -727.5466698777      2.23E-08
   11    -727.5466698776      8.91E-09 Convergence criterion met
 ---------------------------------------
 SCF time:  CPU 484.78 s  wall 28.53 s
 SCF   energy in the final basis set = -727.54666988
 Total energy in the final basis set = -727.54666988
 
 --------------------------------------------------------------
 
                    Orbital Energies (a.u.)
 --------------------------------------------------------------
 
 Alpha MOs
 -- Occupied --
-19.178 -19.177 -19.121 -19.119 -10.313 -10.312 -10.233 -10.233
-10.209 -10.208 -10.206 -10.192 -10.192 -10.191 -10.174  -1.122
 -1.116  -1.032  -1.031  -0.886  -0.801  -0.795  -0.748  -0.733
 -0.703  -0.655  -0.625  -0.580  -0.574  -0.550  -0.520  -0.513
 -0.494  -0.489  -0.483  -0.479  -0.471  -0.444  -0.434  -0.430
 -0.427  -0.415  -0.406  -0.399  -0.383  -0.377  -0.371  -0.365
 -0.361  -0.324  -0.313  -0.297  -0.294  -0.270  -0.263
 -- Virtual --
 -0.063  -0.038  -0.012  -0.005   0.003   0.007   0.012   0.019
  0.024   0.025   0.034   0.037   0.040   0.044   0.050   0.054
  0.061   0.064   0.071   0.081   0.084   0.090   0.093   0.100
  0.105   0.109   0.111   0.113   0.114   0.119   0.122   0.126
  0.127   0.133   0.137   0.140   0.141   0.144   0.145   0.154
  0.157   0.159   0.165   0.166   0.167   0.174   0.175   0.182
  0.185   0.187   0.192   0.200   0.204   0.209   0.211   0.218
  0.223   0.227   0.231   0.240   0.246   0.248   0.253   0.259
  0.265   0.272   0.277   0.281   0.285   0.289   0.292   0.296
  0.303   0.308   0.312   0.315   0.322   0.325   0.328   0.333
  0.343   0.345   0.352   0.355   0.358   0.365   0.371   0.375
  0.383   0.392   0.396   0.403   0.405   0.410   0.424   0.434
  0.462   0.469   0.485   0.490   0.501   0.505   0.513   0.520
  0.531   0.541   0.545   0.560   0.566   0.575   0.581   0.582
  0.593   0.601   0.608   0.621   0.631   0.636   0.644   0.650
  0.655   0.661   0.666   0.667   0.677   0.679   0.687   0.692
  0.703   0.716   0.725   0.731   0.737   0.748   0.763   0.767
  0.769   0.779   0.796   0.808   0.838   0.842   0.859   0.860
  0.873   0.879   0.914   0.919   0.934   0.947   0.969   0.973
  0.998   1.014   1.026   1.051   1.058   1.063   1.068   1.074
  1.093   1.113   1.119   1.140   1.169   1.190   1.202   1.205
  1.221   1.223   1.235   1.266   1.279   1.290   1.307   1.320
  1.339   1.365   1.369   1.379   1.393   1.407   1.417   1.441
  1.455   1.461   1.468   1.487   1.500   1.511   1.522   1.532
  1.541   1.549   1.553   1.565   1.580   1.581   1.592   1.599
  1.616   1.631   1.646   1.659   1.682   1.692   1.703   1.710
  1.716   1.725   1.732   1.735   1.753   1.773   1.784   1.790
  1.808   1.810   1.831   1.853   1.867   1.872   1.907   1.925
  1.935   1.946   1.965   1.976   1.983   2.011   2.020   2.037
  2.051   2.085   2.097   2.108   2.126   2.136   2.150   2.181
  2.196   2.206   2.234   2.261   2.300   2.336   2.378   2.406
  2.436   2.448   2.455   2.484   2.485   2.499   2.505   2.522
  2.544   2.557   2.569   2.577   2.588   2.598   2.602   2.646
  2.652   2.664   2.674   2.707   2.714   2.728   2.739   2.758
  2.773   2.787   2.805   2.826   2.830   2.839   2.850   2.870
  2.886   2.897   2.907   2.910   2.941   2.957   2.992   3.026
  3.039   3.054   3.067   3.089   3.110   3.119   3.173   3.194
  3.218   3.229   3.248   3.263   3.283   3.310   3.367   3.376
  3.397   3.437   3.526   3.544   3.584   3.618   3.631   3.688
  3.729   3.775   3.783   3.794   3.822   3.850   3.858   3.913
  4.033   4.039   4.062   4.112   4.120   4.140   4.265   4.335
  4.353   4.845   5.028   5.090   5.130   5.157   5.227   5.245
  5.389   5.416   5.616   5.636   5.861   5.875  23.560  23.845
 23.853  23.916  23.926  23.931  23.940  23.981  24.057  24.072
 24.172  49.878  49.907  50.016  50.024
 --------------------------------------------------------------
 
          Ground-State Mulliken Net Atomic Charges

     Atom                 Charge (a.u.)
  ----------------------------------------
      1 C                     0.405662
      2 C                     0.922035
      3 C                    -0.288587
      4 C                    -0.694704
      5 O                    -0.038865
      6 O                    -0.220188
      7 O                     0.075133
      8 O                    -0.171520
      9 C                    -0.235106
     10 C                    -0.240517
     11 C                    -0.503971
     12 C                    -0.173783
     13 C                    -0.577666
     14 C                     0.285499
     15 H                     0.172281
     16 H                     0.176386
     17 H                     0.121221
     18 H                     0.175491
     19 H                     0.160405
     20 H                     0.168609
     21 H                     0.186762
     22 H                     0.181584
     23 H                     0.181278
     24 C                    -0.593069
     25 H                     0.175278
     26 H                     0.199273
     27 H                     0.151079
  ----------------------------------------
  Sum of atomic charges =    -0.000000

 -----------------------------------------------------------------
                    Cartesian Multipole Moments
 -----------------------------------------------------------------
    Charge (ESU x 10^10)
                 0.0000
    Dipole Moment (Debye)
         X      -0.2091      Y       0.9584      Z      -0.3153
       Tot       1.0304
    Quadrupole Moments (Debye-Ang)
        XX     -71.0077     XY       7.5291     YY     -88.2704
        XZ       2.5683     YZ      -8.3587     ZZ     -93.1828
    Octopole Moments (Debye-Ang^2)
       XXX      32.5422    XXY      12.5053    XYY      -4.0743
       YYY      13.7767    XXZ      10.1444    XYZ     -14.0476
       YYZ      -9.6426    XZZ      16.6738    YZZ       5.7671
       ZZZ      -2.1471
    Hexadecapole Moments (Debye-Ang^3)
      XXXX   -1956.9224   XXXY       3.7223   XXYY    -596.8064
      XYYY      56.6433   YYYY   -1519.2377   XXXZ      34.2406
      XXYZ     -20.2701   XYYZ      13.2406   YYYZ     -58.6113
      XXZZ    -416.0355   XYZZ      -7.9690   YYZZ    -324.2815
      XZZZ       0.4782   YZZZ     -12.9758   ZZZZ    -297.3640
 -----------------------------------------------------------------
 Calculating analytic gradient of the SCF energy
 Gradient of SCF Energy
            1           2           3           4           5           6
    1   0.0001556  -0.0001137  -0.0002639   0.0000763   0.0002180   0.0000691
    2  -0.0000128  -0.0000971   0.0000888   0.0003313  -0.0002180  -0.0000949
    3   0.0004032   0.0001147   0.0000547  -0.0000901  -0.0001176  -0.0000280
            7           8           9          10          11          12
    1  -0.0000941  -0.0000817  -0.0000526  -0.0000247  -0.0001543   0.0000285
    2   0.0000854  -0.0001072  -0.0000296  -0.0001029  -0.0000293  -0.0000164
    3  -0.0000865  -0.0000221   0.0000648   0.0000143  -0.0001832  -0.0000330
           13          14          15          16          17          18
    1   0.0000114   0.0000444   0.0000381  -0.0000313  -0.0000034   0.0000448
    2   0.0000505  -0.0000078  -0.0000148  -0.0000049   0.0000307  -0.0000432
    3   0.0000381  -0.0001243  -0.0000197   0.0000215  -0.0000045  -0.0000239
           19          20          21          22          23          24
    1   0.0000313  -0.0000110  -0.0000221  -0.0000210  -0.0000130   0.0001576
    2  -0.0000299  -0.0000200   0.0000149   0.0000295   0.0000364   0.0000708
    3  -0.0000052   0.0000212   0.0000239   0.0000052   0.0000199  -0.0001053
           25          26          27
    1   0.0000041  -0.0000042   0.0000118
    2   0.0000106   0.0000127   0.0000673
    3  -0.0000053   0.0000659   0.0000012
 Max gradient component =       4.032E-04
 RMS gradient           =       9.688E-05
 Gradient time:  CPU 213.58 s  wall 16.53 s
 Geometry Optimization Parameters
   NAtoms,    NIC,     NZ,  NCons,   NDum,   NFix, NCnnct, MaxDiis
       27     173       0       0       0       0       0       0

 Cartesian Hessian Update
 Hessian Updated using BFGS Update


** GEOMETRY OPTIMIZATION IN DELOCALIZED INTERNAL COORDINATES **
   Searching for a Minimum

   Optimization Cycle:   3

                       Coordinates (Angstroms)
     ATOM                X               Y               Z
      1  C        -0.2334603026   -1.1157409676   -0.0790373828
      2  C        -0.8051987932    0.1590390139    0.0802725080
      3  C         1.2394642597   -1.3691686687   -0.0760707585
      4  C         0.0508945235    1.3884505946    0.1454649811
      5  O         1.8974260000   -0.5222373696    0.7408326953
      6  O         1.7791522601   -2.2617423630   -0.6862002668
      7  O         0.8095607054    1.5011844888   -0.9642926078
      8  O         0.0370236159    2.2008891503    1.0365389531
      9  C         1.7362048356    2.6010709488   -0.9830140159
     10  C         3.3255150749   -0.6778422029    0.7983073950
     11  C        -1.0543825288   -2.2378455333   -0.2151764347
     12  C        -2.4350747390   -2.0980834369   -0.1666384378
     13  C        -2.9970562579   -0.8372384575    0.0097088618
     14  C        -2.2031750226    0.3075751180    0.1314667657
     15  H         1.2065243259    3.5519538588   -0.9111311385
     16  H         3.5861176404   -1.6931101280    1.0993174186
     17  H        -4.0760996914   -0.7312702595    0.0445976227
     18  H         2.4364681041    2.5161377382   -0.1501015196
     19  H         2.2580695382    2.5233775680   -1.9341793559
     20  H         3.6639317810    0.0427644157    1.5394065379
     21  H         3.7676837043   -0.4669255075   -0.1771005071
     22  H        -3.0736337916   -2.9686703684   -0.2638025253
     23  H        -0.5941400263   -3.2086247166   -0.3482747285
     24  C        -2.8566134245    1.6595818722    0.2940317084
     25  H        -2.5240051234    2.3616046871   -0.4758709228
     26  H        -2.6061690360    2.1020798330    1.2599524936
     27  H        -3.9415815517    1.5702202521    0.2204744908
   Point Group: c1    Number of degrees of freedom:    75


   Energy is   -727.546669878

 Hessian Updated using BFGS Update

 68 Hessian modes will be used to form the next step
  Hessian Eigenvalues:
     0.002294    0.007969    0.010209    0.010577    0.010659    0.014201
     0.016204    0.017954    0.019643    0.021919    0.022340    0.022470
     0.022828    0.023043    0.023355    0.023468    0.023726    0.066954
     0.072207    0.072656    0.101427    0.101701    0.106042    0.106182
     0.159900    0.159994    0.159996    0.160000    0.160056    0.160347
     0.221000    0.234830    0.249020    0.249698    0.249823    0.249848
     0.249953    0.249986    0.249998    0.250422    0.285979    0.313137
     0.325233    0.329289    0.343868    0.346147    0.346361    0.346389
     0.346883    0.347123    0.347509    0.350848    0.350923    0.354189
     0.355110    0.356863    0.398207    0.399135    0.417104    0.421218
     0.450131    0.459960    0.462459    0.472019    0.552371    0.554638
     1.007245    1.019139

 Minimum Search - Taking Simple RFO Step
 Searching for Lamda that Minimizes Along All modes
 Value Taken    Lamda =  -0.00001784
 Step Taken.  Stepsize is  0.058583

                             Maximum     Tolerance    Cnvgd?
         Gradient           0.000963      0.000001      NO
         Displacement       0.035293      0.000001      NO
         Energy change      0.000003      0.000000      NO


 New Cartesian Coordinates Obtained by Inverse Iteration

 Displacement from previous Coordinates is:  0.226547
 Adding empirical dispersion correction 
 ----------------------------------------------------------------
 Doing -D3(op) with
 s6 =   1.00000
 s8 =   0.78311
 a1 =   0.30000
 a2 =   4.25000
 n  =  10.00000
 -D3 energy without 3body term =     -0.0288963755 hartrees
 ----------------------------------------------------------------
             Standard Nuclear Orientation (Angstroms)
    I     Atom           X                Y                Z
 ----------------------------------------------------------------
    1      C      -0.2373729251    -1.1105558243    -0.0838696390
    2      C      -0.8118405524     0.1625122260     0.0764142642
    3      C       1.2366888579    -1.3560989616    -0.0882198216
    4      C       0.0443164995     1.3916723940     0.1396346770
    5      O       1.8909403534    -0.5155704949     0.7383884191
    6      O       1.7794207428    -2.2390321740    -0.7094203307
    7      O       0.8256914260     1.4860418773    -0.9560833541
    8      O       0.0245574685     2.2112014036     1.0241676407
    9      C       1.7611767908     2.5785592026    -0.9688712474
   10      C       3.3202368797    -0.6623071783     0.7888555042
   11      C      -1.0548420097    -2.2356990598    -0.2139755584
   12      C      -2.4357980805    -2.0998032284    -0.1604772624
   13      C      -3.0009338983    -0.8402050313     0.0150620576
   14      C      -2.2102963376     0.3073372826     0.1324178149
   15      H       1.2374323456     3.5342160864    -0.9210871858
   16      H       3.5886633694    -1.6778449072     1.0820591369
   17      H      -4.0801590917    -0.7375362233     0.0537860009
   18      H       2.4423440781     2.4993829821    -0.1197328882
   19      H       2.3030255555     2.4843929291    -1.9073036297
   20      H       3.6573751890     0.0555193904     1.5332340422
   21      H       3.7568950411    -0.4423212893    -0.1870365594
   22      H      -3.0721655207    -2.9724515224    -0.2535048910
   23      H      -0.5923868362    -3.2054117111    -0.3474564450
   24      C      -2.8683979710     1.6570863523     0.2952025646
   25      H      -2.5467004130     2.3568653047    -0.4813608584
   26      H      -2.6108452215     2.1055234995     1.2563353684
   27      H      -3.9535796598     1.5619562355     0.2323240102
 ----------------------------------------------------------------
 Nuclear Repulsion Energy =  1019.0643883235 hartrees
 There are       55 alpha and       55 beta electrons
 Applying Cartesian multipole field
    Component          Value
    ---------          -----
     (2,0,0)        1.00000E-11
     (0,2,0)        2.00000E-11
     (0,0,2)       -3.00000E-11
 Nucleus-field energy     =     0.0000000331 hartrees
 Requested basis set is 6-311++G(d,p)
 There are 150 shells and 414 basis functions
 A cutoff of  1.0D-11 yielded   9130 shell pairs
 There are     71756 function pairs (     76787 Cartesian)
 Smallest overlap matrix eigenvalue = 1.39E-07

 Q-Chem warning in module /fs/scratch/osu6415/qchem-kaunlao-vdw/stvman/mkSTV.C, line 281:

 Overlap eigenvalue is smaller than square root of threshold

 Linear dependence detected in AO basis
 Number of orthogonalized atomic orbitals = 412
 Maximum deviation from orthogonality = 4.218E-10
 Guess MOs from SCF MO coefficient file
 Reading MOs from coefficient file
 Reading MOs from coefficient file
 A restricted hybrid HF-DFT SCF calculation will be
 performed using Pulay DIIS extrapolation
 Exchange:     0.2000 Hartree-Fock + 0.0800 Slater + 0.7200 B88
 Correlation:  0.1900 VWN1RPA + 0.8100 LYP
 Using SG-1 standard quadrature grid
 Dispersion:   Grimme D3
 SCF converges when DIIS error is below 1.0E-08
 Geometry optimization detected.  Setting ReadMinima to 0
 Setting SaveMinima to 0
 using 20 threads for integral computing
 -------------------------------------------------------
 OpenMP Integral computing Module                
 Release: version 1.0, May 2013, Q-Chem Inc. Pittsburgh 
 -------------------------------------------------------
 -------------------------------------------------------
 OpenMP BLAS3 based DFT computing Module                
 Release: version 1.0, May 2013, Q-Chem Inc. Pittsburgh 
 -------------------------------------------------------
 ---------------------------------------
  Cycle       Energy         DIIS Error
 ---------------------------------------
    1    -727.5477741765      3.25E-04
    2    -727.5466296429      3.37E-05
    3    -727.5466160076      4.51E-05
    4    -727.5466591967      8.65E-06
    5    -727.5466603357      4.92E-06
    6    -727.5466608210      1.49E-06
    7    -727.5466608513      7.58E-07
    8    -727.5466608601      2.02E-07
    9    -727.5466608615      6.98E-08
   10    -727.5466608615      2.00E-08
   11    -727.5466608605      1.05E-08
   12    -727.5466608657      4.15E-09 Convergence criterion met
 ---------------------------------------
 SCF time:  CPU 519.74 s  wall 28.97 s
 SCF   energy in the final basis set = -727.54666087
 Total energy in the final basis set = -727.54666087
 
 --------------------------------------------------------------
 
                    Orbital Energies (a.u.)
 --------------------------------------------------------------
 
 Alpha MOs
 -- Occupied --
-19.178 -19.177 -19.121 -19.119 -10.313 -10.312 -10.233 -10.233
-10.209 -10.208 -10.206 -10.192 -10.192 -10.191 -10.174  -1.122
 -1.116  -1.032  -1.031  -0.886  -0.801  -0.795  -0.747  -0.733
 -0.703  -0.655  -0.625  -0.580  -0.574  -0.550  -0.520  -0.513
 -0.494  -0.489  -0.483  -0.478  -0.471  -0.444  -0.434  -0.430
 -0.427  -0.414  -0.406  -0.399  -0.384  -0.377  -0.371  -0.365
 -0.361  -0.324  -0.313  -0.297  -0.294  -0.270  -0.263
 -- Virtual --
 -0.063  -0.038  -0.012  -0.005   0.003   0.008   0.012   0.019
  0.024   0.025   0.035   0.037   0.040   0.044   0.051   0.054
  0.061   0.064   0.071   0.080   0.084   0.091   0.093   0.100
  0.105   0.109   0.111   0.113   0.114   0.119   0.122   0.126
  0.127   0.133   0.137   0.140   0.141   0.144   0.145   0.154
  0.157   0.159   0.165   0.166   0.167   0.174   0.175   0.182
  0.185   0.187   0.192   0.200   0.204   0.209   0.211   0.218
  0.223   0.228   0.231   0.239   0.245   0.248   0.253   0.259
  0.264   0.271   0.278   0.281   0.285   0.289   0.291   0.296
  0.303   0.308   0.312   0.315   0.322   0.325   0.328   0.334
  0.343   0.346   0.352   0.355   0.357   0.365   0.371   0.376
  0.383   0.391   0.397   0.402   0.405   0.410   0.423   0.433
  0.462   0.469   0.485   0.493   0.501   0.505   0.513   0.522
  0.532   0.542   0.545   0.560   0.566   0.575   0.580   0.583
  0.593   0.602   0.608   0.621   0.631   0.635   0.644   0.650
  0.655   0.661   0.666   0.667   0.677   0.678   0.687   0.692
  0.702   0.716   0.725   0.731   0.738   0.748   0.763   0.766
  0.769   0.780   0.796   0.808   0.838   0.843   0.859   0.860
  0.873   0.878   0.914   0.918   0.934   0.948   0.969   0.973
  0.998   1.014   1.026   1.052   1.057   1.062   1.069   1.074
  1.092   1.113   1.122   1.140   1.170   1.191   1.203   1.208
  1.220   1.223   1.234   1.267   1.279   1.290   1.310   1.319
  1.336   1.364   1.368   1.380   1.392   1.407   1.419   1.442
  1.457   1.461   1.469   1.486   1.500   1.511   1.522   1.533
  1.543   1.549   1.553   1.565   1.579   1.582   1.592   1.601
  1.616   1.631   1.646   1.659   1.683   1.693   1.703   1.713
  1.716   1.725   1.732   1.735   1.754   1.772   1.785   1.790
  1.808   1.809   1.830   1.853   1.867   1.870   1.908   1.925
  1.935   1.946   1.965   1.977   1.984   2.011   2.021   2.038
  2.052   2.084   2.097   2.108   2.126   2.136   2.150   2.181
  2.196   2.207   2.235   2.262   2.300   2.337   2.378   2.406
  2.436   2.449   2.455   2.484   2.485   2.498   2.505   2.522
  2.545   2.557   2.571   2.577   2.589   2.598   2.603   2.648
  2.653   2.664   2.674   2.707   2.714   2.728   2.739   2.757
  2.773   2.786   2.804   2.825   2.830   2.840   2.850   2.870
  2.887   2.897   2.908   2.910   2.942   2.958   2.993   3.027
  3.040   3.054   3.068   3.090   3.111   3.119   3.174   3.196
  3.218   3.228   3.248   3.262   3.283   3.311   3.367   3.377
  3.398   3.437   3.525   3.544   3.584   3.619   3.631   3.687
  3.730   3.775   3.782   3.794   3.822   3.851   3.859   3.912
  4.031   4.039   4.063   4.111   4.121   4.141   4.265   4.336
  4.353   4.846   5.025   5.091   5.132   5.162   5.227   5.245
  5.391   5.417   5.616   5.636   5.861   5.876  23.560  23.845
 23.854  23.917  23.926  23.932  23.940  23.982  24.057  24.072
 24.172  49.878  49.907  50.016  50.025
 --------------------------------------------------------------
 
          Ground-State Mulliken Net Atomic Charges

     Atom                 Charge (a.u.)
  ----------------------------------------
      1 C                     0.410263
      2 C                     0.952188
      3 C                    -0.304642
      4 C                    -0.679473
      5 O                    -0.038567
      6 O                    -0.218872
      7 O                     0.074105
      8 O                    -0.175239
      9 C                    -0.235839
     10 C                    -0.240954
     11 C                    -0.520703
     12 C                    -0.173567
     13 C                    -0.574383
     14 C                     0.276142
     15 H                     0.172200
     16 H                     0.176058
     17 H                     0.121148
     18 H                     0.176214
     19 H                     0.160536
     20 H                     0.168074
     21 H                     0.186685
     22 H                     0.181674
     23 H                     0.180966
     24 C                    -0.598270
     25 H                     0.174688
     26 H                     0.199063
     27 H                     0.150506
  ----------------------------------------
  Sum of atomic charges =    -0.000000

 -----------------------------------------------------------------
                    Cartesian Multipole Moments
 -----------------------------------------------------------------
    Charge (ESU x 10^10)
                -0.0000
    Dipole Moment (Debye)
         X      -0.2005      Y       0.9207      Z      -0.2806
       Tot       0.9832
    Quadrupole Moments (Debye-Ang)
        XX     -70.9785     XY       7.5918     YY     -88.2915
        XZ       2.6048     YZ      -8.3465     ZZ     -93.2287
    Octopole Moments (Debye-Ang^2)
       XXX      32.7891    XXY      12.5309    XYY      -3.6825
       YYY      11.8828    XXZ      10.3714    XYZ     -13.8791
       YYZ      -9.2710    XZZ      16.6076    YZZ       5.8443
       ZZZ      -1.4095
    Hexadecapole Moments (Debye-Ang^3)
      XXXX   -1965.0546   XXXY       2.1439   XXYY    -595.5370
      XYYY      52.8970   YYYY   -1508.2978   XXXZ      36.0591
      XXYZ     -21.2961   XYYZ      14.5762   YYYZ     -60.6742
      XXZZ    -417.3722   XYZZ      -8.5862   YYZZ    -322.5058
      XZZZ       3.9005   YZZZ     -14.9655   ZZZZ    -295.3275
 -----------------------------------------------------------------
 Calculating analytic gradient of the SCF energy
 Gradient of SCF Energy
            1           2           3           4           5           6
    1   0.0000768   0.0005050  -0.0002203  -0.0011952  -0.0001808   0.0000098
    2   0.0000267  -0.0006757   0.0003670   0.0010724   0.0002547  -0.0002063
    3   0.0004653   0.0002593  -0.0003128  -0.0005746  -0.0002499   0.0000007
            7           8           9          10          11          12
    1   0.0005381   0.0004959  -0.0000044   0.0000169  -0.0001663   0.0000289
    2  -0.0006507  -0.0004339   0.0000733  -0.0000902  -0.0000521  -0.0000234
    3   0.0004247   0.0002574   0.0000582  -0.0000040  -0.0000344  -0.0000408
           13          14          15          16          17          18
    1   0.0000058  -0.0000223   0.0000253  -0.0000490   0.0000015   0.0000791
    2   0.0000720   0.0000750  -0.0000245  -0.0000041   0.0000309   0.0000166
    3  -0.0000229  -0.0001939  -0.0000340   0.0000206   0.0000130  -0.0000578
           19          20          21          22          23          24
    1   0.0000512  -0.0000012  -0.0000256  -0.0000181  -0.0000304   0.0001305
    2  -0.0000245  -0.0000173   0.0000067   0.0000274   0.0000183   0.0000961
    3   0.0000077   0.0000100   0.0000235  -0.0000026   0.0000109  -0.0000441
           25          26          27
    1  -0.0000207  -0.0000230  -0.0000073
    2  -0.0000083   0.0000115   0.0000625
    3  -0.0000195   0.0000322   0.0000078
 Max gradient component =       1.195E-03
 RMS gradient           =       2.710E-04
 Gradient time:  CPU 212.60 s  wall 16.41 s
 Geometry Optimization Parameters
   NAtoms,    NIC,     NZ,  NCons,   NDum,   NFix, NCnnct, MaxDiis
       27     173       0       0       0       0       0       0

 Cartesian Hessian Update
 Hessian Updated using BFGS Update


** GEOMETRY OPTIMIZATION IN DELOCALIZED INTERNAL COORDINATES **
   Searching for a Minimum

   Optimization Cycle:   4

                       Coordinates (Angstroms)
     ATOM                X               Y               Z
      1  C        -0.2373729251   -1.1105558243   -0.0838696390
      2  C        -0.8118405524    0.1625122260    0.0764142642
      3  C         1.2366888579   -1.3560989616   -0.0882198216
      4  C         0.0443164995    1.3916723940    0.1396346770
      5  O         1.8909403534   -0.5155704949    0.7383884191
      6  O         1.7794207428   -2.2390321740   -0.7094203307
      7  O         0.8256914260    1.4860418773   -0.9560833541
      8  O         0.0245574685    2.2112014036    1.0241676407
      9  C         1.7611767908    2.5785592026   -0.9688712474
     10  C         3.3202368797   -0.6623071783    0.7888555042
     11  C        -1.0548420097   -2.2356990598   -0.2139755584
     12  C        -2.4357980805   -2.0998032284   -0.1604772624
     13  C        -3.0009338983   -0.8402050313    0.0150620576
     14  C        -2.2102963376    0.3073372826    0.1324178149
     15  H         1.2374323456    3.5342160864   -0.9210871858
     16  H         3.5886633694   -1.6778449072    1.0820591369
     17  H        -4.0801590917   -0.7375362233    0.0537860009
     18  H         2.4423440781    2.4993829821   -0.1197328882
     19  H         2.3030255555    2.4843929291   -1.9073036297
     20  H         3.6573751890    0.0555193904    1.5332340422
     21  H         3.7568950411   -0.4423212893   -0.1870365594
     22  H        -3.0721655207   -2.9724515224   -0.2535048910
     23  H        -0.5923868362   -3.2054117111   -0.3474564450
     24  C        -2.8683979710    1.6570863523    0.2952025646
     25  H        -2.5467004130    2.3568653047   -0.4813608584
     26  H        -2.6108452215    2.1055234995    1.2563353684
     27  H        -3.9535796598    1.5619562355    0.2323240102
   Point Group: c1    Number of degrees of freedom:    75


   Energy is   -727.546660866

 Hessian Updated using BFGS Update

 70 Hessian modes will be used to form the next step
  Hessian Eigenvalues:
     0.001983    0.007966    0.010242    0.010552    0.010595    0.016168
     0.016983    0.017789    0.020203    0.022242    0.022351    0.022469
     0.023042    0.023316    0.023459    0.023724    0.054143    0.068741
     0.072307    0.072637    0.101427    0.101526    0.106038    0.106167
     0.159530    0.159985    0.159994    0.159997    0.160000    0.160169
     0.160507    0.221001    0.234863    0.242963    0.249090    0.249809
     0.249877    0.249938    0.249989    0.249996    0.249999    0.251334
     0.312841    0.315246    0.324278    0.343820    0.345694    0.346323
     0.346365    0.346830    0.347117    0.347161    0.347817    0.350845
     0.350893    0.354184    0.355108    0.356842    0.398649    0.398929
     0.417588    0.434307    0.458648    0.460556    0.469194    0.472232
     0.552357    0.554301    1.006599    1.018808

 Minimum Search - Taking Simple RFO Step
 Searching for Lamda that Minimizes Along All modes
 Value Taken    Lamda =  -0.00003733
 Step Taken.  Stepsize is  0.028341

                             Maximum     Tolerance    Cnvgd?
         Gradient           0.001658      0.000001      NO
         Displacement       0.011566      0.000001      NO
         Energy change      0.000009      0.000000      NO


 New Cartesian Coordinates Obtained by Inverse Iteration

 Displacement from previous Coordinates is:  0.110444
 Adding empirical dispersion correction 
 ----------------------------------------------------------------
 Doing -D3(op) with
 s6 =   1.00000
 s8 =   0.78311
 a1 =   0.30000
 a2 =   4.25000
 n  =  10.00000
 -D3 energy without 3body term =     -0.0288492630 hartrees
 ----------------------------------------------------------------
             Standard Nuclear Orientation (Angstroms)
    I     Atom           X                Y                Z
 ----------------------------------------------------------------
    1      C      -0.2350984060    -1.1099839301    -0.0898841221
    2      C      -0.8088819002     0.1631155294     0.0729192413
    3      C       1.2390028867    -1.3563512658    -0.0905248686
    4      C       0.0490106665     1.3908180000     0.1373970807
    5      O       1.8900499328    -0.5234306828     0.7463633385
    6      O       1.7832521005    -2.2363697070    -0.7143882761
    7      O       0.8227122236     1.4907414473    -0.9633059879
    8      O       0.0258130344     2.2131941217     1.0192728369
    9      C       1.7536002173     2.5871227510    -0.9798894482
   10      C       3.3189384560    -0.6727296389     0.8020784508
   11      C      -1.0528590399    -2.2349744080    -0.2183764981
   12      C      -2.4337325636    -2.0988205326    -0.1621032858
   13      C      -2.9983067234    -0.8393504199     0.0158653715
   14      C      -2.2073380520     0.3079954216     0.1331321290
   15      H       1.2261722391     3.5404987717    -0.9271549393
   16      H       3.5845125902    -1.6905405308     1.0900974871
   17      H      -4.0774367090    -0.7366184745     0.0572246601
   18      H       2.4398652459     2.5092447599    -0.1347375343
   19      H       2.2902389014     2.4968832529    -1.9216855288
   20      H       3.6541917865     0.0399130049     1.5522377128
   21      H       3.7601904157    -0.4478055340    -0.1706379736
   22      H      -3.0704651633    -2.9713141816    -0.2541887888
   23      H      -0.5909465224    -3.2049037383    -0.3524198295
   24      C      -2.8657743488     1.6571205845     0.2995322701
   25      H      -2.5474293195     2.3576965568    -0.4777285172
   26      H      -2.6047422830     2.1052126425     1.2597984608
   27      H      -3.9510935856     1.5610657600     0.2405883888
 ----------------------------------------------------------------
 Nuclear Repulsion Energy =  1018.7211957679 hartrees
 There are       55 alpha and       55 beta electrons
 Applying Cartesian multipole field
    Component          Value
    ---------          -----
     (2,0,0)        1.00000E-11
     (0,2,0)        2.00000E-11
     (0,0,2)       -3.00000E-11
 Nucleus-field energy     =     0.0000000330 hartrees
 Requested basis set is 6-311++G(d,p)
 There are 150 shells and 414 basis functions
 A cutoff of  1.0D-11 yielded   9130 shell pairs
 There are     71730 function pairs (     76762 Cartesian)
 Smallest overlap matrix eigenvalue = 1.39E-07

 Q-Chem warning in module /fs/scratch/osu6415/qchem-kaunlao-vdw/stvman/mkSTV.C, line 281:

 Overlap eigenvalue is smaller than square root of threshold

 Linear dependence detected in AO basis
 Number of orthogonalized atomic orbitals = 412
 Maximum deviation from orthogonality = 4.175E-10
 Guess MOs from SCF MO coefficient file
 Reading MOs from coefficient file
 Reading MOs from coefficient file
 A restricted hybrid HF-DFT SCF calculation will be
 performed using Pulay DIIS extrapolation
 Exchange:     0.2000 Hartree-Fock + 0.0800 Slater + 0.7200 B88
 Correlation:  0.1900 VWN1RPA + 0.8100 LYP
 Using SG-1 standard quadrature grid
 Dispersion:   Grimme D3
 SCF converges when DIIS error is below 1.0E-08
 Geometry optimization detected.  Setting ReadMinima to 0
 Setting SaveMinima to 0
 using 20 threads for integral computing
 -------------------------------------------------------
 OpenMP Integral computing Module                
 Release: version 1.0, May 2013, Q-Chem Inc. Pittsburgh 
 -------------------------------------------------------
 -------------------------------------------------------
 OpenMP BLAS3 based DFT computing Module                
 Release: version 1.0, May 2013, Q-Chem Inc. Pittsburgh 
 -------------------------------------------------------
 ---------------------------------------
  Cycle       Energy         DIIS Error
 ---------------------------------------
    1    -727.5455559182      1.31E-04
    2    -727.5466632334      1.32E-05
    3    -727.5466586141      2.25E-05
    4    -727.5466676592      4.55E-06
    5    -727.5466679335      2.04E-06
    6    -727.5466679908      9.03E-07
    7    -727.5466680051      2.58E-07
    8    -727.5466680065      8.68E-08
    9    -727.5466680063      3.11E-08
   10    -727.5466680072      1.32E-08
   11    -727.5466680069      6.34E-09 Convergence criterion met
 ---------------------------------------
 SCF time:  CPU 473.71 s  wall 26.43 s
 SCF   energy in the final basis set = -727.54666801
 Total energy in the final basis set = -727.54666801
 
 --------------------------------------------------------------
 
                    Orbital Energies (a.u.)
 --------------------------------------------------------------
 
 Alpha MOs
 -- Occupied --
-19.178 -19.177 -19.121 -19.119 -10.313 -10.312 -10.233 -10.233
-10.209 -10.208 -10.207 -10.192 -10.192 -10.191 -10.174  -1.122
 -1.116  -1.032  -1.031  -0.886  -0.801  -0.795  -0.747  -0.732
 -0.703  -0.655  -0.625  -0.580  -0.574  -0.550  -0.520  -0.513
 -0.494  -0.489  -0.483  -0.479  -0.471  -0.444  -0.434  -0.430
 -0.427  -0.414  -0.406  -0.398  -0.384  -0.377  -0.371  -0.365
 -0.362  -0.324  -0.313  -0.297  -0.294  -0.270  -0.263
 -- Virtual --
 -0.063  -0.038  -0.012  -0.005   0.003   0.008   0.012   0.019
  0.024   0.025   0.034   0.037   0.040   0.044   0.051   0.054
  0.061   0.064   0.071   0.080   0.084   0.091   0.093   0.100
  0.105   0.109   0.111   0.113   0.114   0.119   0.122   0.126
  0.127   0.133   0.137   0.140   0.141   0.144   0.145   0.154
  0.157   0.159   0.165   0.166   0.167   0.174   0.175   0.182
  0.185   0.187   0.192   0.200   0.204   0.209   0.211   0.218
  0.223   0.227   0.231   0.239   0.245   0.248   0.253   0.260
  0.264   0.271   0.278   0.281   0.285   0.289   0.291   0.296
  0.303   0.308   0.312   0.315   0.322   0.324   0.328   0.334
  0.343   0.345   0.352   0.356   0.357   0.365   0.371   0.376
  0.383   0.391   0.397   0.403   0.404   0.410   0.423   0.433
  0.462   0.470   0.485   0.492   0.501   0.505   0.513   0.521
  0.532   0.542   0.545   0.560   0.565   0.575   0.580   0.582
  0.593   0.602   0.608   0.621   0.632   0.636   0.644   0.650
  0.655   0.661   0.666   0.668   0.677   0.678   0.686   0.692
  0.702   0.716   0.725   0.731   0.737   0.748   0.763   0.766
  0.769   0.780   0.796   0.807   0.837   0.842   0.859   0.859
[...]
    -0.43420728     -0.14333806     -0.01829831
     0.00350640      0.02533932      0.00281212
     0.01407046      0.12882108      0.09997311
     0.03774353      0.13889001     -0.05986437
     0.02546498     -0.17026299     -0.03126679
vibration 62
     0.05833282     -0.07671318     -0.02188148
     0.01156669      0.00834551     -0.00387916
    -0.38812009      0.55388243      0.38069080
     0.00143170      0.09095877      0.09498174
     0.01196226     -0.04110757     -0.03107093
     0.23056646     -0.35500323     -0.25457678
     0.00269501     -0.00309106     -0.00881727
     0.00088768     -0.05998611     -0.06307580
     0.00188846      0.00292856      0.00183243
    -0.03028801      0.00950652      0.00337790
     0.01093789      0.03204353      0.00770758
    -0.00237308     -0.01897293     -0.00110787
     0.00462752      0.01776004      0.00217783
    -0.02147118     -0.00934669      0.00194814
    -0.01717965     -0.00493762      0.00840989
     0.11294581      0.08367323      0.06477642
     0.00002547     -0.01413732     -0.00470237
    -0.01316304     -0.01320914      0.01686207
    -0.02237232     -0.02503329     -0.00633998
     0.22609817     -0.07126267     -0.02421286
     0.10045605      0.04245014      0.09214028
    -0.04378850      0.01165726      0.00230636
    -0.06891495      0.01358716     -0.01483902
    -0.00026623     -0.00008923     -0.00002113
     0.00580879      0.01236744      0.01355629
     0.02137558      0.00867724     -0.00912151
     0.00458593     -0.02296570     -0.01092586
vibration 63
    -0.02683625      0.01920131      0.00224813
    -0.01613690     -0.09814059     -0.02435133
     0.07239614     -0.09241224     -0.05814010
     0.01793887      0.56979228      0.52339090
    -0.00444174      0.00506749      0.00203281
    -0.03875634      0.05754309      0.04045925
     0.00806586     -0.02881037     -0.03755567
     0.00366728     -0.34667297     -0.35446942
     0.01674110      0.02470915      0.00597303
     0.00624404     -0.00119117     -0.00001379
     0.01197330     -0.00003048      0.00107178
    -0.01083543      0.01259945      0.00133757
     0.00673711     -0.02258937     -0.00142780
    -0.00847150      0.03409456      0.00909669
    -0.11941170     -0.03247034      0.08471564
    -0.02104020     -0.01645709     -0.01595636
     0.00974384      0.04648142      0.00517664
    -0.07524496     -0.05111147      0.09766883
    -0.11848589     -0.18719234     -0.04306664
    -0.04562599      0.01604071      0.00676095
    -0.01624729     -0.01373823     -0.01569558
     0.01522139     -0.00516113     -0.00468307
     0.00732714     -0.00598285      0.00679565
    -0.00861014     -0.00468469     -0.00075125
     0.03316724      0.01677265      0.02764200
     0.09747890     -0.00559132     -0.02040766
     0.00450239     -0.05112983     -0.04010262
vibration 64
    -0.00021116      0.00023555      0.00008241
     0.00065993     -0.00008103      0.00000317
     0.00017887      0.00004235      0.00002288
     0.00008819      0.00030247      0.00010341
    -0.00006768     -0.00002835     -0.00002727
    -0.00005358      0.00001901      0.00001270
    -0.00009638     -0.00007451      0.00003133
     0.00017050     -0.00020986     -0.00007086
    -0.00020177     -0.00039895     -0.00012251
    -0.00025932      0.00003778      0.00006866
    -0.00009394     -0.00004995      0.00000842
     0.00006182      0.00020123      0.00005986
     0.00103458     -0.00070567     -0.00014954
    -0.00013562     -0.00053407     -0.00022599
    -0.00379234      0.00638463      0.00025378
     0.00082834     -0.00356693      0.00104942
    -0.01295370      0.00244687      0.00043725
     0.00407722     -0.00065454      0.00518278
     0.00226351     -0.00052616     -0.00402998
     0.00090184      0.00204960      0.00218226
     0.00171302      0.00100793     -0.00406259
    -0.00012355      0.00048193      0.00004277
     0.00044188     -0.00084377     -0.00037284
    -0.01522670      0.04873831     -0.01071507
    -0.21883323     -0.45501892      0.51749272
    -0.11277421     -0.17484227     -0.41217263
     0.50694581      0.05874198      0.02421444
vibration 65
     0.00007593      0.00008421      0.00006287
    -0.00014881     -0.00003441      0.00012653
    -0.00046452     -0.00070914     -0.00073241
     0.00141658     -0.00025910     -0.00240708
     0.00110695      0.00011933      0.00034723
    -0.00012192      0.00023137      0.00018425
    -0.00199630     -0.00167285      0.00087414
    -0.00000751      0.00060156      0.00068149
    -0.02453820     -0.03056760     -0.01291020
     0.01577345     -0.00312069     -0.00470905
     0.00000289     -0.00002301     -0.00000539
     0.00000344     -0.00000588     -0.00000579
    -0.00006048      0.00001833     -0.00000636
     0.00003774     -0.00004232     -0.00001882
    -0.27564441      0.47813309      0.01489866
    -0.04876601      0.20446827     -0.05978462
     0.00059857     -0.00012686     -0.00001834
     0.38639832     -0.05420572      0.48785336
     0.19759751     -0.03875631     -0.34672747
    -0.04932790     -0.10811095     -0.11538970
    -0.10070305     -0.05709535      0.23134247
     0.00000079     -0.00005248      0.00001847
    -0.00005433     -0.00008264      0.00000258
     0.00000611     -0.00040930      0.00012299
     0.00193702      0.00385297     -0.00441649
     0.00089524      0.00133074      0.00309291
    -0.00274878     -0.00036089     -0.00011282
vibration 66
     0.00016146      0.00010331      0.00009357
     0.00003001      0.00003130     -0.00002236
    -0.00082035     -0.00192632     -0.00174179
    -0.00059862      0.00024566      0.00089547
     0.00246117      0.00041486      0.00072399
    -0.00041236      0.00063581      0.00046533
     0.00077976      0.00057422     -0.00028809
     0.00000371     -0.00028551     -0.00026232
     0.00968671      0.01292316      0.00504332
     0.03889479     -0.00879798     -0.01077227
    -0.00002432     -0.00000003     -0.00001248
     0.00005289      0.00006712     -0.00000847
     0.00008704     -0.00002074     -0.00000330
    -0.00002495      0.00003611      0.00000971
     0.11411892     -0.19880811     -0.00653899
    -0.12304946      0.51175629     -0.14888407
    -0.00082316      0.00011714      0.00004387
    -0.15478858      0.02141683     -0.19587030
    -0.08039921      0.01573252      0.14113680
    -0.12095092     -0.26429241     -0.28257915
    -0.24399974     -0.13750825      0.56026788
    -0.00029995     -0.00055206     -0.00005794
     0.00033759     -0.00082439     -0.00000669
    -0.00004416      0.00054224     -0.00014177
    -0.00243807     -0.00508442      0.00576243
    -0.00117564     -0.00185265     -0.00429338
     0.00413115      0.00049535      0.00018320
vibration 67
    -0.00001588      0.00010393     -0.00001487
    -0.00007744      0.00002881      0.00025523
     0.00002402      0.00002882      0.00000696
    -0.00014452      0.00006933     -0.00001027
     0.00000170     -0.00001925     -0.00000284
     0.00000065     -0.00001100     -0.00000224
    -0.00000682     -0.00000290     -0.00000472
    -0.00015113     -0.00008039      0.00002725
     0.00035295     -0.00042787      0.00016209
    -0.00003679     -0.00009465      0.00009919
    -0.00006874     -0.00004186     -0.00000506
     0.00016966      0.00001386     -0.00002855
    -0.00197250      0.00042434     -0.00012864
     0.00046802      0.00050921     -0.00041153
    -0.00281887      0.00477364      0.00028223
    -0.00017105      0.00073775     -0.00018876
     0.02062765     -0.00364654     -0.00108729
    -0.00166932      0.00015513     -0.00227242
     0.00001661     -0.00006612      0.00017466
     0.00003356      0.00010446      0.00011919
     0.00047760      0.00026271     -0.00109566
    -0.00184813     -0.00264662     -0.00020570
    -0.00027677      0.00023178      0.00000656
     0.04418135      0.02010210     -0.07635273
    -0.19837779     -0.43506039      0.47461322
     0.14926975      0.23552385      0.48144919
    -0.47335771     -0.04522844     -0.04205933
vibration 68
     0.00005783     -0.00025882     -0.00010498
    -0.00004859     -0.00005479      0.00009725
    -0.00002234     -0.00003828     -0.00003245
     0.00021537     -0.00036974     -0.00048739
     0.00000061      0.00001802      0.00000951
    -0.00000583      0.00001769      0.00001172
    -0.00006108     -0.00000467      0.00012327
    -0.00029861      0.00022940      0.00019850
    -0.00004118      0.00013500      0.00017778
     0.00007397      0.00042299     -0.00042443
     0.00012189      0.00002649     -0.00001196
    -0.00031965     -0.00024701     -0.00001905
     0.00398415     -0.00033491     -0.00024760
    -0.00046501     -0.00108137     -0.00035801
     0.00079093     -0.00144295     -0.00011043
     0.00101488     -0.00417735      0.00108439
    -0.04217419      0.00629070      0.00177270
    -0.00067795      0.00005233     -0.00086592
     0.00064667     -0.00009772     -0.00113924
     0.00000869      0.00002212     -0.00010971
    -0.00176847     -0.00090615      0.00406128
     0.00409022      0.00563300      0.00061265
    -0.00020680      0.00095511      0.00018978
    -0.07262237     -0.03110386     -0.04888926
     0.00283493      0.03317788     -0.05868804
     0.15640222      0.27731296      0.61428270
     0.70718230      0.07083044      0.03237786
vibration 69
    -0.00006981     -0.00007078      0.00003172
     0.00019754     -0.00014234      0.00008017
     0.00014310      0.00011688      0.00004468
    -0.00008448      0.00007767     -0.00012794
    -0.00003565      0.00003186     -0.00010185
    -0.00004106     -0.00000667     -0.00005973
    -0.00027919      0.00015739     -0.00013656
    -0.00004378      0.00012355     -0.00008607
     0.05940623     -0.05422477      0.04420406
    -0.00125190     -0.01618052      0.01730921
     0.00002416     -0.00000560     -0.00001064
    -0.00002253     -0.00001354     -0.00000514
     0.00002593     -0.00000748     -0.00000987
     0.00000064      0.00002120     -0.00001042
    -0.34742666      0.61195419      0.03920920
    -0.04322726      0.17537455     -0.04550730
    -0.00033100      0.00005282      0.00004236
    -0.39602571      0.04549110     -0.51906804
     0.04082254     -0.01618310     -0.04202814
    -0.00666375     -0.01626887     -0.01118381
     0.06431345      0.03265548     -0.14790066
     0.00014868      0.00024622      0.00005129
    -0.00011610      0.00030891      0.00003304
    -0.00039277     -0.00024637      0.00040546
     0.00137172      0.00330599     -0.00367871
    -0.00053267     -0.00069867     -0.00129303
     0.00370196      0.00042169      0.00025781
vibration 70
    -0.00000900     -0.00016209      0.00014948
    -0.00000161      0.00004839     -0.00003835
    -0.00006378      0.00000604     -0.00022804
    -0.00010657     -0.00005970      0.00018463
     0.00016013      0.00026956     -0.00023427
    -0.00006287      0.00009846     -0.00010186
     0.00014010     -0.00001533     -0.00002500
     0.00003268     -0.00003347     -0.00002595
    -0.01547080      0.01373593     -0.01168119
    -0.00581088     -0.06092025      0.06836231
    -0.00002345      0.00000842     -0.00000673
     0.00001610     -0.00001025     -0.00000635
     0.00005417      0.00001149      0.00000007
    -0.00002477     -0.00002122     -0.00000425
     0.08820286     -0.15471379     -0.00983778
    -0.16129299      0.65939835     -0.17082435
    -0.00054715      0.00008136      0.00002138
     0.10485597     -0.01165525      0.13784486
    -0.01028232      0.00424879      0.01002501
    -0.02709629     -0.06776115     -0.04625853
     0.25704997      0.12908878     -0.59042692
     0.00003888      0.00005165      0.00002495
     0.00002429      0.00006816      0.00007632
    -0.00043049     -0.00017535     -0.00031227
    -0.00005322      0.00007004     -0.00021327
     0.00093007      0.00166771      0.00373439
     0.00429832      0.00042039      0.00020532
vibration 71
     0.00000259      0.00000100     -0.00001325
    -0.00000629      0.00003435      0.00007366
    -0.00004545     -0.00000522     -0.00002555
    -0.00045599     -0.00104549     -0.00039947
    -0.00001913     -0.00001483     -0.00000898
     0.00000342      0.00000017      0.00001511
    -0.00017904      0.00013483      0.00027617
     0.00010999      0.00041868      0.00026829
     0.03651267     -0.02807990     -0.08202686
     0.00083040      0.00694948      0.00592943
    -0.00001022      0.00003620      0.00000220
    -0.00001279     -0.00000132      0.00000104
     0.00014989     -0.00001871     -0.00001279
     0.00000683     -0.00001010     -0.00000123
    -0.16159353      0.28113853     -0.00435541
     0.00779420     -0.03206217      0.01071246
    -0.00175227      0.00017352      0.00007978
     0.17587477     -0.03175796      0.20176049
    -0.44266905      0.08789210      0.77474374
    -0.02585505     -0.05701800     -0.06040691
     0.00912282      0.00674156     -0.02068753
     0.00012555      0.00017270      0.00001700
     0.00017318     -0.00030036     -0.00006341
    -0.00017597     -0.00008836     -0.00000268
     0.00016481      0.00061134     -0.00081547
     0.00003145      0.00027027      0.00074208
     0.00181060      0.00025096      0.00011102
vibration 72
    -0.00002240      0.00005381      0.00005941
    -0.00001152      0.00000607     -0.00000055
     0.00109670     -0.00054045     -0.00030002
    -0.00009256     -0.00020718     -0.00007730
    -0.00000340      0.00026890      0.00022278
    -0.00038146      0.00031134      0.00019334
     0.00000902      0.00004301      0.00002480
     0.00003325      0.00008573      0.00005965
     0.00319993     -0.00256799     -0.00824805
    -0.00774636     -0.07019850     -0.06240501
    -0.00008624      0.00014998      0.00002232
    -0.00008906     -0.00013868     -0.00001584
     0.00005435      0.00000802     -0.00000018
    -0.00000197     -0.00000709     -0.00000269
    -0.01431209      0.02515169     -0.00038656
    -0.07841884      0.32003445     -0.10626075
    -0.00075990      0.00008401      0.00003153
     0.01952033     -0.00296463      0.02257224
    -0.04298022      0.00854560      0.07539647
     0.26561210      0.58351859      0.62008173
    -0.10129496     -0.07121664      0.22569703
     0.00122467      0.00169092      0.00018134
     0.00095385     -0.00169830     -0.00023224
    -0.00004351     -0.00003453     -0.00001456
     0.00005491      0.00022592     -0.00027196
     0.00005250      0.00018374      0.00039862
     0.00034731      0.00006081      0.00002017
vibration 73
     0.00028458     -0.00023725     -0.00002322
     0.00040190     -0.00016664     -0.00003841
    -0.00004090     -0.00006567     -0.00004823
     0.00009150      0.00023693      0.00001924
    -0.00000073      0.00001064      0.00000711
     0.00001855      0.00004332      0.00003238
    -0.00005342     -0.00005489      0.00003053
    -0.00000781     -0.00008622     -0.00003512
     0.00009988     -0.00001558     -0.00011886
    -0.00000812     -0.00014389     -0.00009173
     0.00326753     -0.00898792     -0.00122156
     0.02821015      0.03552278      0.00364719
    -0.07085108      0.00524518      0.00272976
     0.00021665      0.00231289      0.00024201
    -0.00017970      0.00020974     -0.00001618
    -0.00023541      0.00087550     -0.00026300
     0.82361359     -0.07666607     -0.03336977
    -0.00003576     -0.00006750     -0.00004550
    -0.00091869      0.00011385      0.00153607
     0.00044680      0.00096930      0.00105229
    -0.00013858     -0.00012694      0.00033816
    -0.31862155     -0.43265409     -0.04537400
    -0.05020172      0.10901010      0.01511470
    -0.00376026     -0.00097557     -0.00058132
     0.00244161      0.00386831     -0.00539922
     0.00273509      0.00379617      0.00991516
     0.04291733      0.00240253      0.00219969
vibration 74
    -0.00047604     -0.00015075     -0.00004048
     0.00056674     -0.00028528     -0.00004688
    -0.00003075      0.00024687      0.00012766
     0.00000828      0.00010348      0.00002876
    -0.00001444     -0.00003302     -0.00001636
    -0.00006178     -0.00014404     -0.00006124
    -0.00003226     -0.00003293      0.00001558
    -0.00000329     -0.00003529     -0.00002516
     0.00004321      0.00002053     -0.00002910
     0.00006180      0.00011374      0.00012905
    -0.00968688      0.02637607      0.00359368
    -0.03742175     -0.05560493     -0.00595911
    -0.04820944      0.00649819      0.00225282
     0.00073977      0.00201294      0.00020771
     0.00006639     -0.00020704     -0.00001657
     0.00005072     -0.00022019      0.00011986
     0.53979515     -0.05414444     -0.02251372
    -0.00012907     -0.00000054     -0.00015430
    -0.00034365      0.00003596      0.00054550
    -0.00056613     -0.00127251     -0.00133085
     0.00006632      0.00009478     -0.00021313
     0.44436017      0.61573610      0.06488197
     0.14125241     -0.30726502     -0.04280871
    -0.00189793     -0.00045646     -0.00030446
     0.00123481      0.00061726     -0.00181829
     0.00150926      0.00104528      0.00407677
     0.02113480      0.00101086      0.00109547
vibration 75
     0.00204663      0.00200349      0.00028728
    -0.00021817      0.00056871      0.00005981
     0.00045334     -0.00084166     -0.00034286
     0.00007935      0.00008675     -0.00001038
    -0.00019465      0.00003099     -0.00003194
    -0.00003273      0.00044203      0.00022397
    -0.00002888     -0.00003140      0.00002019
    -0.00001618     -0.00005391     -0.00002715
     0.00002222      0.00003074     -0.00005878
     0.00006648     -0.00009439     -0.00011533
     0.03573933     -0.07319302     -0.01023070
    -0.02107695     -0.02437482     -0.00246416
    -0.00859309      0.00240714      0.00053545
     0.00021704      0.00046222      0.00005553
     0.00014106     -0.00031953     -0.00003442
    -0.00036577      0.00078561     -0.00026231
     0.09007456     -0.01056830     -0.00393174
     0.00004788     -0.00004030      0.00008689
    -0.00035596      0.00004089      0.00057145
    -0.00003509      0.00040572      0.00040351
    -0.00044729     -0.00023963      0.00085937
     0.20585831      0.27739047      0.02921611
    -0.39452615      0.83336468      0.11641269
    -0.00013719      0.00006596      0.00003655
    -0.00026673     -0.00061127      0.00037741
    -0.00036026     -0.00059677     -0.00090863
     0.00217310      0.00012257      0.00010178
[INT]
    4.320097
    0.559605
    0.094936
    0.914355
    2.879696
    3.675713
    0.440226
    0.489464
    0.021641
    1.273805
    3.578015
    2.143186
    3.946684
    6.128033
    3.444136
    0.971670
   19.660599
    1.022456
    7.226693
    1.446044
    0.056206
    2.716426
   10.116396
    3.572325
   51.728357
   25.975102
    1.105077
    2.586543
    8.827407
    3.077002
    0.356639
   10.235010
    4.939031
    9.206597
    7.771842
    2.034356
   91.472721
   71.939722
    2.098522
   11.342110
  105.431591
   11.791451
   23.573751
  101.793276
  117.789270
  122.785862
  396.520089
    7.750332
    4.069812
    2.303154
    7.968984
   47.433005
    7.759644
   11.312614
    7.208191
    8.813987
   10.589230
    4.783420
    3.367231
    0.360299
   17.421966
  386.429830
  180.679821
   19.174300
   16.100160
   49.259615
   13.674803
   10.621349
   26.563574
   10.828853
   10.260035
   11.383715
    6.094863
   13.006249
    4.384367

======= END OF MOLDEN-FORMATTED INPUT FILE =======


        *************************************************************
        *                                                           *
        *  Thank you very much for using Q-Chem.  Have a nice day.  *
        *                                                           *
        *************************************************************


