mFile = /opt/software/qchem/qchem-5.0.1//bin/mpi/machines
Process 0 of 1 is on vega03.cac.cornell.edu - thread support 0
initial socket setup ...start
initial socket setup ...done 
now start server 0 ... 
vega03 10.84.3
Q-Chem Developer Version! Running on 10.84.3.*
                  Welcome to Q-Chem
     A Quantum Leap Into The Future Of Chemistry


 Q-Chem 5.0, Q-Chem, Inc., Pleasanton, CA (2017)

 Yihan Shao,  Zhengting Gan,  E. Epifanovsky,  A. T. B. Gilbert,  M. Wormit,  
 J. Kussmann,  A. W. Lange,  A. Behn,  Jia Deng,  Xintian Feng,  D. Ghosh,  
 M. Goldey,  P. R. Horn,  L. D. Jacobson,  I. Kaliman,  T. Kus,  A. Landau,  
 Jie Liu,  E. I. Proynov,  R. M. Richard,  R. P. Steele,  E. J. Sundstrom,  
 H. L. Woodcock III,  P. M. Zimmerman,  D. Zuev,  B. Albrecht,  E. Alguire,  
 S. A. Baeppler,  Z. Benda,  Y. A. Bernard,  E. J. Berquist,  K. B. Bravaya,  
 D. Casanova,  Chun-Min Chang,  Yunqing Chen,  A. Chien,  K. D. Closser,  
 M. P. Coons,  S. Dasgupta,  M. Diedenhofen,  Hainam Do,  R. G. Edgar,  
 Po-Tung Fang,  S. Fatehi,  Qingguo Feng,  Qinghui Ge,  A. Ghysels,  
 J. Gomes,  J. Gonthier,  A. Gunina,  M. W. D. Hanson-Heine,  
 P. H. P. Harbach,  A. W. Hauser,  J. E. Herr,  E. G. Hohenstein,  
 Z. C. Holden,  Kerwin Hui,  T.-C. Jagau,  Hyunjun Ji,  B. Kaduk,  
 K. Khistyaev,  Jaehoon Kim,  P. Klunzinger,  K. Koh,  D. Kosenkov,  
 T. Kowalczyk,  C. M. Krauter,  A. Kunitsa,  Ka Un Lao,  A. Laurent,  
 K. V. Lawler,  Joonho Lee,  D. Lefrancois,  S. Lehtola,  D. S. Levine,  
 Yi-Pei Li,  You-Sheng Lin,  Fenglai Liu,  E. Livshits,  A. Luenser,  
 P. Manohar,  E. Mansoor,  S. F. Manzer,  Shan-Ping Mao,  Yuezhi Mao,  
 N. Mardirossian,  A. V. Marenich,  L. A. Martinez-Martinez,  S. A. Maurer,  
 N. J. Mayhall,  S. C. McKenzie,  J.-M. Mewes,  A. F. Morrison,  K. Nanda,  
 T. S. Nguyen-Beck,  R. Olivares-Amaya,  J. A. Parkhill,  T. M. Perrine,  
 F. Plasser,  S. Prager,  A. Prociuk,  D. R. Rehn,  F. Rob,  M. Schneider,  
 N. Sergueev,  S. M. Sharada,  S. Sharma,  D. W. Small,  T. Stauch,  
 T. Stein,  Yu-Chuan Su,  A. J. W. Thom,  T. Tsuchimochi,  L. Vogt,  
 O. Vydrov,  M. A. Watson,  J. Wenzel,  M. de Wergifosse,  T. A. Wesolowski,  
 A. White,  J. Witte,  A. Yamada,  Jun Yang,  K. Yao,  S. Yeganeh,  
 S. R. Yost,  Zhi-Qiang You,  A. Zech,  Igor Ying Zhang,  Xing Zhang,  
 Yan Zhao,  Ying Zhu,  B. R. Brooks,  G. K. L. Chan,  C. J. Cramer,  
 M. S. Gordon,  W. J. Hehre,  A. Klamt,  M. W. Schmidt,  C. D. Sherrill,  
 D. G. Truhlar,  A. Aspuru-Guzik,  R. Baer,  A. T. Bell,  N. A. Besley,  
 Jeng-Da Chai,  A. Dreuw,  B. D. Dunietz,  T. R. Furlani,  Chao-Ping Hsu,  
 Yousung Jung,  Jing Kong,  D. S. Lambrecht,  WanZhen Liang,  C. Ochsenfeld,  
 V. A. Rassolov,  L. V. Slipchenko,  J. E. Subotnik,  T. Van Voorhis,  
 J. M. Herbert,  A. I. Krylov,  P. M. W. Gill,  M. Head-Gordon

 Contributors to earlier versions of Q-Chem not listed above: 
 R. D. Adamson,  B. Austin,  J. Baker,  G. J. O. Beran,  K. Brandhorst,  
 S. T. Brown,  E. F. C. Byrd,  A. K. Chakraborty,  C.-L. Cheng,  
 Siu Hung Chien,  D. M. Chipman,  D. L. Crittenden,  H. Dachsel,  
 R. A. DiStasio Jr.,  R. J. Doerksen,  A. D. Dutoi,  L. Fusti-Molnar,  
 W. A. Goddard III,  A. Golubeva-Zadorozhnaya,  S. R. Gwaltney,  G. Hawkins,  
 A. Heyden,  S. Hirata,  G. Kedziora,  F. J. Keil,  C. Kelley,  Jihan Kim,  
 R. A. King,  R. Z. Khaliullin,  P. P. Korambath,  W. Kurlancheek,  
 A. M. Lee,  M. S. Lee,  S. V. Levchenko,  Ching Yeh Lin,  D. Liotard,  
 R. C. Lochan,  I. Lotan,  P. E. Maslen,  N. Nair,  D. P. O'Neill,  
 D. Neuhauser,  E. Neuscamman,  C. M. Oana,  R. Olson,  B. Peters,  
 R. Peverati,  P. A. Pieniazek,  Y. M. Rhee,  J. Ritchie,  M. A. Rohrdanz,  
 E. Rosta,  N. J. Russ,  H. F. Schaefer III,  N. E. Schultz,  N. Shenvi,  
 A. C. Simmonett,  A. Sodt,  D. Stuck,  K. S. Thanthiriwatte,  V. Vanovschi,  
 Tao Wang,  A. Warshel,  C. F. Williams,  Q. Wu,  X. Xu,  W. Zhang

 Please cite Q-Chem as follows:
 Y. Shao et al., Mol. Phys. 113, 184-215 (2015)
 DOI: 10.1080/00268976.2014.952696

 Q-Chem 5.0.1 for Intel X86 EM64T Linux

 Parts of Q-Chem use Armadillo 5.200.1 (Boston Tea Smuggler).
 http://arma.sourceforge.net/

 Q-Chem begins on Mon Apr  2 16:54:44 2018  

Host: vega03.cac.cornell.edu
0

     Scratch files written to /scratch/jj585/vdw/11n01_distance_8.000_11.save//
 Parallel job on  1  processors

Checking the input file for inconsistencies... 	...done.

--------------------------------------------------------------
User input:
--------------------------------------------------------------
$molecule
0  1
--
0  1
C        -0.54444000        -0.68370000        -0.06689000
C        -0.55709000        +0.71878000        +0.05493000
C        +0.74969000        -1.43776000        -0.09374000
C        +0.72843000        +1.48436000        +0.06598000
O        +1.53645000        -1.09176000        +0.94813000
O        +1.04702000        -2.28405000        -0.90088000
O        +1.53784000        +1.08301000        -0.93877000
O        +1.01035000        +2.37097000        +0.83478000
C        +2.83449000        +1.70121000        -0.99358000
C        +2.82316000        -1.73208000        +1.00475000
C        -1.74320000        -1.41616000        -0.12552000
C        -2.93952000        -0.70056000        -0.05285000
C        -2.95313000        +0.68255000        +0.06934000
C        -1.77161000        +1.42404000        +0.12810000
H        +2.73835000        +2.77989000        -1.12464000
H        +2.70778000        -2.81319000        +1.09555000
H        -3.90354000        +1.20325000        +0.11710000
H        +3.38998000        +1.50093000        -0.07544000
H        +3.33184000        +1.25269000        -1.85067000
H        +3.31095000        -1.32281000        +1.88650000
H        +3.39889000        -1.50934000        +0.10459000
H        -3.87892000        -1.24211000        -0.08988000
C        -1.83960000        +2.92746000        +0.24839000
H        -1.24214000        +3.42352000        -0.52065000
H        -1.45503000        +3.26427000        +1.21284000
H        -2.87211000        +3.26623000        +0.14638000
H        -1.73878000        -2.44393000        -0.21875000
--
0  1
C        -0.48939000        -1.38123000        +7.90245000
C        -0.50204000        +0.02125000        +8.02427000
C        +0.80474000        -2.13529000        +7.87560000
C        +0.78348000        +0.78683000        +8.03532000
O        +1.59150000        -1.78929000        +8.91747000
O        +1.10207000        -2.98158000        +7.06846000
O        +1.59289000        +0.38548000        +7.03057000
O        +1.06540000        +1.67344000        +8.80412000
C        +2.88954000        +1.00368000        +6.97576000
C        +2.87821000        -2.42961000        +8.97409000
C        -1.68815000        -2.11369000        +7.84382000
C        -2.88447000        -1.39809000        +7.91649000
C        -2.89808000        -0.01498000        +8.03868000
C        -1.71656000        +0.72651000        +8.09744000
H        +2.79340000        +2.08236000        +6.84470000
H        +2.76283000        -3.51072000        +9.06489000
H        -3.84849000        +0.50572000        +8.08644000
H        +3.44503000        +0.80340000        +7.89390000
H        +3.38689000        +0.55516000        +6.11867000
H        +3.36600000        -2.02034000        +9.85584000
H        +3.45394000        -2.20687000        +8.07393000
H        -3.82387000        -1.93964000        +7.87946000
C        -1.78455000        +2.22993000        +8.21773000
H        -1.18709000        +2.72599000        +7.44869000
H        -1.39998000        +2.56674000        +9.18218000
H        -2.81706000        +2.56870000        +8.11572000
H        -1.68373000        -3.14146000        +7.75059000
$end

$rem
JOBTYPE                   SP
METHOD                    B3LYP
DFT_D                     d3_op
BASIS                     6-311++G(d,p)
SYMMETRY                  False
THRESH                    12
SCF_CONVERGENCE           8
MAX_SUB_FILE_NUM          128
MEM_STATIC                400
MEM_TOTAL                 4000
$end
--------------------------------------------------------------
 Adding empirical dispersion correction 
 ----------------------------------------------------------------
 Doing -D3(op) with
 s6 =   1.00000
 s8 =   0.78311
 a1 =   0.30000
 a2 =   4.25000
 n  =  10.00000
 -D3 energy without 3body term =     -0.0587978681 hartrees
 ----------------------------------------------------------------
             Standard Nuclear Orientation (Angstroms)
    I     Atom           X                Y                Z
 ----------------------------------------------------------------
    1      C      -3.9901695356     0.2691262361     1.1625805354
    2      C      -4.0167252942     0.7746616074    -0.1510705086
    3      C      -3.9260633457    -1.2063543764     1.4134733840
    4      C      -4.0749185796    -0.1620752759    -1.3163747876
    5      O      -2.9194634897    -1.7755536496     0.7156415190
    6      O      -4.6370031975    -1.8158096196     2.1745356064
    7      O      -5.0246511481    -1.1050759300    -1.1306148678
    8      O      -3.4012193018    -0.0827108334    -2.3145932941
    9      C      -5.1327288886    -2.1065109390    -2.1562481957
   10      C      -2.7843885382    -3.2007243180     0.8552175707
   11      C      -3.9820073594     1.1340028761     2.2711302377
   12      C      -3.9956367339     2.5065791319     2.0173695366
   13      C      -4.0197947596     3.0062876554     0.7220639041
   14      C      -4.0289305076     2.1607031939    -0.3888605419
   15      H      -5.3774163938    -1.6469318568    -3.1148332246
   16      H      -2.5813527303    -3.4649063029     1.8941306354
   17      H      -4.0355086109     4.0796327953     0.5659486864
   18      H      -4.1937296510    -2.6548982603    -2.2522380688
   19      H      -5.9334259719    -2.7670564924    -1.8311416998
   20      H      -1.9463179474    -3.4751855016     0.2186385709
   21      H      -3.6978574462    -3.7029502421     0.5316285699
   22      H      -3.9837887148     3.1960274751     2.8550094293
   23      C      -4.0681195092     2.7531243942    -1.7769763023
   24      H      -4.8797705970     2.3316135625    -2.3753136881
   25      H      -3.1411001583     2.5538287522    -2.3177306213
   26      H      -4.2143482827     3.8332526458    -1.7205125176
   27      H      -3.9665249580     0.7678976294     3.2358839814
   28      C       4.0084984074     0.3347617805     1.0323432489
   29      C       3.9819426489     0.8402971518    -0.2813077951
   30      C       4.0726045974    -1.1407188320     1.2832360976
   31      C       3.9237493635    -0.0964397315    -1.4466120740
   32      O       5.0792044533    -1.7099181052     0.5854042326
   33      O       3.3616647456    -1.7501740751     2.0442983199
   34      O       2.9740167950    -1.0394403856    -1.2608521543
   35      O       4.5974486413    -0.0170752890    -2.4448305806
   36      C       2.8659390545    -2.0408753946    -2.2864854822
   37      C       5.2142794049    -3.1350887736     0.7249802842
   38      C       4.0166605837     1.1996384205     2.1408929513
   39      C       4.0030312092     2.5722146763     1.8871322501
   40      C       3.9788731834     3.0719231998     0.5918266176
   41      C       3.9697374355     2.2263387383    -0.5190978284
   42      H       2.6212515493    -1.5812963124    -3.2450705110
   43      H       5.4173152128    -3.3992707585     1.7638933489
   44      H       3.9631593322     4.1452683397     0.4357114000
   45      H       3.8049382921    -2.5892627159    -2.3824753553
   46      H       2.0652419712    -2.7014209479    -1.9613789862
   47      H       6.0523499957    -3.4095499572     0.0884012844
   48      H       4.3008104969    -3.6373146977     0.4013912834
   49      H       4.0148792283     3.2616630195     2.7247721429
   50      C       3.9305484338     2.8187599386    -1.9072135888
   51      H       3.1188973460     2.3972491069    -2.5055509745
   52      H       4.8575677848     2.6194642966    -2.4479679078
   53      H       3.7843196604     3.8988881902    -1.8507498040
   54      H       4.0321429851     0.8335331739     3.1056466949
 ----------------------------------------------------------------
 Molecular Point Group                 C1    NOp =  1
 Largest Abelian Subgroup              C1    NOp =  1
 Nuclear Repulsion Energy =  2782.2574502398 hartrees
 There are      110 alpha and      110 beta electrons
 Requested basis set is 6-311++G(d,p)
 There are 300 shells and 828 basis functions

 Total QAlloc Memory Limit   4000 MB
 Mega-Array Size       392 MB
 MEM_STATIC part       400 MB
 A cutoff of  1.0D-12 yielded  27453 shell pairs
 There are    206729 function pairs (    219431 Cartesian)
 
 -------------------------------------------------------
 OpenMP Integral Computing Module                       
 Release: version 1.0, May 2013, Q-Chem Inc. Pittsburgh 
 -------------------------------------------------------
 Integral Job Info:
 Integral job number is                      11
 Integral operator is                         1
 short-range coefficients                     0
 long-range coefficients              100000000
 Omega coefficients                           0
 if combine SR and LR in K                    0
 Integral screening is                        0
 Integral computing path is                   2
 max size of driver memory is            800000
 size of driver memory is                593474
 size of scratch memory is              2361544
 max col of scratch BK array               1296
 max len of scratch array in speh3          155
 max len of scratch index in speh4           18
 max int batch size is                      520
 min int batch size is                       52
 fixed nKL is                                52
 max L of basis functions is                  2
 order of int derivative is                   0
 number of shells is                        300
 number of basis is                         858
 number of cartesian basis is               858
 number of contracted shell pairs         27453
 number of primitive shell pairs          59593
 maxK2 (contraction) of shell pair           36
 max number of K2 of shell pair               1
 max number of CS2 of shell pair           5691
 max number of PS2 of shell pair           9492
 mem total for path MDJ                  376962
 -------------------------------------------------------
 Smallest overlap matrix eigenvalue = 1.25E-07
 Linear dependence detected in AO basis
 Number of orthogonalized atomic orbitals = 824
 Maximum deviation from orthogonality = 2.799E-10

 Scale SEOQF with 1.000000e-02/1.000000e-01/1.000000e-01

 Standard Electronic Orientation quadrupole field applied
 Nucleus-field energy     =     0.0000000141 hartrees
 Guess from superposition of atomic densities
 Warning:  Energy on first SCF cycle will be non-variational
 A restricted hybrid HF-DFT SCF calculation will be
 performed using Pulay DIIS extrapolation
 Exchange:     0.2000 Hartree-Fock + 0.0800 Slater + 0.7200 B88
 Correlation:  0.1900 VWN1RPA + 0.8100 LYP
 Using SG-1 standard quadrature grid
 Dispersion:   Grimme D3
 SCF converges when DIIS error is below 1.0E-08
 using 2 threads for integral computing
 -------------------------------------------------------
 OpenMP Integral computing Module                
 Release: version 1.0, May 2013, Q-Chem Inc. Pittsburgh 
 -------------------------------------------------------
 -------------------------------------------------------
 OpenMP BLAS3 based DFT computing Module                
 Release: version 1.0, May 2013, Q-Chem Inc. Pittsburgh 
 -------------------------------------------------------
 ---------------------------------------
  Cycle       Energy         DIIS Error
 ---------------------------------------
    1   -1461.3572455738      2.25E-02
    2   -1454.4896055331      2.90E-03
    3   -1453.4429665930      5.06E-03
    4   -1454.9815193704      1.21E-03
    5   -1455.0818090373      2.95E-04
    6   -1455.0864063646      1.20E-04
    7   -1455.0873056461      2.41E-05
    8   -1455.0873392643      9.32E-06
    9   -1455.0873447096      3.27E-06
   10   -1455.0873453147      1.09E-06
   11   -1455.0873453889      2.89E-07
   12   -1455.0873453946      1.29E-07
   13   -1455.0873453958      3.47E-08
   14   -1455.0873453958      8.15E-09 Convergence criterion met
 ---------------------------------------
 SCF time:  CPU 2388.74 s  wall 1200.25 s
 SCF   energy in the final basis set = -1455.08734540
 Total energy in the final basis set = -1455.08734540
 
 --------------------------------------------------------------
 
                    Orbital Energies (a.u.)
 --------------------------------------------------------------
 
 Alpha MOs
 -- Occupied --
-19.177 -19.176 -19.176 -19.174 -19.120 -19.120 -19.119 -19.117
-10.312 -10.311 -10.311 -10.309 -10.232 -10.232 -10.231 -10.229
-10.210 -10.209 -10.206 -10.206 -10.206 -10.206 -10.192 -10.192
-10.190 -10.189 -10.188 -10.188 -10.173 -10.172  -1.121  -1.121
 -1.114  -1.113  -1.032  -1.031  -1.030  -1.028  -0.885  -0.885
 -0.800  -0.800  -0.794  -0.794  -0.746  -0.746  -0.730  -0.730
 -0.703  -0.703  -0.654  -0.653  -0.625  -0.625  -0.580  -0.580
 -0.574  -0.573  -0.548  -0.548  -0.520  -0.520  -0.513  -0.512
 -0.490  -0.490  -0.489  -0.488  -0.481  -0.481  -0.477  -0.476
 -0.471  -0.471  -0.446  -0.445  -0.434  -0.433  -0.430  -0.430
 -0.428  -0.427  -0.411  -0.411  -0.405  -0.405  -0.394  -0.394
 -0.383  -0.382  -0.377  -0.376  -0.369  -0.369  -0.364  -0.363
 -0.362  -0.362  -0.321  -0.321  -0.313  -0.312  -0.295  -0.295
 -0.293  -0.293  -0.268  -0.268  -0.263  -0.262
 -- Virtual --
 -0.058  -0.058  -0.038  -0.037  -0.015  -0.008  -0.006  -0.001
  0.003   0.006   0.009   0.009   0.013   0.014   0.016   0.021
  0.023   0.023   0.025   0.032   0.033   0.034   0.038   0.040
  0.041   0.043   0.044   0.049   0.055   0.057   0.058   0.061
  0.062   0.067   0.069   0.071   0.074   0.077   0.080   0.084
  0.086   0.086   0.093   0.095   0.099   0.101   0.103   0.105
  0.106   0.109   0.110   0.111   0.112   0.113   0.115   0.117
  0.117   0.121   0.122   0.123   0.125   0.129   0.129   0.132
  0.133   0.134   0.136   0.137   0.139   0.140   0.141   0.144
  0.145   0.147   0.149   0.150   0.153   0.155   0.156   0.158
  0.160   0.164   0.167   0.167   0.170   0.170   0.172   0.174
  0.176   0.178   0.179   0.182   0.184   0.186   0.186   0.189
  0.193   0.195   0.198   0.201   0.203   0.204   0.206   0.207
  0.210   0.211   0.216   0.218   0.220   0.221   0.224   0.226
  0.228   0.229   0.235   0.237   0.238   0.241   0.242   0.244
  0.250   0.252   0.253   0.256   0.256   0.261   0.264   0.267
  0.268   0.271   0.271   0.274   0.276   0.283   0.284   0.285
  0.286   0.288   0.292   0.293   0.293   0.297   0.301   0.302
  0.309   0.311   0.311   0.313   0.314   0.317   0.320   0.322
  0.325   0.327   0.329   0.332   0.338   0.341   0.344   0.345
  0.351   0.353   0.355   0.357   0.360   0.362   0.363   0.365
  0.370   0.372   0.375   0.379   0.381   0.384   0.387   0.390
  0.391   0.393   0.394   0.395   0.400   0.404   0.409   0.413
  0.415   0.418   0.424   0.426   0.426   0.436   0.446   0.454
  0.458   0.469   0.476   0.481   0.494   0.497   0.501   0.503
  0.505   0.508   0.512   0.515   0.517   0.523   0.528   0.532
  0.537   0.540   0.545   0.553   0.554   0.555   0.560   0.570
  0.571   0.574   0.576   0.581   0.582   0.589   0.590   0.597
  0.600   0.604   0.605   0.609   0.614   0.616   0.625   0.632
  0.634   0.640   0.643   0.646   0.651   0.652   0.654   0.656
  0.660   0.664   0.667   0.669   0.673   0.673   0.676   0.678
  0.680   0.683   0.685   0.687   0.688   0.694   0.698   0.699
  0.704   0.709   0.716   0.721   0.728   0.731   0.737   0.741
  0.744   0.748   0.756   0.758   0.762   0.763   0.765   0.771
  0.778   0.780   0.791   0.794   0.799   0.801   0.812   0.815
  0.824   0.826   0.846   0.846   0.852   0.863   0.866   0.870
  0.874   0.875   0.878   0.889   0.909   0.919   0.924   0.926
  0.932   0.945   0.951   0.957   0.969   0.973   0.979   0.982
  1.000   1.002   1.021   1.022   1.027   1.033   1.042   1.046
  1.057   1.060   1.064   1.067   1.078   1.082   1.086   1.088
  1.101   1.103   1.115   1.119   1.133   1.138   1.140   1.143
  1.159   1.163   1.192   1.197   1.200   1.203   1.208   1.209
  1.224   1.230   1.242   1.245   1.249   1.257   1.273   1.276
  1.289   1.294   1.301   1.306   1.316   1.319   1.323   1.329
  1.343   1.348   1.368   1.372   1.379   1.380   1.383   1.386
  1.389   1.391   1.402   1.406   1.429   1.433   1.444   1.445
  1.460   1.461   1.465   1.469   1.477   1.478   1.484   1.487
  1.508   1.512   1.515   1.519   1.520   1.525   1.541   1.544
  1.549   1.552   1.557   1.558   1.568   1.571   1.573   1.575
  1.581   1.586   1.587   1.591   1.593   1.598   1.599   1.606
  1.613   1.616   1.633   1.635   1.651   1.652   1.660   1.666
  1.683   1.683   1.698   1.699   1.707   1.708   1.709   1.712
  1.717   1.721   1.729   1.731   1.740   1.740   1.753   1.755
  1.765   1.767   1.771   1.774   1.783   1.786   1.793   1.794
  1.802   1.806   1.812   1.813   1.829   1.833   1.853   1.854
  1.865   1.867   1.881   1.884   1.907   1.911   1.919   1.920
  1.930   1.932   1.949   1.950   1.964   1.967   1.985   1.988
  1.996   1.997   2.004   2.006   2.016   2.020   2.052   2.054
  2.057   2.059   2.091   2.093   2.095   2.095   2.116   2.118
  2.123   2.123   2.138   2.141   2.153   2.154   2.186   2.187
  2.194   2.198   2.226   2.228   2.245   2.247   2.270   2.272
  2.306   2.308   2.341   2.341   2.379   2.380   2.408   2.408
  2.438   2.441   2.451   2.456   2.465   2.468   2.484   2.487
  2.489   2.491   2.506   2.506   2.507   2.511   2.525   2.527
  2.542   2.545   2.561   2.566   2.580   2.582   2.589   2.590
  2.596   2.600   2.600   2.603   2.613   2.618   2.650   2.652
  2.654   2.656   2.675   2.682   2.687   2.691   2.707   2.709
  2.712   2.715   2.729   2.734   2.746   2.751   2.764   2.765
  2.766   2.773   2.791   2.792   2.819   2.823   2.824   2.827
  2.834   2.842   2.847   2.853   2.854   2.857   2.871   2.873
  2.887   2.889   2.896   2.899   2.906   2.907   2.920   2.924
  2.946   2.948   2.957   2.961   2.999   3.001   3.030   3.033
  3.034   3.036   3.050   3.051   3.069   3.070   3.094   3.096
  3.112   3.113   3.121   3.122   3.173   3.175   3.204   3.208
  3.224   3.224   3.229   3.233   3.252   3.253   3.257   3.258
  3.279   3.280   3.313   3.313   3.364   3.366   3.379   3.380
  3.405   3.407   3.440   3.444   3.514   3.516   3.552   3.557
  3.591   3.591   3.625   3.626   3.641   3.645   3.693   3.697
  3.735   3.735   3.777   3.778   3.781   3.784   3.794   3.795
  3.824   3.826   3.854   3.855   3.866   3.867   3.916   3.919
  4.032   4.033   4.042   4.043   4.066   4.069   4.108   4.110
  4.145   4.150   4.153   4.155   4.270   4.271   4.329   4.329
  4.359   4.360   4.842   4.842   5.032   5.041   5.094   5.100
  5.141   5.146   5.194   5.198   5.234   5.242   5.256   5.261
  5.389   5.391   5.417   5.419   5.615   5.616   5.625   5.626
  5.859   5.868   5.883   5.896  23.575  23.581  23.843  23.844
 23.857  23.857  23.924  23.926  23.928  23.930  23.932  23.933
 23.937  23.940  23.988  23.992  24.055  24.056  24.079  24.080
 24.174  24.174  49.882  49.885  49.913  49.915  50.012  50.013
 50.027  50.029
 --------------------------------------------------------------
 
          Ground-State Mulliken Net Atomic Charges

     Atom                 Charge (a.u.)
  ----------------------------------------
      1 C                     0.476969
      2 C                     1.505492
      3 C                    -0.638360
      4 C                    -0.810372
      5 O                     0.053655
      6 O                    -0.191868
      7 O                     0.039905
      8 O                    -0.155786
      9 C                    -0.231088
     10 C                    -0.247336
     11 C                    -0.734522
     12 C                    -0.049512
     13 C                    -0.614105
     14 C                     0.194097
     15 H                     0.170363
     16 H                     0.181661
     17 H                     0.122830
     18 H                     0.178223
     19 H                     0.168471
     20 H                     0.145864
     21 H                     0.173951
     22 H                     0.184586
     23 C                    -0.600224
     24 H                     0.174312
     25 H                     0.192503
     26 H                     0.146381
     27 H                     0.163795
     28 C                     0.550832
     29 C                     1.291928
     30 C                    -0.701757
     31 C                    -0.691296
     32 O                     0.035677
     33 O                    -0.165744
     34 O                     0.055805
     35 O                    -0.176842
     36 C                    -0.247165
     37 C                    -0.232859
     38 C                    -0.670684
     39 C                    -0.052649
     40 C                    -0.587710
     41 C                     0.217492
     42 H                     0.178097
     43 H                     0.173766
     44 H                     0.125200
     45 H                     0.179294
     46 H                     0.147717
     47 H                     0.166775
     48 H                     0.173824
     49 H                     0.183440
     50 C                    -0.634772
     51 H                     0.175488
     52 H                     0.203209
     53 H                     0.142398
     54 H                     0.160651
  ----------------------------------------
  Sum of atomic charges =     0.000000

 -----------------------------------------------------------------
                    Cartesian Multipole Moments
 -----------------------------------------------------------------
    Charge (ESU x 10^10)
                 0.0000
    Dipole Moment (Debye)
         X       0.2892      Y       0.3317      Z      -0.8902
       Tot       0.9931
    Quadrupole Moments (Debye-Ang)
        XX    -183.4527     XY      -6.9268     YY    -142.7434
        XZ      17.2868     YZ      14.1143     ZZ    -179.0207
    Octopole Moments (Debye-Ang^2)
       XXX      15.5551    XXY     -32.8193    XYY      21.5994
       YYY     -58.2908    XXZ     -33.0146    XYZ     -26.2876
       YYZ     -26.5649    XZZ      -9.1771    YZZ       7.9641
       ZZZ      10.1341
    Hexadecapole Moments (Debye-Ang^3)
      XXXX  -18220.1993   XXXY    -345.0955   XXYY   -3127.3579
      XYYY     -57.5161   YYYY   -4002.8173   XXXZ     859.8232
      XXYZ     228.3454   XYYZ      52.5791   YYYZ      44.4998
      XXZZ   -3493.5325   XYZZ     -19.9589   YYZZ   -1159.9098
      XZZZ     114.6148   YZZZ     113.6291   ZZZZ   -2899.7546
 -----------------------------------------------------------------
Archival summary:
1\1\vega03.cac.cornell.edu\SP\ProcedureUnspecified\BasisUnspecified\82224\jj585\MonApr217:14:462018MonApr217:14:462018\0\\#,ProcedureUnspecified,BasisUnspecified,\\0,1\O\C,1,1.3512\O,2,1.2069,1,123.501\C,1,1.43752,2,116.164,3,4.8931,0\H,4,1.08772,1,105.376,2,179.706,0\H,4,1.09086,1,110.507,2,-60.681,0\H,4,1.09163,1,110.367,2,60.0909,0\C,2,1.49626,1,110.928,3,178.057,0\C,8,1.40634,2,119.012,1,-130.615,0\C,9,1.39616,8,117.536,2,177.857,0\H,10,1.08475,9,118.991,8,-179.6,0\C,10,1.38856,9,121.629,8,0.183585,0\H,12,1.08495,10,119.453,9,179.671,0\C,12,1.3959,10,121.575,9,-0.129654,0\H,14,1.032,12,121.26,10,-179.84,0\C,14,1.40604,12,117.481,10,0.160349,0\C,16,1.49803,14,118.266,12,177.84,0\O,17,1.20668,16,125.302,14,50.5403,0\O,17,1.35063,16,111.128,14,-126.75,0\C,19,1.43835,17,115.94,16,-178.519,0\H,20,1.08762,19,105.403,17,179.104,0\H,20,1.09103,19,110.475,17,-61.3232,0\H,20,1.0915,19,110.399,17,59.3962,0\C,9,1.50976,8,122.848,2,-1.37569,0\H,24,1.09144,9,110.135,8,171.975,0\H,24,1.09156,9,111.21,8,-67.4939,0\H,24,1.09291,9,111.796,8,51.7903,0\H,5,4.63075,4,151.627,1,32.2177,0\C,28,1.08762,5,154.276,4,-8.92454,0\H,29,1.09103,28,110.661,5,-91.3634,0\H,29,1.0915,28,110.808,5,147.523,0\O,29,1.43835,28,105.403,5,28.0863,0\C,32,1.35063,29,115.94,28,179.104,0\O,33,1.20668,32,123.512,29,4.13325,0\C,33,1.49803,32,111.128,29,-178.519,0\C,35,1.40604,33,118.266,32,-126.75,0\H,36,1.032,35,121.26,33,-2.16035,0\C,36,1.3959,35,117.481,33,177.84,0\H,38,1.08495,36,118.972,35,-179.641,0\C,38,1.38856,36,121.575,35,0.160349,0\H,40,1.08475,38,119.38,36,179.653,0\C,40,1.39616,38,121.629,36,-0.129654,0\C,42,1.40634,40,117.536,38,0.183585,0\C,43,1.49626,42,119.012,40,177.857,0\O,44,1.2069,43,125.54,42,47.3939,0\O,44,1.3512,43,110.928,42,-130.615,0\C,46,1.43752,44,116.164,43,-177.05,0\H,47,1.08772,46,105.376,44,179.706,0\H,47,1.09086,46,110.507,44,-60.681,0\H,47,1.09163,46,110.367,44,60.0909,0\C,42,1.50976,40,119.611,38,179.442,0\H,51,1.09144,42,110.135,40,-7.24194,0\H,51,1.09156,42,111.21,40,113.289,0\H,51,1.09291,42,111.796,40,-127.427,0\\\@

 Total job time:  1202.20s(wall), 2391.26s(cpu) 
 Mon Apr  2 17:14:46 2018

        *************************************************************
        *                                                           *
        *  Thank you very much for using Q-Chem.  Have a nice day.  *
        *                                                           *
        *************************************************************


0 sent ACK to 0 
now end server 0 ... 
