r0229.ten.osc.edu 10.25.157
Q-Chem Developer Version! Running on 10.25.157.*
                  Welcome to Q-Chem
     A Quantum Leap Into The Future Of Chemistry


 Q-Chem 5.0, Q-Chem, Inc., Pleasanton, CA (2017)

 Yihan Shao,  Zhengting Gan,  E. Epifanovsky,  A. T. B. Gilbert,  M. Wormit,  
 J. Kussmann,  A. W. Lange,  A. Behn,  Jia Deng,  Xintian Feng,  D. Ghosh,  
 M. Goldey,  P. R. Horn,  L. D. Jacobson,  I. Kaliman,  T. Kus,  A. Landau,  
 Jie Liu,  E. I. Proynov,  R. M. Richard,  R. P. Steele,  E. J. Sundstrom,  
 H. L. Woodcock III,  P. M. Zimmerman,  D. Zuev,  B. Albrecht,  E. Alguire,  
 S. A. Baeppler,  Z. Benda,  Y. A. Bernard,  E. J. Berquist,  K. B. Bravaya,  
 D. Casanova,  Chun-Min Chang,  Yunqing Chen,  A. Chien,  K. D. Closser,  
 M. P. Coons,  S. Dasgupta,  M. Diedenhofen,  Hainam Do,  R. G. Edgar,  
 Po-Tung Fang,  S. Fatehi,  Qingguo Feng,  Qinghui Ge,  A. Ghysels,  
 J. Gomes,  J. Gonthier,  A. Gunina,  M. W. D. Hanson-Heine,  
 P. H. P. Harbach,  A. W. Hauser,  J. E. Herr,  E. G. Hohenstein,  
 Z. C. Holden,  Kerwin Hui,  T.-C. Jagau,  Hyunjun Ji,  B. Kaduk,  
 K. Khistyaev,  Jaehoon Kim,  P. Klunzinger,  K. Koh,  D. Kosenkov,  
 T. Kowalczyk,  C. M. Krauter,  A. Kunitsa,  Ka Un Lao,  A. Laurent,  
 K. V. Lawler,  Joonho Lee,  D. Lefrancois,  S. Lehtola,  D. S. Levine,  
 Yi-Pei Li,  You-Sheng Lin,  Fenglai Liu,  E. Livshits,  A. Luenser,  
 P. Manohar,  E. Mansoor,  S. F. Manzer,  Shan-Ping Mao,  Yuezhi Mao,  
 N. Mardirossian,  A. V. Marenich,  L. A. Martinez-Martinez,  S. A. Maurer,  
 N. J. Mayhall,  S. C. McKenzie,  J.-M. Mewes,  A. F. Morrison,  K. Nanda,  
 T. S. Nguyen-Beck,  R. Olivares-Amaya,  J. A. Parkhill,  T. M. Perrine,  
 F. Plasser,  S. Prager,  A. Prociuk,  D. R. Rehn,  F. Rob,  M. Schneider,  
 N. Sergueev,  S. M. Sharada,  S. Sharma,  D. W. Small,  T. Stauch,  
 T. Stein,  Yu-Chuan Su,  A. J. W. Thom,  T. Tsuchimochi,  L. Vogt,  
 O. Vydrov,  M. A. Watson,  J. Wenzel,  M. de Wergifosse,  T. A. Wesolowski,  
 A. White,  J. Witte,  A. Yamada,  Jun Yang,  K. Yao,  S. Yeganeh,  
 S. R. Yost,  Zhi-Qiang You,  A. Zech,  Igor Ying Zhang,  Xing Zhang,  
 Yan Zhao,  Ying Zhu,  B. R. Brooks,  G. K. L. Chan,  C. J. Cramer,  
 M. S. Gordon,  W. J. Hehre,  A. Klamt,  M. W. Schmidt,  C. D. Sherrill,  
 D. G. Truhlar,  A. Aspuru-Guzik,  R. Baer,  A. T. Bell,  N. A. Besley,  
 Jeng-Da Chai,  A. Dreuw,  B. D. Dunietz,  T. R. Furlani,  Chao-Ping Hsu,  
 Yousung Jung,  Jing Kong,  D. S. Lambrecht,  WanZhen Liang,  C. Ochsenfeld,  
 V. A. Rassolov,  L. V. Slipchenko,  J. E. Subotnik,  T. Van Voorhis,  
 J. M. Herbert,  A. I. Krylov,  P. M. W. Gill,  M. Head-Gordon

 Contributors to earlier versions of Q-Chem not listed above: 
 R. D. Adamson,  B. Austin,  J. Baker,  G. J. O. Beran,  K. Brandhorst,  
 S. T. Brown,  E. F. C. Byrd,  A. K. Chakraborty,  C.-L. Cheng,  
 Siu Hung Chien,  D. M. Chipman,  D. L. Crittenden,  H. Dachsel,  
 R. A. DiStasio Jr.,  R. J. Doerksen,  A. D. Dutoi,  L. Fusti-Molnar,  
 W. A. Goddard III,  A. Golubeva-Zadorozhnaya,  S. R. Gwaltney,  G. Hawkins,  
 A. Heyden,  S. Hirata,  G. Kedziora,  F. J. Keil,  C. Kelley,  Jihan Kim,  
 R. A. King,  R. Z. Khaliullin,  P. P. Korambath,  W. Kurlancheek,  
 A. M. Lee,  M. S. Lee,  S. V. Levchenko,  Ching Yeh Lin,  D. Liotard,  
 R. C. Lochan,  I. Lotan,  P. E. Maslen,  N. Nair,  D. P. O'Neill,  
 D. Neuhauser,  E. Neuscamman,  C. M. Oana,  R. Olson,  B. Peters,  
 R. Peverati,  P. A. Pieniazek,  Y. M. Rhee,  J. Ritchie,  M. A. Rohrdanz,  
 E. Rosta,  N. J. Russ,  H. F. Schaefer III,  N. E. Schultz,  N. Shenvi,  
 A. C. Simmonett,  A. Sodt,  D. Stuck,  K. S. Thanthiriwatte,  V. Vanovschi,  
 Tao Wang,  A. Warshel,  C. F. Williams,  Q. Wu,  X. Xu,  W. Zhang

 Please cite Q-Chem as follows:
 Y. Shao et al., Mol. Phys. 113, 184-215 (2015)
 DOI: 10.1080/00268976.2014.952696

 Q-Chem 5.0.1 for Intel X86 EM64T Linux

 Parts of Q-Chem use Armadillo 5.200.1 (Boston Tea Smuggler).
 http://arma.sourceforge.net/

 Q-Chem begins on Mon Oct 23 23:19:45 2017  

Host: r0229.ten.osc.edu
0

     Scratch files written to /tmp/pbstmp.1324328/02//
Processing $rem in /users/PAS0291/osu6415/.qchemrc.
molden_format             true

Checking the input file for inconsistencies... 	...done.

--------------------------------------------------------------
User input:
--------------------------------------------------------------
$molecule
0 1
C 0.50776316 1.01312101 0.72070154
C 0.72490390 -0.51909345 1.00235957
C -0.78078236 1.42591725 0.04571854
C -0.30182905 -1.52688338 0.54032045
O -1.84298936 1.06777298 0.80220001
O -0.87520187 2.04498407 -0.98446388
O -0.84775465 -1.22182543 -0.65292165
O -0.56532091 -2.53666788 1.15033816
C -1.81380603 -2.15251054 -1.17023571
C -3.13859611 1.35777578 0.25103562
C 1.80631162 1.42772981 -0.04929176
C 1.78875430 0.71731363 -1.39172897
C 1.99342461 -0.58360810 -1.16231011
C 2.14696985 -0.76856101 0.33696455
C 2.84010380 0.56179990 0.70809768
H -1.35965559 -3.13335407 -1.31892397
H -3.25975056 0.85738696 -0.71141456
H 1.93076010 -1.39022649 -1.88045664
H -2.13846156 -1.73275620 -2.11998414
H -2.65521211 -2.24883728 -0.48204496
H -3.85497467 0.97476331 0.97472262
H -3.26753137 2.43257317 0.11483195
H 2.60767529 -1.69516187 0.67548585
H 1.96584352 2.50397150 -0.07663488
H 3.84239356 0.63943682 0.28404134
H 2.87726728 0.75352743 1.78490885
H 1.52423790 1.18671802 -2.32801249
H 0.49288369 1.51723991 1.69224171
H 0.81772661 -0.68783094 2.07465101
$end

$rem
sym_ignore      true
jobtype         opt
method          b3lyp
basis           6-311++G(d,p)
dft_d           d3_op
mem_total       62000
MEM_STATIC      4000
ao2mo_disk      350000
max_scf_cycles  200
geom_opt_max_cycles 1000
geom_opt_tol_displacement 1
GEOM_OPT_TOL_GRADIENT       1
GEOM_OPT_TOL_ENERGY         1
$end

--------------------------------------------------------------
 Adding empirical dispersion correction 
 ----------------------------------------------------------------
 Doing -D3(op) with
 s6 =   1.00000
 s8 =   0.78311
 a1 =   0.30000
 a2 =   4.25000
 n  =  10.00000
 -D3 energy without 3body term =     -0.0345119167 hartrees
 ----------------------------------------------------------------
             Standard Nuclear Orientation (Angstroms)
    I     Atom           X                Y                Z
 ----------------------------------------------------------------
    1      C       0.5077631600     1.0131210100     0.7207015400
    2      C       0.7249039000    -0.5190934500     1.0023595700
    3      C      -0.7807823600     1.4259172500     0.0457185400
    4      C      -0.3018290500    -1.5268833800     0.5403204500
    5      O      -1.8429893600     1.0677729800     0.8022000100
    6      O      -0.8752018700     2.0449840700    -0.9844638800
    7      O      -0.8477546500    -1.2218254300    -0.6529216500
    8      O      -0.5653209100    -2.5366678800     1.1503381600
    9      C      -1.8138060300    -2.1525105400    -1.1702357100
   10      C      -3.1385961100     1.3577757800     0.2510356200
   11      C       1.8063116200     1.4277298100    -0.0492917600
   12      C       1.7887543000     0.7173136300    -1.3917289700
   13      C       1.9934246100    -0.5836081000    -1.1623101100
   14      C       2.1469698500    -0.7685610100     0.3369645500
   15      C       2.8401038000     0.5617999000     0.7080976800
   16      H      -1.3596555900    -3.1333540700    -1.3189239700
   17      H      -3.2597505600     0.8573869600    -0.7114145600
   18      H       1.9307601000    -1.3902264900    -1.8804566400
   19      H      -2.1384615600    -1.7327562000    -2.1199841400
   20      H      -2.6552121100    -2.2488372800    -0.4820449600
   21      H      -3.8549746700     0.9747633100     0.9747226200
   22      H      -3.2675313700     2.4325731700     0.1148319500
   23      H       2.6076752900    -1.6951618700     0.6754858500
   24      H       1.9658435200     2.5039715000    -0.0766348800
   25      H       3.8423935600     0.6394368200     0.2840413400
   26      H       2.8772672800     0.7535274300     1.7849088500
   27      H       1.5242379000     1.1867180200    -2.3280124900
   28      H       0.4928836900     1.5172399100     1.6922417100
   29      H       0.8177266100    -0.6878309400     2.0746510100
 ----------------------------------------------------------------
 Nuclear Repulsion Energy =  1094.5060733592 hartrees
 There are       56 alpha and       56 beta electrons
 Requested basis set is 6-311++G(d,p)
 There are 160 shells and 428 basis functions

 Total QAlloc Memory Limit  62000 MB
 Mega-Array Size      3911 MB
 MEM_STATIC part      4000 MB
 A cutoff of  1.0D-11 yielded  10844 shell pairs
 There are     79506 function pairs (     85011 Cartesian)
 
 -------------------------------------------------------
 OpenMP Integral Computing Module                       
 Release: version 1.0, May 2013, Q-Chem Inc. Pittsburgh 
 -------------------------------------------------------
 Integral Job Info:
 Integral job number is                      11
 Integral operator is                         1
 short-range coefficients                     0
 long-range coefficients              100000000
 Omega coefficients                           0
 if combine SR and LR in K                    0
 Integral screening is                        0
 Integral computing path is                   2
 max size of driver memory is            800000
 size of driver memory is                593474
 size of scratch memory is              2361544
 max col of scratch BK array               1296
 max len of scratch array in speh3          155
 max len of scratch index in speh4           18
 max int batch size is                      520
 min int batch size is                       52
 fixed nKL is                                52
 max L of basis functions is                  2
 order of int derivative is                   0
 number of shells is                        160
 number of basis is                         443
 number of cartesian basis is               443
 number of contracted shell pairs         10844
 number of primitive shell pairs          24528
 maxK2 (contraction) of shell pair           36
 max number of K2 of shell pair               1
 max number of CS2 of shell pair           1978
 max number of PS2 of shell pair           3516
 mem total for path MDJ                  147880
 -------------------------------------------------------
 Smallest overlap matrix eigenvalue = 1.28E-06

 Q-Chem warning in module /fs/scratch/osu6415/qchem-kaunlao-vdw/stvman/mkSTV.C, line 281:

 Overlap eigenvalue is smaller than square root of threshold


 Scale SEOQF with 1.000000e-01/1.000000e-01/1.000000e-01

 Standard Electronic Orientation quadrupole field applied
 Nucleus-field energy     =     0.0000000197 hartrees
 Guess from superposition of atomic densities
 Warning:  Energy on first SCF cycle will be non-variational
 A restricted hybrid HF-DFT SCF calculation will be
 performed using Pulay DIIS extrapolation
 Exchange:     0.2000 Hartree-Fock + 0.0800 Slater + 0.7200 B88
 Correlation:  0.1900 VWN1RPA + 0.8100 LYP
 Using SG-1 standard quadrature grid
 Dispersion:   Grimme D3
 SCF converges when DIIS error is below 1.0E-08
 using 20 threads for integral computing
 -------------------------------------------------------
 OpenMP Integral computing Module                
 Release: version 1.0, May 2013, Q-Chem Inc. Pittsburgh 
 -------------------------------------------------------
 -------------------------------------------------------
 OpenMP BLAS3 based DFT computing Module                
 Release: version 1.0, May 2013, Q-Chem Inc. Pittsburgh 
 -------------------------------------------------------
 ---------------------------------------
  Cycle       Energy         DIIS Error
 ---------------------------------------
    1    -731.8904513839      3.09E-02
    2    -728.4073862631      3.96E-03
    3    -727.9062886000      6.75E-03
    4    -728.6737462638      1.43E-03
    5    -728.7083152592      4.44E-04
    6    -728.7114715959      1.17E-04
    7    -728.7116914809      4.20E-05
    8    -728.7117202991      1.15E-05
    9    -728.7117225535      3.56E-06
   10    -728.7117227391      1.71E-06
   11    -728.7117227880      4.27E-07
   12    -728.7117227915      1.43E-07
   13    -728.7117227916      5.97E-08
   14    -728.7117227921      1.51E-08
   15    -728.7117227931      4.12E-09 Convergence criterion met
 ---------------------------------------
 SCF time:  CPU 812.60 s  wall 47.41 s
 SCF   energy in the final basis set = -728.71172279
 Total energy in the final basis set = -728.71172279
 
 --------------------------------------------------------------
 
                    Orbital Energies (a.u.)
 --------------------------------------------------------------
 
 Alpha MOs
 -- Occupied --
-19.174 -19.172 -19.116 -19.114 -10.306 -10.305 -10.231 -10.230
-10.205 -10.204 -10.197 -10.191 -10.180 -10.171 -10.169  -1.117
 -1.111  -1.028  -1.026  -0.901  -0.792  -0.763  -0.736  -0.725
 -0.706  -0.640  -0.590  -0.575  -0.566  -0.540  -0.534  -0.525
 -0.500  -0.495  -0.483  -0.476  -0.464  -0.459  -0.442  -0.427
 -0.414  -0.404  -0.397  -0.388  -0.381  -0.367  -0.365  -0.360
 -0.352  -0.346  -0.325  -0.320  -0.311  -0.285  -0.282  -0.251
 -- Virtual --
 -0.017  -0.012  -0.005  -0.004   0.002   0.009   0.014   0.019
  0.020   0.027   0.031   0.038   0.042   0.046   0.051   0.054
  0.056   0.065   0.079   0.080   0.088   0.094   0.096   0.100
  0.104   0.106   0.112   0.113   0.114   0.118   0.119   0.121
  0.129   0.131   0.134   0.139   0.141   0.143   0.145   0.148
  0.151   0.152   0.156   0.161   0.162   0.164   0.165   0.169
  0.175   0.178   0.178   0.188   0.193   0.195   0.202   0.207
  0.208   0.211   0.218   0.222   0.228   0.230   0.233   0.241
  0.250   0.252   0.256   0.259   0.263   0.270   0.280   0.282
  0.290   0.290   0.296   0.306   0.306   0.313   0.319   0.325
  0.326   0.330   0.332   0.335   0.338   0.343   0.350   0.353
  0.357   0.361   0.365   0.371   0.376   0.382   0.383   0.398
  0.405   0.410   0.424   0.425   0.435   0.445   0.457   0.469
  0.483   0.492   0.499   0.508   0.513   0.525   0.534   0.537
  0.544   0.564   0.572   0.586   0.597   0.607   0.620   0.624
  0.629   0.637   0.644   0.648   0.657   0.664   0.670   0.676
  0.681   0.691   0.700   0.703   0.709   0.714   0.723   0.725
  0.729   0.734   0.741   0.751   0.761   0.765   0.768   0.774
  0.784   0.795   0.816   0.825   0.833   0.857   0.860   0.873
  0.891   0.899   0.933   0.963   0.977   0.996   1.019   1.036
  1.043   1.048   1.074   1.089   1.096   1.109   1.131   1.138
  1.152   1.185   1.190   1.194   1.211   1.222   1.234   1.239
  1.256   1.284   1.285   1.299   1.305   1.308   1.348   1.361
  1.369   1.393   1.403   1.409   1.426   1.441   1.459   1.469
  1.483   1.491   1.528   1.535   1.550   1.556   1.563   1.570
  1.580   1.585   1.603   1.608   1.614   1.633   1.643   1.653
  1.665   1.684   1.699   1.702   1.707   1.717   1.722   1.730
  1.736   1.756   1.767   1.779   1.781   1.798   1.808   1.824
  1.837   1.867   1.872   1.875   1.881   1.890   1.904   1.922
  1.925   1.940   1.955   1.979   1.989   2.010   2.013   2.022
  2.037   2.042   2.083   2.102   2.109   2.122   2.136   2.174
  2.179   2.188   2.202   2.213   2.225   2.229   2.249   2.280
  2.328   2.340   2.361   2.378   2.400   2.436   2.456   2.473
  2.488   2.498   2.512   2.525   2.536   2.545   2.567   2.579
  2.595   2.610   2.625   2.646   2.656   2.674   2.685   2.724
  2.736   2.747   2.763   2.772   2.797   2.812   2.828   2.847
  2.852   2.868   2.883   2.897   2.900   2.925   2.946   2.970
  2.991   3.002   3.012   3.033   3.041   3.050   3.059   3.074
  3.091   3.105   3.113   3.132   3.158   3.185   3.227   3.233
  3.236   3.257   3.320   3.331   3.349   3.383   3.396   3.412
  3.465   3.591   3.598   3.613   3.698   3.728   3.778   3.782
  3.786   3.836   3.853   3.947   4.034   4.051   4.073   4.087
  4.115   4.138   4.159   4.169   4.199   4.234   4.253   4.349
  4.436   5.034   5.109   5.134   5.175   5.247   5.265   5.407
  5.440   5.635   5.644   5.879   5.894  23.799  23.834  23.863
 23.869  23.892  23.923  23.937  23.941  24.003  24.039  24.311
 49.906  49.926  50.034  50.038
 --------------------------------------------------------------
 
          Ground-State Mulliken Net Atomic Charges

     Atom                 Charge (a.u.)
  ----------------------------------------
      1 C                     0.354962
      2 C                    -0.037414
      3 C                    -0.789915
      4 C                    -0.458122
      5 O                    -0.018283
      6 O                    -0.188792
      7 O                    -0.017780
      8 O                    -0.209568
      9 C                    -0.250243
     10 C                    -0.207553
     11 C                     0.302270
     12 C                    -0.363276
     13 C                    -0.463171
     14 C                     0.365459
     15 C                    -0.733059
     16 H                     0.181523
     17 H                     0.179553
     18 H                     0.136462
     19 H                     0.164455
     20 H                     0.196027
     21 H                     0.158798
     22 H                     0.171869
     23 H                     0.272614
     24 H                     0.261653
     25 H                     0.174798
     26 H                     0.128735
     27 H                     0.172951
     28 H                     0.253160
     29 H                     0.261889
  ----------------------------------------
  Sum of atomic charges =     0.000000

 -----------------------------------------------------------------
                    Cartesian Multipole Moments
 -----------------------------------------------------------------
    Charge (ESU x 10^10)
                 0.0000
    Dipole Moment (Debye)
         X      -0.4762      Y       0.4689      Z      -0.1074
       Tot       0.6769
    Quadrupole Moments (Debye-Ang)
        XX     -78.4800     XY       0.2335     YY     -94.8166
        XZ       3.9710     YZ      11.0728     ZZ     -90.2059
    Octopole Moments (Debye-Ang^2)
       XXX     -63.2965    XXY       0.9689    XYY      -4.2546
       YYY       7.9250    XXZ       3.5532    XYZ     -10.3546
       YYZ     -12.6351    XZZ      -4.8313    YZZ      -1.7345
       ZZZ      -4.1832
    Hexadecapole Moments (Debye-Ang^3)
      XXXX   -1722.8397   XXXY     -40.4049   XXYY    -470.9599
      XYYY     -17.8587   YYYY   -1264.9592   XXXZ       8.7305
      XXYZ      13.3882   XYYZ       4.8434   YYYZ      83.5964
      XXZZ    -398.4512   XYZZ       3.1781   YYZZ    -311.6482
      XZZZ       4.1603   YZZZ      19.5974   ZZZZ    -531.5733
 -----------------------------------------------------------------
 Calculating analytic gradient of the SCF energy
 Gradient of SCF Energy
            1           2           3           4           5           6
    1   0.0002835  -0.0005335   0.0000272  -0.0003052  -0.0000788  -0.0000062
    2  -0.0000609   0.0000446  -0.0004760   0.0004529  -0.0000362   0.0003732
    3  -0.0007435   0.0006248  -0.0001180   0.0001678   0.0000027   0.0002060
            7           8           9          10          11          12
    1  -0.0000364   0.0003640   0.0000516   0.0000984   0.0000299   0.0000354
    2  -0.0000035  -0.0003074  -0.0000431   0.0000452   0.0000202   0.0001012
    3   0.0000015  -0.0002308   0.0001306  -0.0000867   0.0000387  -0.0000053
           13          14          15          16          17          18
    1   0.0001242   0.0000587  -0.0000946   0.0000165  -0.0000193  -0.0000662
    2  -0.0001046  -0.0000724   0.0000426   0.0000206  -0.0000460   0.0000348
    3   0.0001146  -0.0001258  -0.0000019  -0.0000399   0.0000348  -0.0000401
           19          20          21          22          23          24
    1  -0.0000166  -0.0000052  -0.0000285  -0.0000217   0.0000250  -0.0000398
    2  -0.0000097   0.0000298  -0.0000158  -0.0000173   0.0000531   0.0000124
    3  -0.0000168  -0.0000227   0.0000101   0.0000480   0.0000895  -0.0000592
           25          26          27          28          29
    1  -0.0000028   0.0000604  -0.0000464   0.0000826   0.0000437
    2   0.0000218   0.0000088  -0.0000454  -0.0000049  -0.0000181
    3   0.0000167   0.0000111  -0.0000142   0.0000182  -0.0000103
 Max gradient component =       7.435E-04
 RMS gradient           =       1.708E-04
 Gradient time:  CPU 258.47 s  wall 19.49 s
 Geometry Optimization Parameters
   NAtoms,    NIC,     NZ,  NCons,   NDum,   NFix, NCnnct, MaxDiis
       29     227       0       0       0       0       0       0


** GEOMETRY OPTIMIZATION IN DELOCALIZED INTERNAL COORDINATES **
   Searching for a Minimum

   Optimization Cycle:   1

                       Coordinates (Angstroms)
     ATOM                X               Y               Z
      1  C         0.5077631600    1.0131210100    0.7207015400
      2  C         0.7249039000   -0.5190934500    1.0023595700
      3  C        -0.7807823600    1.4259172500    0.0457185400
      4  C        -0.3018290500   -1.5268833800    0.5403204500
      5  O        -1.8429893600    1.0677729800    0.8022000100
      6  O        -0.8752018700    2.0449840700   -0.9844638800
      7  O        -0.8477546500   -1.2218254300   -0.6529216500
      8  O        -0.5653209100   -2.5366678800    1.1503381600
      9  C        -1.8138060300   -2.1525105400   -1.1702357100
     10  C        -3.1385961100    1.3577757800    0.2510356200
     11  C         1.8063116200    1.4277298100   -0.0492917600
     12  C         1.7887543000    0.7173136300   -1.3917289700
     13  C         1.9934246100   -0.5836081000   -1.1623101100
     14  C         2.1469698500   -0.7685610100    0.3369645500
     15  C         2.8401038000    0.5617999000    0.7080976800
     16  H        -1.3596555900   -3.1333540700   -1.3189239700
     17  H        -3.2597505600    0.8573869600   -0.7114145600
     18  H         1.9307601000   -1.3902264900   -1.8804566400
     19  H        -2.1384615600   -1.7327562000   -2.1199841400
     20  H        -2.6552121100   -2.2488372800   -0.4820449600
     21  H        -3.8549746700    0.9747633100    0.9747226200
     22  H        -3.2675313700    2.4325731700    0.1148319500
     23  H         2.6076752900   -1.6951618700    0.6754858500
     24  H         1.9658435200    2.5039715000   -0.0766348800
     25  H         3.8423935600    0.6394368200    0.2840413400
     26  H         2.8772672800    0.7535274300    1.7849088500
     27  H         1.5242379000    1.1867180200   -2.3280124900
     28  H         0.4928836900    1.5172399100    1.6922417100
     29  H         0.8177266100   -0.6878309400    2.0746510100
   Point Group: c1    Number of degrees of freedom:    81


   Energy is   -728.711722793


 Attempting to Generate Delocalized Internal Coordinates

 81 Hessian modes will be used to form the next step
  Hessian Eigenvalues:
     0.004064    0.007582    0.007716    0.010656    0.010681    0.011136
     0.011528    0.013151    0.016746    0.016920    0.020067    0.021950
     0.022631    0.024622    0.031346    0.039470    0.041487    0.043019
     0.046223    0.046957    0.050620    0.053764    0.054028    0.056421
     0.058752    0.068312    0.075289    0.093536    0.097794    0.101288
     0.101299    0.105958    0.106052    0.115185    0.120689    0.145359
     0.156093    0.158295    0.160000    0.160000    0.160000    0.160000
     0.160000    0.160000    0.174708    0.225181    0.228422    0.240476
     0.249704    0.249783    0.250000    0.250000    0.250000    0.250000
     0.254096    0.256799    0.274081    0.301006    0.311435    0.312442
     0.342813    0.343116    0.346396    0.346674    0.346892    0.346903
     0.346929    0.348765    0.349544    0.350046    0.350515    0.350516
     0.357775    0.359643    0.398996    0.399267    0.513912    0.545272
     0.556235    1.005195    1.020662

 Minimum Search - Taking Simple RFO Step
 Searching for Lamda that Minimizes Along All modes
 Value Taken    Lamda =  -0.00006538
 Step Taken.  Stepsize is  0.087038

                             Maximum     Tolerance    Cnvgd?
         Gradient           0.000334      0.000001      NO
         Displacement       0.036650      0.000001      NO
         Energy change     *********      0.000000      NO


 New Cartesian Coordinates Obtained by Inverse Iteration

 Displacement from previous Coordinates is:  0.135636
 Adding empirical dispersion correction 
 ----------------------------------------------------------------
 Doing -D3(op) with
 s6 =   1.00000
 s8 =   0.78311
 a1 =   0.30000
 a2 =   4.25000
 n  =  10.00000
 -D3 energy without 3body term =     -0.0345225514 hartrees
 ----------------------------------------------------------------
             Standard Nuclear Orientation (Angstroms)
    I     Atom           X                Y                Z
 ----------------------------------------------------------------
    1      C       0.5085451985     1.0124751669     0.7249731342
    2      C       0.7278405966    -0.5208761895     0.9998427733
    3      C      -0.7788754781     1.4247123400     0.0472129630
    4      C      -0.3010616554    -1.5279644044     0.5404212624
    5      O      -1.8423181699     1.0743008688     0.8055110107
    6      O      -0.8719484537     2.0235567192    -0.9949666562
    7      O      -0.8399197091    -1.2303415689    -0.6579112869
    8      O      -0.5857930267    -2.5221535591     1.1662432814
    9      C      -1.8160262933    -2.1551595138    -1.1669738230
   10      C      -3.1371225293     1.3548365796     0.2474647846
   11      C       1.8077436089     1.4305915035    -0.0424678599
   12      C       1.7885996902     0.7289350942    -1.3894053292
   13      C       1.9914938468    -0.5736370327    -1.1682420493
   14      C       2.1476103071    -0.7682282732     0.3297301021
   15      C       2.8420691660     0.5591603224     0.7082078312
   16      H      -1.3737726606    -3.1434303381    -1.3018570704
   17      H      -3.2547934556     0.8420833738    -0.7089099509
   18      H       1.9285026105    -1.3758585048    -1.8912542089
   19      H      -2.1324848761    -1.7431222483    -2.1228055359
   20      H      -2.6605206641    -2.2327006299    -0.4801617122
   21      H      -3.8546593518     0.9799535043     0.9741963979
   22      H      -3.2674171765     2.4275576648     0.0967968662
   23      H       2.6079379210    -1.6976272569     0.6610284108
   24      H       1.9684204388     2.5068124247    -0.0628043890
   25      H       3.8439083227     0.6387518253     0.2834153049
   26      H       2.8802636649     0.7441620547     1.7861330270
   27      H       1.5249012400     1.2050386830    -2.3225321380
   28      H       0.4911405065     1.5142764007     1.6976469177
   29      H       0.8228893716    -0.6913900963     2.0716636724
 ----------------------------------------------------------------
 Nuclear Repulsion Energy =  1094.5598157127 hartrees
 There are       56 alpha and       56 beta electrons
 Applying Cartesian multipole field
    Component          Value
    ---------          -----
     (2,0,0)        1.00000E-11
     (0,2,0)        2.00000E-11
     (0,0,2)       -3.00000E-11
 Nucleus-field energy     =     0.0000000196 hartrees
 Requested basis set is 6-311++G(d,p)
 There are 160 shells and 428 basis functions
 A cutoff of  1.0D-11 yielded  10836 shell pairs
 There are     79451 function pairs (     84950 Cartesian)
 Smallest overlap matrix eigenvalue = 1.27E-06

 Q-Chem warning in module /fs/scratch/osu6415/qchem-kaunlao-vdw/stvman/mkSTV.C, line 281:

 Overlap eigenvalue is smaller than square root of threshold

 Guess MOs from SCF MO coefficient file
 Reading MOs from coefficient file
 Reading MOs from coefficient file
 A restricted hybrid HF-DFT SCF calculation will be
 performed using Pulay DIIS extrapolation
 Exchange:     0.2000 Hartree-Fock + 0.0800 Slater + 0.7200 B88
 Correlation:  0.1900 VWN1RPA + 0.8100 LYP
 Using SG-1 standard quadrature grid
 Dispersion:   Grimme D3
 SCF converges when DIIS error is below 1.0E-08
 Geometry optimization detected.  Setting ReadMinima to 0
 Setting SaveMinima to 0
 using 20 threads for integral computing
 -------------------------------------------------------
 OpenMP Integral computing Module                
 Release: version 1.0, May 2013, Q-Chem Inc. Pittsburgh 
 -------------------------------------------------------
 -------------------------------------------------------
 OpenMP BLAS3 based DFT computing Module                
 Release: version 1.0, May 2013, Q-Chem Inc. Pittsburgh 
 -------------------------------------------------------
 ---------------------------------------
  Cycle       Energy         DIIS Error
 ---------------------------------------
    1    -728.7104799793      3.27E-04
    2    -728.7117111481      2.46E-05
    3    -728.7117094012      3.41E-05
    4    -728.7117308398      9.96E-06
    5    -728.7117324370      3.47E-06
    6    -728.7117325765      2.10E-06
    7    -728.7117326516      6.12E-07
    8    -728.7117326587      1.26E-07
    9    -728.7117326592      5.32E-08
   10    -728.7117326593      1.86E-08
   11    -728.7117326561      9.00E-09 Convergence criterion met
 ---------------------------------------
 SCF time:  CPU 610.49 s  wall 34.85 s
 SCF   energy in the final basis set = -728.71173266
 Total energy in the final basis set = -728.71173266
 
 --------------------------------------------------------------
 
                    Orbital Energies (a.u.)
 --------------------------------------------------------------
 
 Alpha MOs
 -- Occupied --
-19.174 -19.172 -19.116 -19.114 -10.306 -10.305 -10.231 -10.230
-10.205 -10.204 -10.197 -10.191 -10.180 -10.170 -10.169  -1.117
 -1.112  -1.028  -1.026  -0.901  -0.791  -0.763  -0.736  -0.725
 -0.706  -0.640  -0.590  -0.576  -0.565  -0.540  -0.534  -0.525
 -0.500  -0.495  -0.483  -0.476  -0.464  -0.459  -0.442  -0.427
 -0.413  -0.404  -0.398  -0.388  -0.381  -0.367  -0.365  -0.360
 -0.351  -0.346  -0.325  -0.319  -0.311  -0.285  -0.282  -0.250
 -- Virtual --
 -0.017  -0.012  -0.005  -0.004   0.002   0.009   0.014   0.019
  0.020   0.027   0.031   0.038   0.042   0.046   0.051   0.054
  0.056   0.065   0.079   0.080   0.088   0.094   0.096   0.100
  0.104   0.106   0.111   0.113   0.114   0.118   0.119   0.121
  0.129   0.131   0.134   0.139   0.141   0.143   0.145   0.148
  0.151   0.152   0.157   0.161   0.162   0.164   0.165   0.169
  0.175   0.178   0.179   0.188   0.193   0.195   0.202   0.206
  0.208   0.211   0.218   0.222   0.228   0.229   0.234   0.241
  0.250   0.252   0.256   0.259   0.263   0.271   0.280   0.283
  0.290   0.291   0.296   0.305   0.306   0.313   0.319   0.325
  0.326   0.329   0.332   0.335   0.338   0.343   0.350   0.354
  0.357   0.361   0.365   0.372   0.376   0.382   0.383   0.398
  0.406   0.411   0.424   0.425   0.433   0.446   0.457   0.469
  0.482   0.493   0.498   0.508   0.512   0.525   0.534   0.537
  0.545   0.564   0.572   0.586   0.597   0.607   0.621   0.624
  0.629   0.637   0.644   0.650   0.657   0.665   0.670   0.676
  0.682   0.691   0.699   0.704   0.708   0.715   0.723   0.726
  0.728   0.734   0.741   0.751   0.762   0.765   0.768   0.775
  0.784   0.795   0.817   0.826   0.833   0.857   0.861   0.873
  0.890   0.898   0.933   0.962   0.977   0.996   1.021   1.036
  1.043   1.048   1.074   1.090   1.097   1.107   1.130   1.137
  1.153   1.185   1.190   1.194   1.210   1.222   1.233   1.239
  1.258   1.284   1.287   1.297   1.305   1.307   1.347   1.362
  1.369   1.393   1.404   1.409   1.426   1.441   1.458   1.469
  1.483   1.491   1.527   1.534   1.551   1.556   1.562   1.570
  1.580   1.585   1.602   1.607   1.615   1.633   1.643   1.652
  1.665   1.684   1.699   1.701   1.708   1.717   1.722   1.729
  1.737   1.756   1.766   1.778   1.782   1.797   1.809   1.825
  1.837   1.865   1.872   1.874   1.881   1.889   1.903   1.922
  1.925   1.941   1.958   1.979   1.991   2.009   2.012   2.022
  2.036   2.042   2.083   2.103   2.109   2.122   2.136   2.175
  2.179   2.188   2.202   2.212   2.225   2.229   2.248   2.279
  2.328   2.340   2.361   2.377   2.400   2.437   2.456   2.473
  2.488   2.498   2.512   2.525   2.536   2.543   2.567   2.578
  2.595   2.609   2.625   2.646   2.656   2.675   2.686   2.723
  2.736   2.748   2.763   2.772   2.798   2.812   2.829   2.847
  2.852   2.869   2.884   2.897   2.901   2.924   2.946   2.971
  2.991   3.003   3.012   3.034   3.040   3.050   3.060   3.074
  3.093   3.104   3.113   3.132   3.158   3.185   3.226   3.234
  3.235   3.257   3.320   3.333   3.349   3.381   3.396   3.413
  3.466   3.591   3.598   3.613   3.699   3.727   3.777   3.782
  3.786   3.836   3.853   3.949   4.034   4.052   4.074   4.087
  4.115   4.137   4.159   4.169   4.200   4.234   4.252   4.349
  4.435   5.034   5.109   5.136   5.174   5.247   5.266   5.407
  5.440   5.635   5.644   5.878   5.894  23.799  23.834  23.863
 23.869  23.893  23.922  23.936  23.941  24.003  24.040  24.312
 49.906  49.926  50.034  50.038
 --------------------------------------------------------------
 
          Ground-State Mulliken Net Atomic Charges

     Atom                 Charge (a.u.)
  ----------------------------------------
      1 C                     0.345584
      2 C                    -0.031230
      3 C                    -0.774511
      4 C                    -0.472307
      5 O                    -0.016429
      6 O                    -0.189577
      7 O                    -0.018043
      8 O                    -0.207559
      9 C                    -0.250977
     10 C                    -0.207986
     11 C                     0.302836
     12 C                    -0.364767
     13 C                    -0.466882
     14 C                     0.370946
     15 C                    -0.734546
     16 H                     0.181766
     17 H                     0.179663
     18 H                     0.136343
     19 H                     0.165008
     20 H                     0.195788
     21 H                     0.159407
     22 H                     0.171766
     23 H                     0.272282
     24 H                     0.261380
     25 H                     0.174654
     26 H                     0.128616
     27 H                     0.173087
     28 H                     0.253301
     29 H                     0.262390
  ----------------------------------------
  Sum of atomic charges =    -0.000000

 -----------------------------------------------------------------
                    Cartesian Multipole Moments
 -----------------------------------------------------------------
    Charge (ESU x 10^10)
                -0.0000
    Dipole Moment (Debye)
         X      -0.4616      Y       0.4761      Z      -0.1206
       Tot       0.6740
    Quadrupole Moments (Debye-Ang)
        XX     -78.5193     XY       0.1186     YY     -94.4932
        XZ       4.0530     YZ      11.0660     ZZ     -90.3878
    Octopole Moments (Debye-Ang^2)
       XXX     -63.3562    XXY       1.0310    XYY      -4.1887
       YYY       7.7500    XXZ       3.4153    XYZ     -10.4623
       YYZ     -12.8440    XZZ      -4.6467    YZZ      -1.6011
       ZZZ      -4.3464
    Hexadecapole Moments (Debye-Ang^3)
      XXXX   -1723.6081   XXXY     -42.8804   XXYY    -470.7512
      XYYY     -20.7587   YYYY   -1256.7121   XXXZ       9.2125
      XXYZ      13.7283   XYYZ       5.7545   YYYZ      83.0215
      XXZZ    -399.1995   XYZZ       2.2386   YYZZ    -311.7789
      XZZZ       4.6944   YZZZ      20.4367   ZZZZ    -533.9420
 -----------------------------------------------------------------
 Calculating analytic gradient of the SCF energy
 Gradient of SCF Energy
            1           2           3           4           5           6
    1   0.0001325  -0.0007463  -0.0000265   0.0016512  -0.0001824   0.0001613
    2  -0.0007647   0.0007329   0.0012504  -0.0009591  -0.0002975  -0.0004343
    3  -0.0007645   0.0007368   0.0010891  -0.0011533  -0.0001628  -0.0003414
            7           8           9          10          11          12
    1  -0.0005242  -0.0003249   0.0000360   0.0000711  -0.0000850  -0.0000655
    2   0.0002017   0.0002586   0.0000034  -0.0000056   0.0001058   0.0000899
    3   0.0002107   0.0002897   0.0000382   0.0000038   0.0001042   0.0001413
           13          14          15          16          17          18
    1  -0.0000703   0.0002566  -0.0001082   0.0000218  -0.0000400  -0.0000158
    2  -0.0000693  -0.0003882  -0.0000307  -0.0000045  -0.0000284  -0.0000076
    3   0.0000925  -0.0001305   0.0000215   0.0000144   0.0000182  -0.0000343
           19          20          21          22          23          24
    1  -0.0000123  -0.0000070  -0.0000261   0.0000025  -0.0000169  -0.0000389
    2  -0.0000229   0.0000272  -0.0000140  -0.0000083   0.0000257  -0.0000294
    3  -0.0000045  -0.0000283  -0.0000035   0.0000047   0.0000112  -0.0000382
           25          26          27          28          29
    1   0.0000130   0.0000095  -0.0000255  -0.0000107  -0.0000292
    2  -0.0000424   0.0000143   0.0000345   0.0002764   0.0000864
    3   0.0000061  -0.0000217  -0.0000509  -0.0000991   0.0000504
 Max gradient component =       1.651E-03
 RMS gradient           =       3.729E-04
 Gradient time:  CPU 257.99 s  wall 20.41 s
 Geometry Optimization Parameters
   NAtoms,    NIC,     NZ,  NCons,   NDum,   NFix, NCnnct, MaxDiis
       29     227       0       0       0       0       0       0

 Cartesian Hessian Update
 Hessian Updated using BFGS Update


** GEOMETRY OPTIMIZATION IN DELOCALIZED INTERNAL COORDINATES **
   Searching for a Minimum

   Optimization Cycle:   2

                       Coordinates (Angstroms)
     ATOM                X               Y               Z
      1  C         0.5085451985    1.0124751669    0.7249731342
      2  C         0.7278405966   -0.5208761895    0.9998427733
      3  C        -0.7788754781    1.4247123400    0.0472129630
      4  C        -0.3010616554   -1.5279644044    0.5404212624
      5  O        -1.8423181699    1.0743008688    0.8055110107
      6  O        -0.8719484537    2.0235567192   -0.9949666562
      7  O        -0.8399197091   -1.2303415689   -0.6579112869
      8  O        -0.5857930267   -2.5221535591    1.1662432814
      9  C        -1.8160262933   -2.1551595138   -1.1669738230
     10  C        -3.1371225293    1.3548365796    0.2474647846
     11  C         1.8077436089    1.4305915035   -0.0424678599
     12  C         1.7885996902    0.7289350942   -1.3894053292
     13  C         1.9914938468   -0.5736370327   -1.1682420493
     14  C         2.1476103071   -0.7682282732    0.3297301021
     15  C         2.8420691660    0.5591603224    0.7082078312
     16  H        -1.3737726606   -3.1434303381   -1.3018570704
     17  H        -3.2547934556    0.8420833738   -0.7089099509
     18  H         1.9285026105   -1.3758585048   -1.8912542089
     19  H        -2.1324848761   -1.7431222483   -2.1228055359
     20  H        -2.6605206641   -2.2327006299   -0.4801617122
     21  H        -3.8546593518    0.9799535043    0.9741963979
     22  H        -3.2674171765    2.4275576648    0.0967968662
     23  H         2.6079379210   -1.6976272569    0.6610284108
     24  H         1.9684204388    2.5068124247   -0.0628043890
     25  H         3.8439083227    0.6387518253    0.2834153049
     26  H         2.8802636649    0.7441620547    1.7861330270
     27  H         1.5249012400    1.2050386830   -2.3225321380
     28  H         0.4911405065    1.5142764007    1.6976469177
     29  H         0.8228893716   -0.6913900963    2.0716636724
   Point Group: c1    Number of degrees of freedom:    81


   Energy is   -728.711732656

 Hessian Updated using BFGS Update

 75 Hessian modes will be used to form the next step
  Hessian Eigenvalues:
     0.002973    0.005245    0.007681    0.010657    0.010682    0.011279
     0.013126    0.016630    0.016914    0.019976    0.021948    0.022606
     0.024606    0.026273    0.033003    0.038578    0.041933    0.043437
     0.046114    0.046856    0.051734    0.053830    0.054844    0.056443
     0.058747    0.068310    0.075475    0.093577    0.100872    0.101294
     0.101496    0.105958    0.106057    0.115387    0.120691    0.151603
     0.156143    0.158441    0.159984    0.160077    0.179444    0.225341
     0.228928    0.240498    0.249771    0.249840    0.249977    0.253245
     0.254154    0.257098    0.274083    0.300970    0.311348    0.312351
     0.342820    0.343127    0.346395    0.346671    0.346893    0.346903
     0.346928    0.348782    0.349548    0.350071    0.350500    0.350516
     0.357784    0.359695    0.398964    0.399246    0.514011    0.545351
     0.556336    1.005163    1.020688

 Minimum Search - Taking Simple RFO Step
 Searching for Lamda that Minimizes Along All modes
 Value Taken    Lamda =  -0.00006281
 Step Taken.  Stepsize is  0.093221

                             Maximum     Tolerance    Cnvgd?
         Gradient           0.000721      0.000001      NO
         Displacement       0.033678      0.000001      NO
         Energy change     -0.000010      0.000000      NO


 New Cartesian Coordinates Obtained by Inverse Iteration

 Displacement from previous Coordinates is:  0.203852
 Adding empirical dispersion correction 
 ----------------------------------------------------------------
 Doing -D3(op) with
 s6 =   1.00000
 s8 =   0.78311
 a1 =   0.30000
 a2 =   4.25000
 n  =  10.00000
 -D3 energy without 3body term =     -0.0344462719 hartrees
 ----------------------------------------------------------------
             Standard Nuclear Orientation (Angstroms)
    I     Atom           X                Y                Z
 ----------------------------------------------------------------
    1      C       0.5061527514     1.0118479841     0.7290143551
    2      C       0.7269040051    -0.5224298287     0.9980093896
    3      C      -0.7791694984     1.4206807586     0.0446462063
    4      C      -0.3101605475    -1.5261934236     0.5490641670
    5      O      -1.8437731574     1.0866937812     0.8084927714
    6      O      -0.8695185195     2.0161951281    -0.9996435411
    7      O      -0.8293951687    -1.2488570344    -0.6626712079
    8      O      -0.6026822416    -2.5115899841     1.1850554857
    9      C      -1.8020599281    -2.1789646201    -1.1689048612
   10      C      -3.1373886490     1.3724991221     0.2501624978
   11      C       1.8069519786     1.4330605538    -0.0351020181
   12      C       1.7848517384     0.7426819718    -1.3878391008
   13      C       1.9823778263    -0.5623035443    -1.1769478961
   14      C       2.1420459963    -0.7691875105     0.3192431143
   15      C       2.8409418745     0.5532672870     0.7064243868
   16      H      -1.3620220547    -3.1712330733    -1.2796495018
   17      H      -3.2604633938     0.8522458691    -0.7014908101
   18      H       1.9167744599    -1.3588353948    -1.9059313645
   19      H      -2.1033890886    -1.7828797573    -2.1362530145
   20      H      -2.6561853896    -2.2412820874    -0.4924787217
   21      H      -3.8565551425     1.0099878355     0.9814725729
   22      H      -3.2592932682     2.4447965518     0.0896495550
   23      H       2.6010359642    -1.7025576019     0.6411840242
   24      H       1.9704781758     2.5090219657    -0.0464433027
   25      H       3.8419614895     0.6340380987     0.2799124822
   26      H       2.8816083798     0.7297364654     1.7856863336
   27      H       1.5226733998     1.2274554781    -2.3168474908
   28      H       0.4840928019     1.5102852578     1.7032531940
   29      H       0.8283581961    -0.6934653385     2.0691280254
 ----------------------------------------------------------------
 Nuclear Repulsion Energy =  1094.0281953263 hartrees
 There are       56 alpha and       56 beta electrons
 Applying Cartesian multipole field
    Component          Value
    ---------          -----
     (2,0,0)        1.00000E-11
     (0,2,0)        2.00000E-11
     (0,0,2)       -3.00000E-11
 Nucleus-field energy     =     0.0000000196 hartrees
 Requested basis set is 6-311++G(d,p)
 There are 160 shells and 428 basis functions
 A cutoff of  1.0D-11 yielded  10830 shell pairs
 There are     79366 function pairs (     84851 Cartesian)
 Smallest overlap matrix eigenvalue = 1.26E-06

 Q-Chem warning in module /fs/scratch/osu6415/qchem-kaunlao-vdw/stvman/mkSTV.C, line 281:

 Overlap eigenvalue is smaller than square root of threshold

 Guess MOs from SCF MO coefficient file
 Reading MOs from coefficient file
 Reading MOs from coefficient file
 A restricted hybrid HF-DFT SCF calculation will be
 performed using Pulay DIIS extrapolation
 Exchange:     0.2000 Hartree-Fock + 0.0800 Slater + 0.7200 B88
 Correlation:  0.1900 VWN1RPA + 0.8100 LYP
 Using SG-1 standard quadrature grid
 Dispersion:   Grimme D3
 SCF converges when DIIS error is below 1.0E-08
 Geometry optimization detected.  Setting ReadMinima to 0
 Setting SaveMinima to 0
 using 20 threads for integral computing
 -------------------------------------------------------
 OpenMP Integral computing Module                
 Release: version 1.0, May 2013, Q-Chem Inc. Pittsburgh 
 -------------------------------------------------------
 -------------------------------------------------------
 OpenMP BLAS3 based DFT computing Module                
 Release: version 1.0, May 2013, Q-Chem Inc. Pittsburgh 
 -------------------------------------------------------
 ---------------------------------------
  Cycle       Energy         DIIS Error
 ---------------------------------------
    1    -728.7131928607      2.98E-04
    2    -728.7116887484      3.88E-05
    3    -728.7116575565      5.76E-05
    4    -728.7117237312      1.34E-05
    5    -728.7117265473      4.81E-06
    6    -728.7117269080      1.82E-06
    7    -728.7117269556      8.10E-07
    8    -728.7117269684      1.63E-07
    9    -728.7117269687      6.06E-08
   10    -728.7117269679      1.90E-08
   11    -728.7117269675      9.90E-09 Convergence criterion met
 ---------------------------------------
 SCF time:  CPU 605.06 s  wall 34.44 s
 SCF   energy in the final basis set = -728.71172697
 Total energy in the final basis set = -728.71172697
 
 --------------------------------------------------------------
 
                    Orbital Energies (a.u.)
 --------------------------------------------------------------
 
 Alpha MOs
 -- Occupied --
-19.174 -19.173 -19.116 -19.114 -10.306 -10.305 -10.231 -10.230
-10.205 -10.204 -10.197 -10.191 -10.180 -10.170 -10.169  -1.117
 -1.112  -1.028  -1.026  -0.901  -0.791  -0.763  -0.735  -0.725
 -0.706  -0.640  -0.590  -0.575  -0.565  -0.540  -0.534  -0.525
 -0.500  -0.495  -0.483  -0.476  -0.464  -0.459  -0.443  -0.427
 -0.413  -0.404  -0.398  -0.388  -0.381  -0.367  -0.365  -0.360
 -0.351  -0.346  -0.325  -0.319  -0.312  -0.285  -0.282  -0.250
 -- Virtual --
 -0.017  -0.012  -0.005  -0.003   0.002   0.009   0.014   0.019
  0.020   0.027   0.031   0.038   0.042   0.045   0.051   0.054
  0.056   0.064   0.079   0.080   0.088   0.094   0.096   0.100
  0.104   0.106   0.111   0.113   0.114   0.118   0.119   0.121
  0.129   0.131   0.134   0.139   0.141   0.143   0.146   0.148
  0.151   0.152   0.156   0.161   0.163   0.164   0.165   0.169
  0.175   0.178   0.179   0.188   0.193   0.195   0.202   0.206
  0.208   0.211   0.219   0.222   0.228   0.229   0.234   0.242
  0.250   0.252   0.256   0.259   0.263   0.271   0.280   0.283
  0.289   0.291   0.296   0.305   0.306   0.313   0.320   0.325
  0.325   0.328   0.332   0.335   0.338   0.344   0.350   0.354
  0.357   0.361   0.364   0.372   0.377   0.382   0.383   0.399
  0.406   0.411   0.424   0.426   0.433   0.446   0.456   0.469
  0.482   0.492   0.497   0.508   0.511   0.524   0.533   0.536
  0.544   0.563   0.572   0.586   0.597   0.607   0.621   0.624
  0.628   0.637   0.644   0.651   0.657   0.665   0.670   0.676
  0.682   0.690   0.698   0.703   0.707   0.715   0.723   0.726
  0.727   0.734   0.742   0.751   0.761   0.764   0.768   0.776
  0.784   0.796   0.817   0.827   0.833   0.858   0.862   0.874
  0.889   0.898   0.934   0.960   0.976   0.996   1.025   1.036
  1.043   1.050   1.074   1.092   1.099   1.107   1.131   1.136
  1.153   1.185   1.190   1.194   1.210   1.220   1.233   1.240
  1.258   1.284   1.287   1.296   1.305   1.305   1.346   1.361
  1.369   1.393   1.403   1.409   1.426   1.442   1.458   1.468
  1.484   1.492   1.527   1.534   1.549   1.556   1.563   1.570
  1.581   1.584   1.602   1.606   1.616   1.632   1.644   1.653
  1.665   1.685   1.698   1.701   1.708   1.715   1.723   1.728
  1.737   1.754   1.766   1.776   1.783   1.797   1.809   1.826
  1.836   1.865   1.871   1.875   1.881   1.889   1.902   1.922
  1.924   1.941   1.960   1.979   1.992   2.008   2.012   2.022
  2.036   2.041   2.083   2.103   2.110   2.120   2.136   2.175
  2.178   2.189   2.202   2.212   2.224   2.230   2.248   2.278
  2.329   2.339   2.361   2.376   2.400   2.438   2.456   2.473
  2.488   2.499   2.513   2.523   2.535   2.543   2.568   2.578
  2.595   2.608   2.625   2.644   2.657   2.675   2.686   2.723
  2.737   2.748   2.762   2.772   2.798   2.811   2.830   2.846
  2.852   2.869   2.884   2.896   2.902   2.924   2.946   2.971
  2.992   3.003   3.011   3.034   3.040   3.050   3.060   3.075
  3.095   3.104   3.114   3.132   3.159   3.185   3.225   3.234
  3.235   3.255   3.322   3.333   3.347   3.383   3.395   3.412
  3.466   3.591   3.598   3.614   3.701   3.727   3.777   3.782
  3.786   3.836   3.852   3.951   4.035   4.054   4.073   4.086
  4.114   4.137   4.160   4.169   4.201   4.235   4.250   4.349
  4.435   5.039   5.107   5.136   5.169   5.246   5.267   5.406
  5.439   5.635   5.643   5.878   5.894  23.799  23.834  23.863
 23.870  23.894  23.922  23.936  23.941  24.002  24.040  24.313
 49.906  49.926  50.035  50.037
 --------------------------------------------------------------
 
          Ground-State Mulliken Net Atomic Charges

     Atom                 Charge (a.u.)
  ----------------------------------------
      1 C                     0.361245
      2 C                    -0.036018
      3 C                    -0.782917
      4 C                    -0.477986
      5 O                    -0.017045
      6 O                    -0.188303
      7 O                    -0.015543
      8 O                    -0.206360
      9 C                    -0.250000
     10 C                    -0.207597
     11 C                     0.290716
     12 C                    -0.360522
     13 C                    -0.470931
     14 C                     0.379577
     15 C                    -0.732938
     16 H                     0.182388
     17 H                     0.178929
     18 H                     0.136006
     19 H                     0.165106
     20 H                     0.194806
     21 H                     0.159582
     22 H                     0.171644
     23 H                     0.272140
     24 H                     0.260752
     25 H                     0.174809
     26 H                     0.128396
     27 H                     0.173365
     28 H                     0.254422
     29 H                     0.262276
  ----------------------------------------
  Sum of atomic charges =    -0.000000

 -----------------------------------------------------------------
                    Cartesian Multipole Moments
 -----------------------------------------------------------------
    Charge (ESU x 10^10)
                -0.0000
    Dipole Moment (Debye)
         X      -0.4511      Y       0.4681      Z      -0.1414
       Tot       0.6653
    Quadrupole Moments (Debye-Ang)
        XX     -78.5730     XY       0.0056     YY     -94.2041
        XZ       4.1025     YZ      11.1159     ZZ     -90.5265
    Octopole Moments (Debye-Ang^2)
       XXX     -62.9213    XXY       1.3099    XYY      -4.2224
       YYY       7.1031    XXZ       3.3577    XYZ     -10.6388
       YYZ     -13.1623    XZZ      -4.4117    YZZ      -1.4562
       ZZZ      -4.7114
    Hexadecapole Moments (Debye-Ang^3)
      XXXX   -1718.3931   XXXY     -44.1726   XXYY    -470.7029
      XYYY     -21.4024   YYYY   -1258.5656   XXXZ      10.3973
      XXYZ      14.0218   XYYZ       6.9906   YYYZ      82.5219
      XXZZ    -399.1547   XYZZ       1.9078   YYZZ    -313.7223
      XZZZ       6.4313   YZZZ      20.8719   ZZZZ    -537.1632
 -----------------------------------------------------------------
 Calculating analytic gradient of the SCF energy
 Gradient of SCF Energy
            1           2           3           4           5           6
    1  -0.0002352   0.0000697  -0.0003228  -0.0006297  -0.0000219   0.0002258
    2  -0.0002398   0.0004750  -0.0008134   0.0003985   0.0006525   0.0001781
    3  -0.0001518  -0.0000078  -0.0000844   0.0001015   0.0002149   0.0000264
            7           8           9          10          11          12
    1   0.0002921   0.0004262   0.0001034   0.0000971  -0.0001828  -0.0000210
    2  -0.0005991  -0.0001931  -0.0000060   0.0000021   0.0001168   0.0000446
    3  -0.0001733  -0.0002052  -0.0000411   0.0001140   0.0001298   0.0001732
           13          14          15          16          17          18
    1  -0.0002883   0.0005220   0.0000818  -0.0000396   0.0000150   0.0000157
    2   0.0000616  -0.0002153  -0.0001187  -0.0000300  -0.0000114  -0.0000458
    3   0.0000188  -0.0000069  -0.0000349   0.0000323  -0.0000009  -0.0000320
           19          20          21          22          23          24
    1   0.0000345   0.0000151  -0.0000059  -0.0000205  -0.0000436  -0.0000063
    2  -0.0000228   0.0000346   0.0000084  -0.0000107   0.0000109  -0.0000367
    3  -0.0000026   0.0000409   0.0000044  -0.0000516  -0.0000409  -0.0000155
           25          26          27          28          29
    1   0.0000378  -0.0000461  -0.0000096   0.0001548  -0.0002177
    2  -0.0000436   0.0000266   0.0000726   0.0002194   0.0000845
    3  -0.0000126  -0.0000435  -0.0000366   0.0000818   0.0000035
 Max gradient component =       8.134E-04
 RMS gradient           =       2.069E-04
 Gradient time:  CPU 260.24 s  wall 19.11 s
 Geometry Optimization Parameters
   NAtoms,    NIC,     NZ,  NCons,   NDum,   NFix, NCnnct, MaxDiis
       29     227       0       0       0       0       0       0

 Cartesian Hessian Update
 Hessian Updated using BFGS Update


** GEOMETRY OPTIMIZATION IN DELOCALIZED INTERNAL COORDINATES **
   Searching for a Minimum

   Optimization Cycle:   3

                       Coordinates (Angstroms)
     ATOM                X               Y               Z
      1  C         0.5061527514    1.0118479841    0.7290143551
      2  C         0.7269040051   -0.5224298287    0.9980093896
      3  C        -0.7791694984    1.4206807586    0.0446462063
      4  C        -0.3101605475   -1.5261934236    0.5490641670
      5  O        -1.8437731574    1.0866937812    0.8084927714
      6  O        -0.8695185195    2.0161951281   -0.9996435411
      7  O        -0.8293951687   -1.2488570344   -0.6626712079
      8  O        -0.6026822416   -2.5115899841    1.1850554857
      9  C        -1.8020599281   -2.1789646201   -1.1689048612
     10  C        -3.1373886490    1.3724991221    0.2501624978
     11  C         1.8069519786    1.4330605538   -0.0351020181
     12  C         1.7848517384    0.7426819718   -1.3878391008
     13  C         1.9823778263   -0.5623035443   -1.1769478961
     14  C         2.1420459963   -0.7691875105    0.3192431143
     15  C         2.8409418745    0.5532672870    0.7064243868
     16  H        -1.3620220547   -3.1712330733   -1.2796495018
     17  H        -3.2604633938    0.8522458691   -0.7014908101
     18  H         1.9167744599   -1.3588353948   -1.9059313645
     19  H        -2.1033890886   -1.7828797573   -2.1362530145
     20  H        -2.6561853896   -2.2412820874   -0.4924787217
     21  H        -3.8565551425    1.0099878355    0.9814725729
     22  H        -3.2592932682    2.4447965518    0.0896495550
     23  H         2.6010359642   -1.7025576019    0.6411840242
     24  H         1.9704781758    2.5090219657   -0.0464433027
     25  H         3.8419614895    0.6340380987    0.2799124822
     26  H         2.8816083798    0.7297364654    1.7856863336
     27  H         1.5226733998    1.2274554781   -2.3168474908
     28  H         0.4840928019    1.5102852578    1.7032531940
     29  H         0.8283581961   -0.6934653385    2.0691280254
   Point Group: c1    Number of degrees of freedom:    81


   Energy is   -728.711726967

 Hessian Updated using BFGS Update

 77 Hessian modes will be used to form the next step
  Hessian Eigenvalues:
     0.002229    0.006546    0.008923    0.010674    0.010754    0.011310
     0.013121    0.016492    0.016925    0.019931    0.021946    0.022617
     0.024459    0.030647    0.038006    0.039911    0.043028    0.046077
     0.046823    0.049400    0.053765    0.054001    0.055765    0.058212
     0.060626    0.068335    0.075289    0.093545    0.098151    0.101287
     0.101379    0.105961    0.106058    0.115222    0.121286    0.148286
     0.156104    0.158544    0.159969    0.160003    0.160823    0.174852
     0.225711    0.228748    0.240542    0.248965    0.249780    0.249867
     0.250011    0.251348    0.254028    0.256931    0.274182    0.300910
     0.311139    0.313078    0.342981    0.343131    0.346395    0.346675
     0.346901    0.346903    0.346929    0.348809    0.349543    0.350042
     0.350501    0.350516    0.357773    0.359626    0.398968    0.399295
     0.513620    0.545473    0.556540    1.005203    1.020622

 Minimum Search - Taking Simple RFO Step
 Searching for Lamda that Minimizes Along All modes
 Value Taken    Lamda =  -0.00008468
 Step Taken.  Stepsize is  0.086761

                             Maximum     Tolerance    Cnvgd?
         Gradient           0.001583      0.000001      NO
         Displacement       0.035449      0.000001      NO
         Energy change      0.000006      0.000000      NO


 New Cartesian Coordinates Obtained by Inverse Iteration

 Displacement from previous Coordinates is:  0.366523
 Adding empirical dispersion correction 
 ----------------------------------------------------------------
 Doing -D3(op) with
 s6 =   1.00000
 s8 =   0.78311
 a1 =   0.30000
 a2 =   4.25000
 n  =  10.00000
 -D3 energy without 3body term =     -0.0346064003 hartrees
 ----------------------------------------------------------------
             Standard Nuclear Orientation (Angstroms)
    I     Atom           X                Y                Z
 ----------------------------------------------------------------
    1      C       0.5139423589     1.0141180247     0.7347062196
    2      C       0.7344806671    -0.5210726555     0.9978838997
    3      C      -0.7681585859     1.4176137256     0.0405476418
    4      C      -0.3164154001    -1.5162786441     0.5625496390
    5      O      -1.8369432964     1.0565304994     0.7858873320
    6      O      -0.8553440669     2.0235584143    -0.9979481168
    7      O      -0.8462683359    -1.2345216110    -0.6435550830
    8      O      -0.6130627271    -2.4969593882     1.2038926319
    9      C      -1.8328336739    -2.1560935687    -1.1386741689
   10      C      -3.1277716822     1.3295834951     0.2145217773
   11      C       1.8175820099     1.4388330192    -0.0239301567
   12      C       1.7920483000     0.7630157465    -1.3841565196
   13      C       1.9807793396    -0.5452302886    -1.1864304273
   14      C       2.1430426200    -0.7682421935     0.3073049335
   15      C       2.8491318367     0.5470323890     0.7064212536
   16      H      -1.4014828337    -3.1511738438    -1.2581010320
   17      H      -3.2291830968     0.8227309888    -0.7468819005
   18      H       1.9101577831    -1.3340244304    -1.9231935871
   19      H      -2.1446047219    -1.7551332508    -2.1006642463
   20      H      -2.6778785489    -2.2144668535    -0.4505665919
   21      H      -3.8502923599     0.9434837967     0.9302400194
   22      H      -3.2655360668     2.4021350937     0.0692393752
   23      H       2.5995103071    -1.7067403593     0.6179017756
   24      H       1.9854196475     2.5142654864    -0.0236120381
   25      H       3.8494221517     0.6283413789     0.2783792438
   26      H       2.8928922343     0.7121676844     1.7873955506
   27      H       1.5321865620     1.2586919386    -2.3079152187
   28      H       0.4835804768     1.5068605385     1.7113935905
   29      H       0.8467520918    -0.6943102226     2.0675599334
 ----------------------------------------------------------------
 Nuclear Repulsion Energy =  1095.4090026032 hartrees
 There are       56 alpha and       56 beta electrons
 Applying Cartesian multipole field
    Component          Value
    ---------          -----
     (2,0,0)        1.00000E-11
     (0,2,0)        2.00000E-11
     (0,0,2)       -3.00000E-11
 Nucleus-field energy     =     0.0000000195 hartrees
 Requested basis set is 6-311++G(d,p)
 There are 160 shells and 428 basis functions
 A cutoff of  1.0D-11 yielded  10838 shell pairs
 There are     79485 function pairs (     84993 Cartesian)
 Smallest overlap matrix eigenvalue = 1.26E-06

 Q-Chem warning in module /fs/scratch/osu6415/qchem-kaunlao-vdw/stvman/mkSTV.C, line 281:

 Overlap eigenvalue is smaller than square root of threshold

 Guess MOs from SCF MO coefficient file
 Reading MOs from coefficient file
 Reading MOs from coefficient file
 A restricted hybrid HF-DFT SCF calculation will be
 performed using Pulay DIIS extrapolation
 Exchange:     0.2000 Hartree-Fock + 0.0800 Slater + 0.7200 B88
 Correlation:  0.1900 VWN1RPA + 0.8100 LYP
 Using SG-1 standard quadrature grid
 Dispersion:   Grimme D3
 SCF converges when DIIS error is below 1.0E-08
 Geometry optimization detected.  Setting ReadMinima to 0
 Setting SaveMinima to 0
 using 20 threads for integral computing
 -------------------------------------------------------
 OpenMP Integral computing Module                
 Release: version 1.0, May 2013, Q-Chem Inc. Pittsburgh 
 -------------------------------------------------------
 -------------------------------------------------------
 OpenMP BLAS3 based DFT computing Module                
 Release: version 1.0, May 2013, Q-Chem Inc. Pittsburgh 
 -------------------------------------------------------
 ---------------------------------------
  Cycle       Energy         DIIS Error
 ---------------------------------------
    1    -728.7169384851      3.63E-04
    2    -728.7116198075      4.94E-05
    3    -728.7115692680      7.49E-05
    4    -728.7116801103      1.86E-05
    5    -728.7116852193      6.33E-06
    6    -728.7116858469      2.15E-06
    7    -728.7116859141      1.06E-06
    8    -728.7116859375      2.27E-07
    9    -728.7116859382      9.51E-08
   10    -728.7116859376      3.52E-08
   11    -728.7116859377      1.64E-08
   12    -728.7116859360      5.42E-09 Convergence criterion met
 ---------------------------------------
 SCF time:  CPU 651.19 s  wall 38.49 s
 SCF   energy in the final basis set = -728.71168594
 Total energy in the final basis set = -728.71168594
 
 --------------------------------------------------------------
 
                    Orbital Energies (a.u.)
 --------------------------------------------------------------
 
 Alpha MOs
 -- Occupied --
-19.174 -19.172 -19.116 -19.114 -10.306 -10.305 -10.231 -10.230
-10.205 -10.204 -10.197 -10.191 -10.180 -10.170 -10.169  -1.118
 -1.111  -1.028  -1.026  -0.901  -0.792  -0.763  -0.736  -0.725
 -0.706  -0.640  -0.590  -0.576  -0.565  -0.540  -0.534  -0.525
 -0.500  -0.495  -0.483  -0.475  -0.465  -0.459  -0.443  -0.427
 -0.413  -0.404  -0.397  -0.388  -0.381  -0.368  -0.365  -0.360
 -0.352  -0.346  -0.325  -0.320  -0.311  -0.285  -0.282  -0.250
 -- Virtual --
 -0.017  -0.012  -0.006  -0.003   0.002   0.009   0.014   0.019
  0.020   0.026   0.031   0.038   0.042   0.046   0.051   0.055
  0.057   0.064   0.079   0.081   0.088   0.094   0.096   0.100
  0.104   0.106   0.111   0.113   0.114   0.118   0.119   0.121
  0.129   0.131   0.134   0.139   0.141   0.143   0.146   0.148
  0.151   0.152   0.156   0.160   0.162   0.164   0.165   0.169
  0.175   0.178   0.179   0.188   0.194   0.196   0.201   0.206
  0.208   0.212   0.219   0.222   0.228   0.230   0.234   0.242
  0.249   0.253   0.256   0.260   0.263   0.271   0.281   0.283
  0.289   0.291   0.296   0.304   0.306   0.313   0.320   0.325
  0.326   0.329   0.332   0.336   0.339   0.343   0.349   0.354
  0.357   0.361   0.365   0.372   0.376   0.382   0.383   0.397
  0.406   0.411   0.423   0.426   0.432   0.446   0.457   0.470
  0.483   0.494   0.500   0.508   0.511   0.525   0.534   0.537
  0.544   0.565   0.572   0.586   0.596   0.607   0.622   0.625
  0.630   0.636   0.644   0.649   0.657   0.665   0.671   0.676
  0.683   0.691   0.699   0.703   0.708   0.715   0.723   0.727
  0.727   0.735   0.742   0.751   0.760   0.764   0.767   0.776
  0.784   0.796   0.815   0.827   0.833   0.857   0.862   0.876
  0.890   0.897   0.933   0.960   0.976   0.997   1.024   1.039
  1.043   1.052   1.074   1.091   1.098   1.108   1.129   1.137
  1.155   1.184   1.189   1.195   1.211   1.224   1.233   1.239
  1.258   1.285   1.289   1.297   1.305   1.309   1.349   1.361
  1.370   1.394   1.403   1.412   1.426   1.441   1.461   1.470
  1.486   1.492   1.527   1.532   1.553   1.555   1.563   1.570
  1.582   1.583   1.603   1.607   1.616   1.632   1.643   1.654
  1.665   1.685   1.700   1.702   1.709   1.716   1.723   1.728
  1.737   1.755   1.764   1.776   1.783   1.799   1.811   1.827
  1.836   1.863   1.871   1.875   1.882   1.889   1.903   1.920
  1.925   1.941   1.959   1.979   1.993   2.008   2.011   2.023
  2.038   2.042   2.083   2.103   2.111   2.123   2.136   2.173
  2.179   2.189   2.203   2.212   2.223   2.231   2.251   2.278
  2.329   2.338   2.361   2.375   2.400   2.439   2.457   2.473
  2.489   2.498   2.512   2.526   2.536   2.544   2.568   2.580
  2.596   2.609   2.625   2.646   2.657   2.675   2.685   2.723
  2.738   2.748   2.762   2.771   2.797   2.811   2.831   2.847
  2.853   2.869   2.883   2.896   2.903   2.924   2.943   2.972
  2.992   3.005   3.012   3.034   3.042   3.051   3.061   3.076
  3.097   3.103   3.114   3.135   3.159   3.185   3.226   3.234
  3.237   3.254   3.322   3.335   3.346   3.383   3.395   3.412
  3.466   3.592   3.598   3.614   3.701   3.730   3.778   3.782
  3.785   3.836   3.854   3.950   4.033   4.054   4.075   4.087
  4.113   4.138   4.160   4.168   4.203   4.235   4.248   4.348
  4.436   5.029   5.110   5.137   5.182   5.246   5.268   5.407
  5.439   5.635   5.643   5.877   5.895  23.799  23.834  23.864
 23.870  23.894  23.922  23.936  23.941  24.002  24.039  24.313
 49.905  49.927  50.035  50.038
 --------------------------------------------------------------
 
          Ground-State Mulliken Net Atomic Charges

     Atom                 Charge (a.u.)
  ----------------------------------------
      1 C                     0.362235
      2 C                    -0.046086
      3 C                    -0.765407
      4 C                    -0.485184
      5 O                    -0.013787
      6 O                    -0.190391
      7 O                    -0.018717
      8 O                    -0.205901
      9 C                    -0.250868
     10 C                    -0.209650
     11 C                     0.275982
     12 C                    -0.348238
     13 C                    -0.485192
     14 C                     0.394733
     15 C                    -0.729384
     16 H                     0.181857
     17 H                     0.181081
     18 H                     0.135328
     19 H                     0.164592
     20 H                     0.196318
     21 H                     0.159078
     22 H                     0.171969
     23 H                     0.272371
     24 H                     0.260857
     25 H                     0.174534
     26 H                     0.128595
     27 H                     0.173618
     28 H                     0.253651
     29 H                     0.262005
  ----------------------------------------
  Sum of atomic charges =    -0.000000

 -----------------------------------------------------------------
                    Cartesian Multipole Moments
 -----------------------------------------------------------------
    Charge (ESU x 10^10)
                -0.0000
    Dipole Moment (Debye)
         X      -0.4487      Y       0.4387      Z      -0.1589
       Tot       0.6474
    Quadrupole Moments (Debye-Ang)
        XX     -78.5240     XY       0.0961     YY     -94.3279
        XZ       4.2138     YZ      11.0761     ZZ     -90.5846
    Octopole Moments (Debye-Ang^2)
       XXX     -63.0291    XXY       0.6895    XYY      -3.9920
       YYY       6.0184    XXZ       2.8378    XYZ     -10.4436
       YYZ     -13.0065    XZZ      -4.3568    YZZ      -1.1642
       ZZZ      -4.9576
    Hexadecapole Moments (Debye-Ang^3)
      XXXX   -1725.6604   XXXY     -49.8812   XXYY    -470.2024
      XYYY     -28.3642   YYYY   -1244.2638   XXXZ       9.6471
      XXYZ      15.3095   XYYZ       6.3745   YYYZ      87.6537
      XXZZ    -399.9106   XYZZ      -1.1490   YYZZ    -311.2960
      XZZZ       4.4300   YZZZ      26.7545   ZZZZ    -534.2941
 -----------------------------------------------------------------
 Calculating analytic gradient of the SCF energy
 Gradient of SCF Energy
            1           2           3           4           5           6
    1  -0.0002852   0.0003371   0.0002449  -0.0009427   0.0003414  -0.0000518
    2  -0.0001935   0.0004740  -0.0004014   0.0004670  -0.0004508  -0.0000586
    3   0.0001611   0.0000213  -0.0003022   0.0004308  -0.0002373  -0.0001362
            7           8           9          10          11          12
    1  -0.0002033   0.0003516   0.0000237  -0.0001483  -0.0002263   0.0002984
    2   0.0004524  -0.0002551  -0.0000897   0.0000236   0.0000313  -0.0000053
    3   0.0004760  -0.0000909  -0.0001281   0.0000313  -0.0000623   0.0001039
           13          14          15          16          17          18
    1  -0.0001342   0.0005086   0.0001132  -0.0000231   0.0000370   0.0000094
    2   0.0002662   0.0000662  -0.0002078  -0.0000273   0.0000035   0.0000134
    3  -0.0001829  -0.0001980  -0.0000205   0.0000582  -0.0000575   0.0000148
           19          20          21          22          23          24
    1   0.0000376  -0.0000104   0.0000158  -0.0000089  -0.0000601   0.0000120
    2   0.0000007  -0.0000195  -0.0000078  -0.0000028   0.0000082   0.0000171
    3   0.0000391   0.0000322  -0.0000193  -0.0000409  -0.0000281   0.0000038
           25          26          27          28          29
    1   0.0000199  -0.0000581  -0.0000239   0.0001237  -0.0002978
    2  -0.0000044   0.0000344   0.0000396  -0.0001823   0.0000087
    3  -0.0000253  -0.0000193   0.0000277   0.0001994  -0.0000507
 Max gradient component =       9.427E-04
 RMS gradient           =       2.159E-04
 Gradient time:  CPU 258.87 s  wall 18.99 s
 Geometry Optimization Parameters
   NAtoms,    NIC,     NZ,  NCons,   NDum,   NFix, NCnnct, MaxDiis
       29     227       0       0       0       0       0       0

 Cartesian Hessian Update
 Hessian Updated using BFGS Update


** GEOMETRY OPTIMIZATION IN DELOCALIZED INTERNAL COORDINATES **
   Searching for a Minimum

   Optimization Cycle:   4

                       Coordinates (Angstroms)
     ATOM                X               Y               Z
      1  C         0.5139423589    1.0141180247    0.7347062196
      2  C         0.7344806671   -0.5210726555    0.9978838997
      3  C        -0.7681585859    1.4176137256    0.0405476418
      4  C        -0.3164154001   -1.5162786441    0.5625496390
      5  O        -1.8369432964    1.0565304994    0.7858873320
      6  O        -0.8553440669    2.0235584143   -0.9979481168
      7  O        -0.8462683359   -1.2345216110   -0.6435550830
      8  O        -0.6130627271   -2.4969593882    1.2038926319
      9  C        -1.8328336739   -2.1560935687   -1.1386741689
     10  C        -3.1277716822    1.3295834951    0.2145217773
     11  C         1.8175820099    1.4388330192   -0.0239301567
     12  C         1.7920483000    0.7630157465   -1.3841565196
     13  C         1.9807793396   -0.5452302886   -1.1864304273
     14  C         2.1430426200   -0.7682421935    0.3073049335
     15  C         2.8491318367    0.5470323890    0.7064212536
     16  H        -1.4014828337   -3.1511738438   -1.2581010320
     17  H        -3.2291830968    0.8227309888   -0.7468819005
     18  H         1.9101577831   -1.3340244304   -1.9231935871
     19  H        -2.1446047219   -1.7551332508   -2.1006642463
     20  H        -2.6778785489   -2.2144668535   -0.4505665919
     21  H        -3.8502923599    0.9434837967    0.9302400194
     22  H        -3.2655360668    2.4021350937    0.0692393752
     23  H         2.5995103071   -1.7067403593    0.6179017756
     24  H         1.9854196475    2.5142654864   -0.0236120381
     25  H         3.8494221517    0.6283413789    0.2783792438
     26  H         2.8928922343    0.7121676844    1.7873955506
     27  H         1.5321865620    1.2586919386   -2.3079152187
     28  H         0.4835804768    1.5068605385    1.7113935905
     29  H         0.8467520918   -0.6943102226    2.0675599334
   Point Group: c1    Number of degrees of freedom:    81


   Energy is   -728.711685936

 Hessian Updated using BFGS Update

 79 Hessian modes will be used to form the next step
  Hessian Eigenvalues:
     0.002965    0.006411    0.010083    0.010623    0.010730    0.012570
     0.013141    0.016742    0.017105    0.020131    0.021942    0.022639
     0.024829    0.032190    0.038867    0.040342    0.042629    0.046062
     0.046549    0.049288    0.053585    0.054089    0.055765    0.058665
     0.060553    0.068367    0.075577    0.093643    0.101181    0.101278
     0.102535    0.105957    0.106044    0.115224    0.121328    0.155684
     0.158048    0.159860    0.159968    0.159996    0.160102    0.161742
     0.179582    0.225431    0.238741    0.243270    0.248151    0.249789
     0.249924    0.250000    0.250195    0.251668    0.255341    0.267464
     0.276660    0.301249    0.311570    0.313495    0.342653    0.343113
     0.346408    0.346675    0.346887    0.346903    0.346928    0.348817
     0.349532    0.350044    0.350507    0.350518    0.357769    0.359609
     0.399012    0.399507    0.514616    0.545608    0.556548    1.005257
     1.020615

 Minimum Search - Taking Simple RFO Step
 Searching for Lamda that Minimizes Along All modes
 Value Taken    Lamda =  -0.00010424
 Step Taken.  Stepsize is  0.092231

                             Maximum     Tolerance    Cnvgd?
         Gradient           0.001917      0.000001      NO
         Displacement       0.029607      0.000001      NO
         Energy change      0.000041      0.000000      NO


 New Cartesian Coordinates Obtained by Inverse Iteration

 Displacement from previous Coordinates is:  0.269200
 Adding empirical dispersion correction 
 ----------------------------------------------------------------
 Doing -D3(op) with
 s6 =   1.00000
 s8 =   0.78311
 a1 =   0.30000
 a2 =   4.25000
 n  =  10.00000
 -D3 energy without 3body term =     -0.0345416284 hartrees
 ----------------------------------------------------------------
             Standard Nuclear Orientation (Angstroms)
    I     Atom           X                Y                Z
 ----------------------------------------------------------------
    1      C       0.5114141752     1.0151690604     0.7287634893
    2      C       0.7295217746    -0.5202083403     0.9978964033
    3      C      -0.7757909198     1.4242996823     0.0470850373
    4      C      -0.3138815764    -1.5177908740     0.5507304260
    5      O      -1.8390401742     1.0640966258     0.8010026624
    6      O      -0.8705860243     2.0350390861    -0.9879065676
    7      O      -0.8308037348    -1.2371185385    -0.6613614993
    8      O      -0.6230846286    -2.4939280428     1.1930827382
    9      C      -1.8145951776    -2.1571668747    -1.1646418220
   10      C      -3.1342803316     1.3429594528     0.2427015858
   11      C       1.8113103494     1.4328635149    -0.0395623558
   12      C       1.7887115471     0.7368688660    -1.3902198157
   13      C       1.9889268502    -0.5669907079    -1.1750775114
   14      C       2.1446569388    -0.7685115561     0.3218668401
   15      C       2.8440583408     0.5553749395     0.7054906146
   16      H      -1.3835999244    -3.1528430727    -1.2802706490
   17      H      -3.2467248546     0.8394167367    -0.7191789900
   18      H       1.9249638218    -1.3660515373    -1.9013053977
   19      H      -2.1174631532    -1.7560900260    -2.1294658290
   20      H      -2.6657641565    -2.2140020681    -0.4840468941
   21      H      -3.8511349786     0.9567631855     0.9640927012
   22      H      -3.2701146523     2.4164160783     0.1025159719
   23      H       2.6037758046    -1.7005074413     0.6478673676
   24      H       1.9756000709     2.5087413734    -0.0547672956
   25      H       3.8451717570     0.6352022349     0.2791907541
   26      H       2.8844620035     0.7351403429     1.7842929537
   27      H       1.5267361505     1.2176739359    -2.3211970462
   28      H       0.4901801670     1.5114889358     1.7037444956
   29      H       0.8325275254    -0.6915900616     2.0688733626
 ----------------------------------------------------------------
 Nuclear Repulsion Energy =  1094.7550974346 hartrees
 There are       56 alpha and       56 beta electrons
 Applying Cartesian multipole field
    Component          Value
    ---------          -----
     (2,0,0)        1.00000E-11
     (0,2,0)        2.00000E-11
     (0,0,2)       -3.00000E-11
 Nucleus-field energy     =     0.0000000195 hartrees
 Requested basis set is 6-311++G(d,p)
 There are 160 shells and 428 basis functions
 A cutoff of  1.0D-11 yielded  10843 shell pairs
 There are     79519 function pairs (     85027 Cartesian)
 Smallest overlap matrix eigenvalue = 1.26E-06

 Q-Chem warning in module /fs/scratch/osu6415/qchem-kaunlao-vdw/stvman/mkSTV.C, line 281:

 Overlap eigenvalue is smaller than square root of threshold

 Guess MOs from SCF MO coefficient file
 Reading MOs from coefficient file
 Reading MOs from coefficient file
 A restricted hybrid HF-DFT SCF calculation will be
 performed using Pulay DIIS extrapolation
 Exchange:     0.2000 Hartree-Fock + 0.0800 Slater + 0.7200 B88
 Correlation:  0.1900 VWN1RPA + 0.8100 LYP
 Using SG-1 standard quadrature grid
 Dispersion:   Grimme D3
 SCF converges when DIIS error is below 1.0E-08
 Geometry optimization detected.  Setting ReadMinima to 0
 Setting SaveMinima to 0
 using 20 threads for integral computing
 -------------------------------------------------------
 OpenMP Integral computing Module                
 Release: version 1.0, May 2013, Q-Chem Inc. Pittsburgh 
 -------------------------------------------------------
 -------------------------------------------------------
 OpenMP BLAS3 based DFT computing Module                
 Release: version 1.0, May 2013, Q-Chem Inc. Pittsburgh 
 -------------------------------------------------------
 ---------------------------------------
  Cycle       Energy         DIIS Error
 ---------------------------------------
    1    -728.7020238791      3.37E-04
    2    -728.7116357810      7.15E-05
    3    -728.7114772612      1.18E-04
    4    -728.7117482467      2.34E-05
    5    -728.7117567722      6.37E-06
    6    -728.7117573663      2.47E-06
    7    -728.7117574710      9.24E-07
[...]
     0.35191169      0.02535060     -0.16917122
     0.01872205      0.12693187      0.79569050
    -0.00138019     -0.00121165      0.00130204
     0.00100849     -0.19127196     -0.38597915
     0.00034439     -0.00188957      0.01320260
vibration 69
     0.00047685     -0.03099320     -0.06182387
     0.00138285     -0.00161177      0.01140876
    -0.00005429     -0.00031243     -0.00140402
     0.00017984     -0.00007500      0.00079892
     0.00074127      0.00001160      0.00021827
    -0.00013339     -0.00024259      0.00022581
    -0.00036285     -0.00019013     -0.00032821
    -0.00001648      0.00007176     -0.00014924
    -0.00476122     -0.00526453     -0.00052873
     0.00844664     -0.00289793      0.00757966
     0.00105844      0.00576952     -0.00034817
    -0.00002175      0.00025710      0.00028402
     0.00019677      0.00007868     -0.00008532
     0.00113206     -0.00149827      0.00078536
    -0.01632956     -0.00611661     -0.02388459
    -0.04060570      0.09048627      0.01030494
    -0.01460943     -0.08299053     -0.15287401
    -0.00053856      0.00115715      0.00130995
     0.01938424     -0.02663820      0.06364320
     0.08144113      0.00209901     -0.06638736
    -0.07649460     -0.04195985      0.07797813
    -0.01770139      0.16131190     -0.01827264
    -0.01368071      0.02382718     -0.00909920
    -0.00973005     -0.07158405     -0.00086987
     0.17893059      0.01315160     -0.08410851
     0.00892881      0.05700899      0.36811243
    -0.00005604     -0.00083480      0.00059340
    -0.00477825      0.36922852      0.74658750
    -0.01537012      0.01927700     -0.13603933
vibration 70
    -0.00000871      0.00762201      0.01507244
    -0.00047838      0.00051615     -0.00347201
    -0.00071949     -0.00018041      0.00109285
     0.00070598     -0.00099358      0.00247376
     0.00086241     -0.00007313      0.00001687
     0.00002693      0.00019893     -0.00034654
    -0.00181199     -0.00111632     -0.00163923
     0.00024207      0.00072214     -0.00050351
    -0.02679369     -0.03149154     -0.00360970
     0.00866702     -0.00277725      0.00742626
    -0.00021466     -0.00142789      0.00010887
    -0.00002131     -0.00003285     -0.00006647
    -0.00005379     -0.00012482     -0.00005287
    -0.00018956      0.00034040     -0.00019658
     0.00315829      0.00118633      0.00456167
    -0.23883817      0.53494036      0.06057530
    -0.01543246     -0.08347912     -0.15344158
     0.00024851      0.00053957      0.00040219
     0.11166245     -0.15420051      0.36727825
     0.46413879      0.01235138     -0.37842481
    -0.07688279     -0.04225207      0.07865317
    -0.01763470      0.16032742     -0.01772893
     0.00306416     -0.00546122      0.00202810
     0.00224456      0.01732594      0.00017351
    -0.03479858     -0.00271069      0.01633372
    -0.00169356     -0.01082093     -0.07064087
     0.00010342      0.00016601     -0.00014397
     0.00093608     -0.09037615     -0.18261718
     0.00357666     -0.00628038      0.03890896
vibration 71
     0.00004246      0.00720203      0.01419889
    -0.00027014      0.00034265     -0.00228667
    -0.00185988     -0.00105358      0.00241448
    -0.00019708      0.00043438     -0.00087557
     0.00263007     -0.00006438      0.00021752
    -0.00006769      0.00057660     -0.00093596
     0.00057521      0.00029686      0.00048926
    -0.00009551     -0.00027526      0.00019179
     0.00867954      0.01088042      0.00148684
     0.03038477     -0.01100954      0.02564173
    -0.00011396     -0.00103839      0.00012924
     0.00003386     -0.00003915     -0.00005817
    -0.00001602     -0.00002974      0.00001748
    -0.00008545      0.00003666     -0.00004645
     0.00214102      0.00070628      0.00245929
     0.08116171     -0.18276192     -0.02047135
    -0.05264154     -0.28470481     -0.52675952
    -0.00002157     -0.00019796     -0.00020494
    -0.03752819      0.05198094     -0.12330361
    -0.15251792     -0.00420947      0.12443362
    -0.26689818     -0.14660391      0.27289251
    -0.06308936      0.56763982     -0.06445983
     0.00111034     -0.00152085      0.00058510
     0.00147760      0.01227211      0.00011075
    -0.02339371     -0.00184202      0.01084569
    -0.00105031     -0.00608746     -0.04041824
    -0.00013074      0.00010290     -0.00006666
     0.00078971     -0.08542817     -0.17292897
     0.00319455     -0.00369575      0.02738216
vibration 72
     0.00005277     -0.00474344     -0.00833240
    -0.00941420      0.01110326     -0.07562014
     0.00045603     -0.00029676     -0.00000399
     0.00070910      0.00154187     -0.00181182
    -0.00010547     -0.00000110      0.00004195
    -0.00004747     -0.00000375     -0.00002984
     0.00016840     -0.00009203      0.00029221
    -0.00012869     -0.00047915      0.00062265
     0.00032867      0.00013421      0.00028267
    -0.00006164      0.00021628      0.00021793
     0.00034569      0.00464612      0.00029470
     0.00009979     -0.00000427     -0.00004267
    -0.00006666      0.00064489      0.00067853
     0.00943667     -0.02008273      0.00678120
    -0.01924971     -0.00022276      0.01587834
     0.00099126     -0.00300362     -0.00046549
    -0.00008426     -0.00103260     -0.00186388
    -0.00022257     -0.00855812     -0.00689358
    -0.00161675      0.00169592     -0.00459741
    -0.00301889     -0.00030289      0.00197740
     0.00047481      0.00038642     -0.00062187
     0.00019216     -0.00200135      0.00028734
    -0.11183394      0.23140269     -0.08037377
    -0.00800707     -0.05408267     -0.00059068
     0.23571893      0.01838436     -0.10080492
    -0.00543707     -0.01368643     -0.08874591
     0.00037033      0.00017831      0.00014744
     0.00053368      0.05543261      0.10724898
     0.10047979     -0.13156915      0.89496643
vibration 73
     0.00031019      0.00231018      0.00416020
     0.00339301     -0.00347653      0.02399526
     0.00008139     -0.00003813      0.00021134
    -0.00004881     -0.00044693      0.00068259
    -0.00002528      0.00001249     -0.00003449
    -0.00003382      0.00007026     -0.00014769
    -0.00009890      0.00000739     -0.00018735
    -0.00000191      0.00014958     -0.00022137
     0.00025478     -0.00022088     -0.00039762
     0.00014555     -0.00037857     -0.00017240
     0.00028213      0.00581472      0.00097054
     0.00014303      0.00035187     -0.00023153
     0.00030062     -0.00033371     -0.00021613
     0.00027617     -0.00193899      0.00187639
    -0.06330732      0.00041055      0.06247803
    -0.00148313      0.00356139      0.00038375
     0.00004261      0.00087512      0.00166340
     0.00027789     -0.00120332     -0.00199530
     0.00067673     -0.00090046      0.00206167
    -0.00235306     -0.00005810      0.00214262
    -0.00095551     -0.00059087      0.00094557
    -0.00052339      0.00420113     -0.00058963
    -0.01317192      0.02358079     -0.00981474
    -0.01111173     -0.06719233     -0.00125501
     0.77522529      0.06191794     -0.33386014
    -0.02257974     -0.06874853     -0.42002912
    -0.00018697      0.00101871     -0.00274329
     0.00164908     -0.02732240     -0.05342237
    -0.03036012      0.04260509     -0.28568599
vibration 74
    -0.00039339      0.00120195      0.00106659
     0.00227340     -0.00271781      0.01887439
    -0.00016019     -0.00003030      0.00018177
    -0.00025790     -0.00098786      0.00049247
     0.00007342      0.00000834     -0.00004402
     0.00004233      0.00006403     -0.00006756
    -0.00000184      0.00005534     -0.00009972
     0.00009777      0.00046113     -0.00027606
    -0.00243040      0.00177425      0.00112505
    -0.00002626      0.00082135      0.00023378
    -0.00422364     -0.02535678     -0.00026900
    -0.00027496      0.00085154     -0.00115206
     0.00003597      0.00406870      0.00190310
     0.03276920     -0.06738635      0.02364206
     0.00737926      0.00170240     -0.00180402
     0.00936734     -0.02126952     -0.00175662
    -0.00038537     -0.00224102     -0.00436217
    -0.00323957     -0.04191886     -0.03317613
     0.00067967     -0.00104700      0.00382953
     0.01864828      0.00118691     -0.01545604
    -0.00041176     -0.00011231      0.00052066
     0.00082752     -0.00749755      0.00106192
    -0.38759814      0.78271862     -0.26746329
     0.04731948      0.30284499     -0.00167182
    -0.08286757     -0.00904835      0.03545487
    -0.00035015     -0.00474796     -0.01229687
     0.00420427     -0.00788188      0.01285418
    -0.00092470     -0.00806105     -0.01400497
    -0.02168767      0.03241311     -0.22319847
vibration 75
    -0.00005843     -0.00006144     -0.00002649
     0.00022938     -0.00023082      0.00059254
     0.00014723      0.00012632     -0.00004421
    -0.00021250      0.00006060      0.00001038
    -0.00008204      0.00011500      0.00009712
    -0.00005115      0.00003053      0.00006820
    -0.00024430      0.00020056      0.00017292
    -0.00007472      0.00007902      0.00005305
     0.06085616     -0.04666632     -0.03714352
     0.00154716     -0.03677697     -0.01941396
     0.00018038      0.00125019     -0.00003247
     0.00002502     -0.00005133      0.00001533
     0.00000497      0.00027120      0.00014600
     0.00143482     -0.00289381      0.00101437
     0.00090398      0.00005674     -0.00056203
    -0.25172993      0.58588688      0.05118962
     0.02453785      0.13684747      0.26744213
    -0.00045581     -0.00284735     -0.00218978
     0.01025241     -0.00711762     -0.01218592
    -0.47711393     -0.02734563      0.40029724
    -0.00958432     -0.01244892      0.00620631
    -0.03307367      0.31090462     -0.04417084
    -0.01675145      0.03371698     -0.01151844
    -0.00222076     -0.01410826      0.00017093
    -0.01047366     -0.00081147      0.00442972
     0.00012883      0.00034988      0.00257096
    -0.00010495      0.00021353     -0.00029554
    -0.00013443     -0.00005316     -0.00023439
    -0.00073201      0.00113729     -0.00776249
vibration 76
    -0.00003991     -0.00007310      0.00012809
    -0.00004962      0.00000531      0.00019065
    -0.00008435      0.00013888      0.00008014
    -0.00004358     -0.00004436     -0.00017431
     0.00004617      0.00028899      0.00014721
    -0.00002227      0.00010057      0.00005856
     0.00020668     -0.00009457     -0.00000492
     0.00006490     -0.00003772      0.00000959
    -0.02997078      0.02263054      0.01820313
     0.00256889     -0.07489465     -0.04009239
     0.00079447      0.00528978     -0.00001064
     0.00006034     -0.00016661      0.00015198
     0.00000545      0.00004441      0.00000895
     0.00040579     -0.00094609      0.00030983
     0.00070941      0.00003425     -0.00018303
     0.12238653     -0.28381784     -0.02483320
     0.05108825      0.28183323      0.55429447
     0.00005096     -0.00042796     -0.00039926
    -0.00465098      0.00270915      0.00783693
     0.23613088      0.01394059     -0.19827833
    -0.01506917     -0.02333497      0.00793123
    -0.06613775      0.62703242     -0.08824397
    -0.00496037      0.01013788     -0.00346973
    -0.00949742     -0.06108207      0.00036708
    -0.00780387     -0.00051537      0.00326683
    -0.00010384     -0.00003735     -0.00077048
    -0.00080717      0.00155587     -0.00237772
     0.00000644     -0.00096672     -0.00265585
     0.00001369      0.00019667     -0.00135042
vibration 77
     0.00083865     -0.00274116     -0.00501425
    -0.00061800      0.00181194     -0.00809279
     0.00011854     -0.00040250      0.00052224
     0.00013268      0.00046807     -0.00017267
    -0.00010373      0.00005566     -0.00007333
    -0.00000325      0.00023549     -0.00018931
    -0.00002923     -0.00003251      0.00001719
    -0.00005688     -0.00022674      0.00009924
    -0.00014504      0.00029601      0.00021521
     0.00026707     -0.00567829     -0.00299106
    -0.01206293     -0.08025776      0.00020767
    -0.00086121      0.00241312     -0.00202333
    -0.00008833     -0.00114089     -0.00026321
    -0.00983249      0.02124617     -0.00711892
    -0.01121253     -0.00084075      0.00180366
     0.00153459     -0.00377463     -0.00043559
     0.00373597      0.02085922      0.04106231
     0.00063885      0.01303175      0.01015535
    -0.00041725      0.00045119     -0.00113545
     0.00084684      0.00000151     -0.00087153
    -0.00205608     -0.00215564      0.00130140
    -0.00516011      0.04821139     -0.00679269
     0.11650936     -0.23526597      0.08021899
     0.14492053      0.92635770     -0.00638773
     0.12258302      0.00864991     -0.05104482
     0.00205039      0.00266156      0.02456993
     0.01064689     -0.02190189      0.03317550
    -0.00357961      0.02805475      0.05867451
     0.00925436     -0.01381840      0.09282205
vibration 78
     0.00000256     -0.00000582     -0.00000903
    -0.00007252     -0.00001922     -0.00023352
     0.00004498     -0.00002212      0.00002469
     0.00071698      0.00104628     -0.00007639
     0.00005018      0.00001118     -0.00001347
    -0.00000223      0.00001737      0.00000045
     0.00001941     -0.00023295      0.00025297
    -0.00023705     -0.00044918      0.00015279
    -0.01021281      0.04957824     -0.07893764
    -0.00576276     -0.00537639      0.00946174
     0.00001148      0.00002413     -0.00000235
     0.00000177     -0.00003075      0.00004349
     0.00000681      0.00010226      0.00008975
    -0.00006914      0.00014152     -0.00008057
     0.00004490     -0.00000585     -0.00005930
     0.12220109     -0.26241684     -0.04422977
    -0.00372867     -0.01958691     -0.03215047
    -0.00015182     -0.00108533     -0.00110529
     0.23977619     -0.33238544      0.79085196
    -0.24482070      0.00412258      0.18725461
     0.07635513      0.04211178     -0.07792354
    -0.00533668      0.04122190     -0.00277579
     0.00092399     -0.00174827      0.00062428
    -0.00010087     -0.00046696      0.00005072
    -0.00067492     -0.00010172      0.00028138
     0.00004220      0.00010496      0.00055010
    -0.00010984      0.00015438     -0.00035885
    -0.00004262     -0.00001378      0.00004832
     0.00038829     -0.00048924      0.00349320
vibration 79
    -0.00001070     -0.00005591      0.00003318
    -0.00001517      0.00001083     -0.00011661
    -0.00074340      0.00053982     -0.00089643
     0.00013718      0.00022780     -0.00009326
    -0.00015970     -0.00020689      0.00026464
     0.00021126     -0.00026401      0.00043648
     0.00000480     -0.00005800      0.00005598
    -0.00006570     -0.00010584      0.00005998
    -0.00131053      0.00657672     -0.01036596
     0.04349936      0.04066285     -0.07244345
     0.00000727      0.00007932     -0.00000125
     0.00001808     -0.00004120      0.00007140
     0.00000374     -0.00001743     -0.00001990
    -0.00004835      0.00009192     -0.00003832
    -0.00000048     -0.00000945     -0.00004494
     0.01618837     -0.03500775     -0.00576003
     0.03052002      0.14755127      0.24420754
     0.00000284      0.00027461      0.00023755
     0.03137364     -0.04359005      0.10384676
    -0.03224090      0.00029373      0.02450847
    -0.58129554     -0.31955258      0.59445215
     0.04044050     -0.31040261      0.02230484
     0.00062001     -0.00119354      0.00039702
    -0.00021406     -0.00103054     -0.00000323
    -0.00006027     -0.00002969      0.00002207
     0.00002037      0.00009212      0.00052232
    -0.00027244      0.00043643     -0.00076322
     0.00027995      0.00021519      0.00066978
     0.00021393     -0.00028475      0.00155349
vibration 80
     0.00006312      0.00014887      0.00002826
    -0.00008454      0.00010596      0.00027453
    -0.00005235     -0.00013512      0.00019097
    -0.00014342     -0.00014325     -0.00032435
     0.00004865      0.00003902     -0.00004032
     0.00007156      0.00002411     -0.00011952
    -0.00006539      0.00005851      0.00018185
     0.00002505      0.00004031      0.00004762
     0.00013907      0.00005342     -0.00011889
    -0.00006296     -0.00005703      0.00002064
    -0.00033476     -0.00166051     -0.00013577
     0.00774571     -0.01269117      0.02985148
    -0.00408447     -0.05898057     -0.05242206
     0.00189030     -0.00396076      0.00304712
     0.00026128      0.00056271      0.00031640
     0.00022327      0.00002582     -0.00010830
     0.00003941      0.00005317      0.00025925
     0.05668299      0.66413913      0.60913570
     0.00025252     -0.00034279      0.00063787
    -0.00138605     -0.00006399      0.00109149
     0.00052994      0.00029267     -0.00056847
    -0.00002863      0.00029520      0.00001750
    -0.02158746      0.04341633     -0.01904679
     0.00332971      0.01804988      0.00058923
    -0.00196539     -0.00057182      0.00085700
    -0.00004046     -0.00133752     -0.00233144
    -0.10104137      0.18744462     -0.35895367
    -0.00048648     -0.00017485      0.00007701
     0.00066446      0.00013740     -0.00329796
vibration 81
    -0.00017300      0.00005538      0.00041630
     0.00002974     -0.00005348      0.00035087
    -0.00009125      0.00024912     -0.00046552
    -0.00013447     -0.00006864     -0.00023583
     0.00000027     -0.00005656      0.00007921
    -0.00007529     -0.00003956      0.00028811
    -0.00000433      0.00001523      0.00013456
     0.00003184      0.00001539      0.00003950
     0.00003729      0.00006595     -0.00009180
     0.00002721     -0.00000320     -0.00006655
     0.00025558      0.00407128      0.00205933
    -0.01939987      0.04268779     -0.06911426
    -0.00090002     -0.03430018     -0.02331133
     0.00057426     -0.00167454      0.00215268
     0.00072953      0.00008443      0.00093082
     0.00022009     -0.00026330     -0.00008317
     0.00009045      0.00024961      0.00042057
     0.02544745      0.30501539      0.27507394
     0.00032246     -0.00030744      0.00075566
    -0.00060138     -0.00001932      0.00049882
    -0.00019157     -0.00017073      0.00030956
     0.00006444     -0.00003995     -0.00003156
    -0.00755129      0.01674415     -0.00878174
    -0.00510729     -0.03833058     -0.00445182
    -0.00388027     -0.00020232      0.00135221
    -0.00036341     -0.00033900     -0.00395202
     0.21843680     -0.41297517      0.77568265
     0.00074047     -0.00098338     -0.00264806
    -0.00010849      0.00033089     -0.00237961
[INT]
    2.538192
    0.933478
    0.236504
    1.218718
    1.793390
    2.444555
    0.020824
    0.036757
    1.896306
    8.532851
    3.326800
    4.813259
    6.743276
   12.107267
    5.655293
    1.341496
    4.848689
    6.945998
    5.054138
    3.355285
    5.488656
   30.319603
   11.802467
    4.230504
   14.675594
    7.596695
    2.078100
    8.160178
   21.644169
    1.901112
    4.992606
    6.231343
    6.876520
    0.265158
    0.550669
    4.372368
   35.488899
   26.071021
   58.814341
    1.133561
    1.575551
   64.186200
    0.264572
    2.150397
    5.379643
  120.294983
   18.704901
   85.519829
   59.442832
  171.828986
   91.787388
   30.032717
    6.232434
   19.490906
   10.478991
   14.686985
   37.327220
   12.619697
   15.094358
    6.501508
    9.268616
   14.784875
    6.003393
    4.394072
    2.243878
  323.461320
  212.550826
   31.025171
   24.593105
   13.818468
   46.484175
    3.572069
   29.680863
   35.238361
   33.636959
    6.597893
   21.612812
    8.547765
   13.867953
    5.610121
    5.151451

======= END OF MOLDEN-FORMATTED INPUT FILE =======


        *************************************************************
        *                                                           *
        *  Thank you very much for using Q-Chem.  Have a nice day.  *
        *                                                           *
        *************************************************************


