r0230.ten.osc.edu 10.25.157
Q-Chem Developer Version! Running on 10.25.157.*
                  Welcome to Q-Chem
     A Quantum Leap Into The Future Of Chemistry


 Q-Chem 5.0, Q-Chem, Inc., Pleasanton, CA (2017)

 Yihan Shao,  Zhengting Gan,  E. Epifanovsky,  A. T. B. Gilbert,  M. Wormit,  
 J. Kussmann,  A. W. Lange,  A. Behn,  Jia Deng,  Xintian Feng,  D. Ghosh,  
 M. Goldey,  P. R. Horn,  L. D. Jacobson,  I. Kaliman,  T. Kus,  A. Landau,  
 Jie Liu,  E. I. Proynov,  R. M. Richard,  R. P. Steele,  E. J. Sundstrom,  
 H. L. Woodcock III,  P. M. Zimmerman,  D. Zuev,  B. Albrecht,  E. Alguire,  
 S. A. Baeppler,  Z. Benda,  Y. A. Bernard,  E. J. Berquist,  K. B. Bravaya,  
 D. Casanova,  Chun-Min Chang,  Yunqing Chen,  A. Chien,  K. D. Closser,  
 M. P. Coons,  S. Dasgupta,  M. Diedenhofen,  Hainam Do,  R. G. Edgar,  
 Po-Tung Fang,  S. Fatehi,  Qingguo Feng,  Qinghui Ge,  A. Ghysels,  
 J. Gomes,  J. Gonthier,  A. Gunina,  M. W. D. Hanson-Heine,  
 P. H. P. Harbach,  A. W. Hauser,  J. E. Herr,  E. G. Hohenstein,  
 Z. C. Holden,  Kerwin Hui,  T.-C. Jagau,  Hyunjun Ji,  B. Kaduk,  
 K. Khistyaev,  Jaehoon Kim,  P. Klunzinger,  K. Koh,  D. Kosenkov,  
 T. Kowalczyk,  C. M. Krauter,  A. Kunitsa,  Ka Un Lao,  A. Laurent,  
 K. V. Lawler,  Joonho Lee,  D. Lefrancois,  S. Lehtola,  D. S. Levine,  
 Yi-Pei Li,  You-Sheng Lin,  Fenglai Liu,  E. Livshits,  A. Luenser,  
 P. Manohar,  E. Mansoor,  S. F. Manzer,  Shan-Ping Mao,  Yuezhi Mao,  
 N. Mardirossian,  A. V. Marenich,  L. A. Martinez-Martinez,  S. A. Maurer,  
 N. J. Mayhall,  S. C. McKenzie,  J.-M. Mewes,  A. F. Morrison,  K. Nanda,  
 T. S. Nguyen-Beck,  R. Olivares-Amaya,  J. A. Parkhill,  T. M. Perrine,  
 F. Plasser,  S. Prager,  A. Prociuk,  D. R. Rehn,  F. Rob,  M. Schneider,  
 N. Sergueev,  S. M. Sharada,  S. Sharma,  D. W. Small,  T. Stauch,  
 T. Stein,  Yu-Chuan Su,  A. J. W. Thom,  T. Tsuchimochi,  L. Vogt,  
 O. Vydrov,  M. A. Watson,  J. Wenzel,  M. de Wergifosse,  T. A. Wesolowski,  
 A. White,  J. Witte,  A. Yamada,  Jun Yang,  K. Yao,  S. Yeganeh,  
 S. R. Yost,  Zhi-Qiang You,  A. Zech,  Igor Ying Zhang,  Xing Zhang,  
 Yan Zhao,  Ying Zhu,  B. R. Brooks,  G. K. L. Chan,  C. J. Cramer,  
 M. S. Gordon,  W. J. Hehre,  A. Klamt,  M. W. Schmidt,  C. D. Sherrill,  
 D. G. Truhlar,  A. Aspuru-Guzik,  R. Baer,  A. T. Bell,  N. A. Besley,  
 Jeng-Da Chai,  A. Dreuw,  B. D. Dunietz,  T. R. Furlani,  Chao-Ping Hsu,  
 Yousung Jung,  Jing Kong,  D. S. Lambrecht,  WanZhen Liang,  C. Ochsenfeld,  
 V. A. Rassolov,  L. V. Slipchenko,  J. E. Subotnik,  T. Van Voorhis,  
 J. M. Herbert,  A. I. Krylov,  P. M. W. Gill,  M. Head-Gordon

 Contributors to earlier versions of Q-Chem not listed above: 
 R. D. Adamson,  B. Austin,  J. Baker,  G. J. O. Beran,  K. Brandhorst,  
 S. T. Brown,  E. F. C. Byrd,  A. K. Chakraborty,  C.-L. Cheng,  
 Siu Hung Chien,  D. M. Chipman,  D. L. Crittenden,  H. Dachsel,  
 R. A. DiStasio Jr.,  R. J. Doerksen,  A. D. Dutoi,  L. Fusti-Molnar,  
 W. A. Goddard III,  A. Golubeva-Zadorozhnaya,  S. R. Gwaltney,  G. Hawkins,  
 A. Heyden,  S. Hirata,  G. Kedziora,  F. J. Keil,  C. Kelley,  Jihan Kim,  
 R. A. King,  R. Z. Khaliullin,  P. P. Korambath,  W. Kurlancheek,  
 A. M. Lee,  M. S. Lee,  S. V. Levchenko,  Ching Yeh Lin,  D. Liotard,  
 R. C. Lochan,  I. Lotan,  P. E. Maslen,  N. Nair,  D. P. O'Neill,  
 D. Neuhauser,  E. Neuscamman,  C. M. Oana,  R. Olson,  B. Peters,  
 R. Peverati,  P. A. Pieniazek,  Y. M. Rhee,  J. Ritchie,  M. A. Rohrdanz,  
 E. Rosta,  N. J. Russ,  H. F. Schaefer III,  N. E. Schultz,  N. Shenvi,  
 A. C. Simmonett,  A. Sodt,  D. Stuck,  K. S. Thanthiriwatte,  V. Vanovschi,  
 Tao Wang,  A. Warshel,  C. F. Williams,  Q. Wu,  X. Xu,  W. Zhang

 Please cite Q-Chem as follows:
 Y. Shao et al., Mol. Phys. 113, 184-215 (2015)
 DOI: 10.1080/00268976.2014.952696

 Q-Chem 5.0.1 for Intel X86 EM64T Linux

 Parts of Q-Chem use Armadillo 5.200.1 (Boston Tea Smuggler).
 http://arma.sourceforge.net/

 Q-Chem begins on Mon Oct 23 23:19:45 2017  

Host: r0230.ten.osc.edu
0

     Scratch files written to /tmp/pbstmp.1324329/03//
Processing $rem in /users/PAS0291/osu6415/.qchemrc.
molden_format             true

Checking the input file for inconsistencies... 	...done.

--------------------------------------------------------------
User input:
--------------------------------------------------------------
$molecule
0 1
C -0.90738955 0.67464636 -0.87064249
C -0.46753047 -0.83732277 -0.95491079
C -0.00120742 1.74366610 -0.28858020
C 0.98680268 -1.19383115 -0.71289038
O 1.24083021 1.32304433 -0.00479102
O -0.37431761 2.87927785 -0.10831932
O 1.25210375 -1.52522058 0.56605665
O 1.81030852 -1.25424683 -1.59459198
C 2.62179140 -1.84589656 0.85542897
C 2.13599038 2.30165787 0.55489353
C -2.24718555 0.59321587 -0.03531621
C -1.83107991 0.24533807 1.38568070
C -1.39838764 -1.01974196 1.37540943
C -1.53845239 -1.54650592 -0.04668440
C -2.79663999 -0.77073768 -0.50505396
H 2.95051515 -2.70312005 0.26585329
H 1.76383989 2.64295015 1.52205914
H -0.92982158 -1.56104610 2.18403874
H 2.64932267 -2.07643234 1.91833389
H 3.26348263 -0.99242929 0.62973968
H 3.08903824 1.79007348 0.66757831
H 2.23393897 3.15575864 -0.11578273
H -1.54748888 -2.62976732 -0.16165892
H -2.87551802 1.47153827 -0.16115721
H -3.69487634 -1.06556956 0.03915713
H -2.98014608 -0.82817563 -1.58231575
H -1.78580207 0.95125921 2.20418323
H -1.14025429 1.02945042 -1.87870281
H -0.63544919 -1.15527918 -1.98553402
$end

$rem
sym_ignore      true
jobtype         ts
method          b3lyp
basis           6-311++G(d,p)
dft_d           d3_op
mem_total       62000
MEM_STATIC      4000
ao2mo_disk      350000
max_scf_cycles  200
geom_opt_max_cycles 1000
geom_opt_tol_displacement 1
GEOM_OPT_TOL_GRADIENT       1
GEOM_OPT_TOL_ENERGY         1
$end

--------------------------------------------------------------
 Adding empirical dispersion correction 
 ----------------------------------------------------------------
 Doing -D3(op) with
 s6 =   1.00000
 s8 =   0.78311
 a1 =   0.30000
 a2 =   4.25000
 n  =  10.00000
 -D3 energy without 3body term =     -0.0338484035 hartrees
 ----------------------------------------------------------------
             Standard Nuclear Orientation (Angstroms)
    I     Atom           X                Y                Z
 ----------------------------------------------------------------
    1      C      -0.9073895500     0.6746463600    -0.8706424900
    2      C      -0.4675304700    -0.8373227700    -0.9549107900
    3      C      -0.0012074200     1.7436661000    -0.2885802000
    4      C       0.9868026800    -1.1938311500    -0.7128903800
    5      O       1.2408302100     1.3230443300    -0.0047910200
    6      O      -0.3743176100     2.8792778500    -0.1083193200
    7      O       1.2521037500    -1.5252205800     0.5660566500
    8      O       1.8103085200    -1.2542468300    -1.5945919800
    9      C       2.6217914000    -1.8458965600     0.8554289700
   10      C       2.1359903800     2.3016578700     0.5548935300
   11      C      -2.2471855500     0.5932158700    -0.0353162100
   12      C      -1.8310799100     0.2453380700     1.3856807000
   13      C      -1.3983876400    -1.0197419600     1.3754094300
   14      C      -1.5384523900    -1.5465059200    -0.0466844000
   15      C      -2.7966399900    -0.7707376800    -0.5050539600
   16      H       2.9505151500    -2.7031200500     0.2658532900
   17      H       1.7638398900     2.6429501500     1.5220591400
   18      H      -0.9298215800    -1.5610461000     2.1840387400
   19      H       2.6493226700    -2.0764323400     1.9183338900
   20      H       3.2634826300    -0.9924292900     0.6297396800
   21      H       3.0890382400     1.7900734800     0.6675783100
   22      H       2.2339389700     3.1557586400    -0.1157827300
   23      H      -1.5474888800    -2.6297673200    -0.1616589200
   24      H      -2.8755180200     1.4715382700    -0.1611572100
   25      H      -3.6948763400    -1.0655695600     0.0391571300
   26      H      -2.9801460800    -0.8281756300    -1.5823157500
   27      H      -1.7858020700     0.9512592100     2.2041832300
   28      H      -1.1402542900     1.0294504200    -1.8787028100
   29      H      -0.6354491900    -1.1552791800    -1.9855340200
 ----------------------------------------------------------------
 Nuclear Repulsion Energy =  1090.6903228498 hartrees
 There are       56 alpha and       56 beta electrons
 Requested basis set is 6-311++G(d,p)
 There are 160 shells and 428 basis functions

 Total QAlloc Memory Limit  62000 MB
 Mega-Array Size      3911 MB
 MEM_STATIC part      4000 MB
 A cutoff of  1.0D-11 yielded  10809 shell pairs
 There are     79247 function pairs (     84733 Cartesian)
 
 -------------------------------------------------------
 OpenMP Integral Computing Module                       
 Release: version 1.0, May 2013, Q-Chem Inc. Pittsburgh 
 -------------------------------------------------------
 Integral Job Info:
 Integral job number is                      11
 Integral operator is                         1
 short-range coefficients                     0
 long-range coefficients              100000000
 Omega coefficients                           0
 if combine SR and LR in K                    0
 Integral screening is                        0
 Integral computing path is                   2
 max size of driver memory is            800000
 size of driver memory is                593474
 size of scratch memory is              2361544
 max col of scratch BK array               1296
 max len of scratch array in speh3          155
 max len of scratch index in speh4           18
 max int batch size is                      520
 min int batch size is                       52
 fixed nKL is                                52
 max L of basis functions is                  2
 order of int derivative is                   0
 number of shells is                        160
 number of basis is                         443
 number of cartesian basis is               443
 number of contracted shell pairs         10809
 number of primitive shell pairs          24484
 maxK2 (contraction) of shell pair           36
 max number of K2 of shell pair               1
 max number of CS2 of shell pair           1959
 max number of PS2 of shell pair           3510
 mem total for path MDJ                  146840
 -------------------------------------------------------
 Smallest overlap matrix eigenvalue = 1.21E-06

 Q-Chem warning in module /fs/scratch/osu6415/qchem-kaunlao-vdw/stvman/mkSTV.C, line 281:

 Overlap eigenvalue is smaller than square root of threshold


 Scale SEOQF with 1.000000e-01/1.000000e-01/1.000000e-01

 Standard Electronic Orientation quadrupole field applied
 Nucleus-field energy     =     0.0000000216 hartrees
 Guess from superposition of atomic densities
 Warning:  Energy on first SCF cycle will be non-variational
 A restricted hybrid HF-DFT SCF calculation will be
 performed using Pulay DIIS extrapolation
 Exchange:     0.2000 Hartree-Fock + 0.0800 Slater + 0.7200 B88
 Correlation:  0.1900 VWN1RPA + 0.8100 LYP
 Using SG-1 standard quadrature grid
 Dispersion:   Grimme D3
 SCF converges when DIIS error is below 1.0E-08
 using 20 threads for integral computing
 -------------------------------------------------------
 OpenMP Integral computing Module                
 Release: version 1.0, May 2013, Q-Chem Inc. Pittsburgh 
 -------------------------------------------------------
 -------------------------------------------------------
 OpenMP BLAS3 based DFT computing Module                
 Release: version 1.0, May 2013, Q-Chem Inc. Pittsburgh 
 -------------------------------------------------------
 ---------------------------------------
  Cycle       Energy         DIIS Error
 ---------------------------------------
    1    -731.8831645889      3.09E-02
    2    -728.4019065294      3.97E-03
    3    -727.9055860771      6.74E-03
    4    -728.6687276682      1.44E-03
    5    -728.7033700357      4.55E-04
    6    -728.7066827461      1.27E-04
    7    -728.7069418824      4.72E-05
    8    -728.7069806897      1.44E-05
    9    -728.7069849587      3.50E-06
   10    -728.7069851732      1.56E-06
   11    -728.7069852168      4.87E-07
   12    -728.7069852206      2.02E-07
   13    -728.7069852213      5.94E-08
   14    -728.7069852210      1.32E-08
   15    -728.7069852227      3.93E-09 Convergence criterion met
 ---------------------------------------
 SCF time:  CPU 823.87 s  wall 48.16 s
 SCF   energy in the final basis set = -728.70698522
 Total energy in the final basis set = -728.70698522
 
 --------------------------------------------------------------
 
                    Orbital Energies (a.u.)
 --------------------------------------------------------------
 
 Alpha MOs
 -- Occupied --
-19.178 -19.170 -19.115 -19.109 -10.308 -10.303 -10.233 -10.229
-10.208 -10.203 -10.194 -10.194 -10.180 -10.174 -10.172  -1.120
 -1.111  -1.029  -1.022  -0.901  -0.788  -0.764  -0.738  -0.723
 -0.707  -0.641  -0.589  -0.577  -0.570  -0.541  -0.536  -0.523
 -0.501  -0.493  -0.482  -0.476  -0.467  -0.457  -0.441  -0.425
 -0.411  -0.402  -0.401  -0.391  -0.382  -0.368  -0.363  -0.359
 -0.350  -0.346  -0.324  -0.320  -0.307  -0.286  -0.279  -0.254
 -- Virtual --
 -0.015  -0.011  -0.009  -0.002   0.001   0.005   0.011   0.018
  0.020   0.029   0.032   0.036   0.043   0.046   0.050   0.054
  0.057   0.071   0.079   0.080   0.089   0.092   0.096   0.100
  0.106   0.109   0.110   0.112   0.115   0.117   0.119   0.123
  0.126   0.131   0.133   0.136   0.137   0.143   0.148   0.150
  0.151   0.154   0.155   0.161   0.162   0.163   0.164   0.170
  0.174   0.176   0.183   0.187   0.193   0.194   0.201   0.202
  0.206   0.211   0.216   0.222   0.226   0.228   0.235   0.241
  0.243   0.246   0.256   0.263   0.265   0.272   0.273   0.274
  0.289   0.292   0.297   0.300   0.307   0.314   0.318   0.322
  0.328   0.329   0.331   0.334   0.339   0.348   0.352   0.356
  0.360   0.364   0.367   0.371   0.378   0.381   0.386   0.396
  0.398   0.404   0.413   0.423   0.434   0.445   0.452   0.454
  0.471   0.489   0.495   0.507   0.512   0.520   0.529   0.535
  0.542   0.551   0.577   0.593   0.595   0.605   0.607   0.627
  0.630   0.640   0.642   0.648   0.653   0.668   0.671   0.674
  0.685   0.689   0.697   0.701   0.703   0.712   0.718   0.726
  0.735   0.739   0.748   0.752   0.758   0.765   0.772   0.783
  0.787   0.797   0.807   0.829   0.830   0.852   0.860   0.870
  0.897   0.909   0.922   0.947   0.964   1.006   1.017   1.026
  1.031   1.050   1.057   1.082   1.084   1.111   1.120   1.155
  1.165   1.173   1.187   1.196   1.205   1.216   1.242   1.256
  1.257   1.286   1.291   1.298   1.300   1.333   1.341   1.372
  1.382   1.385   1.400   1.418   1.431   1.442   1.447   1.453
  1.479   1.496   1.497   1.529   1.538   1.561   1.570   1.575
  1.581   1.583   1.588   1.605   1.622   1.626   1.644   1.658
  1.672   1.676   1.682   1.709   1.715   1.718   1.726   1.731
  1.742   1.756   1.758   1.776   1.792   1.804   1.814   1.815
  1.825   1.848   1.856   1.880   1.885   1.895   1.912   1.917
  1.921   1.935   1.950   1.969   1.980   1.995   2.025   2.031
  2.041   2.049   2.078   2.089   2.106   2.122   2.133   2.173
  2.185   2.194   2.204   2.212   2.227   2.241   2.251   2.289
  2.323   2.337   2.355   2.384   2.408   2.434   2.451   2.469
  2.492   2.502   2.505   2.525   2.535   2.543   2.549   2.576
  2.587   2.597   2.624   2.637   2.659   2.665   2.678   2.707
  2.722   2.743   2.779   2.786   2.811   2.821   2.833   2.846
  2.857   2.872   2.885   2.900   2.909   2.922   2.936   2.980
  2.997   2.999   3.014   3.023   3.042   3.049   3.057   3.084
  3.108   3.112   3.134   3.150   3.162   3.202   3.222   3.237
  3.246   3.269   3.304   3.311   3.342   3.373   3.390   3.422
  3.465   3.581   3.603   3.622   3.692   3.737   3.775   3.779
  3.781   3.851   3.867   3.916   4.010   4.052   4.069   4.085
  4.124   4.157   4.162   4.178   4.188   4.226   4.267   4.350
  4.438   5.033   5.075   5.110   5.138   5.246   5.253   5.447
  5.461   5.627   5.647   5.881   5.885  23.792  23.846  23.855
 23.871  23.886  23.915  23.935  23.942  23.997  24.033  24.309
 49.916  49.943  50.029  50.045
 --------------------------------------------------------------
 
          Ground-State Mulliken Net Atomic Charges

     Atom                 Charge (a.u.)
  ----------------------------------------
      1 C                     0.235950
      2 C                     0.065179
      3 C                    -0.526960
      4 C                    -0.611736
      5 O                    -0.074615
      6 O                    -0.214970
      7 O                     0.017402
      8 O                    -0.199897
      9 C                    -0.196386
     10 C                    -0.207332
     11 C                     0.199729
     12 C                    -0.262461
     13 C                    -0.530038
     14 C                     0.384299
     15 C                    -0.741924
     16 H                     0.173892
     17 H                     0.188654
     18 H                     0.146763
     19 H                     0.151347
     20 H                     0.176529
     21 H                     0.131310
     22 H                     0.182468
     23 H                     0.264216
     24 H                     0.281080
     25 H                     0.179057
     26 H                     0.126060
     27 H                     0.162708
     28 H                     0.240839
     29 H                     0.258836
  ----------------------------------------
  Sum of atomic charges =    -0.000000

 -----------------------------------------------------------------
                    Cartesian Multipole Moments
 -----------------------------------------------------------------
    Charge (ESU x 10^10)
                -0.0000
    Dipole Moment (Debye)
         X       0.3265      Y      -1.3294      Z       1.7632
       Tot       2.2322
    Quadrupole Moments (Debye-Ang)
        XX     -82.9808     XY       5.2251     YY     -92.7340
        XZ      10.0919     YZ      -1.7279     ZZ     -89.4165
    Octopole Moments (Debye-Ang^2)
       XXX      39.3904    XXY      10.0282    XYY      28.2409
       YYY     -30.5642    XXZ      13.7151    XYZ      -9.5923
       YYZ       7.6925    XZZ      -1.0570    YZZ      10.1955
       ZZZ       9.8229
    Hexadecapole Moments (Debye-Ang^3)
      XXXX   -1663.4876   XXXY       0.7495   XXYY    -467.0597
      XYYY      44.6340   YYYY   -1429.8950   XXXZ      47.0899
      XXYZ     -16.0879   XYYZ      13.5993   YYYZ      -7.1679
      XXZZ    -397.5628   XYZZ       6.2239   YYZZ    -304.6569
      XZZZ      23.5302   YZZZ     -22.0510   ZZZZ    -529.8145
 -----------------------------------------------------------------
 Calculating analytic gradient of the SCF energy
 Gradient of SCF Energy
            1           2           3           4           5           6
    1  -0.0002900   0.0001155  -0.0000962   0.0005516   0.0000508   0.0000917
    2  -0.0001736  -0.0003411   0.0001516   0.0018847   0.0000474  -0.0001107
    3   0.0010263  -0.0016650   0.0002488   0.0006572  -0.0000612  -0.0001124
            7           8           9          10          11          12
    1  -0.0000412  -0.0003745  -0.0000149   0.0000132   0.0000667  -0.0000146
    2  -0.0000543  -0.0012802  -0.0000085  -0.0001207   0.0001269  -0.0001227
    3  -0.0000276  -0.0001077   0.0000983   0.0000944   0.0000630   0.0000030
           13          14          15          16          17          18
    1  -0.0001037   0.0001921   0.0000199   0.0000322  -0.0000492   0.0000421
    2   0.0000448  -0.0000831  -0.0000078   0.0000239   0.0000459  -0.0000172
    3  -0.0000090  -0.0000250  -0.0000820  -0.0000574   0.0000296  -0.0000370
           19          20          21          22          23          24
    1  -0.0000205   0.0000223  -0.0000383  -0.0000051  -0.0000932  -0.0000710
    2  -0.0000027  -0.0000144   0.0000024   0.0000361   0.0000214  -0.0000848
    3  -0.0000449  -0.0000519   0.0000585   0.0000691  -0.0000393  -0.0000208
           25          26          27          28          29
    1  -0.0000026  -0.0000126   0.0000178  -0.0000077   0.0000192
    2  -0.0000117   0.0000088  -0.0000313   0.0000698   0.0000011
    3  -0.0000318  -0.0000102   0.0000108   0.0000303  -0.0000061
 Max gradient component =       1.885E-03
 RMS gradient           =       3.473E-04
 Gradient time:  CPU 259.43 s  wall 19.50 s
 Geometry Optimization Parameters
   NAtoms,    NIC,     NZ,  NCons,   NDum,   NFix, NCnnct, MaxDiis
       29     227       0       0       0       0       0       0


** GEOMETRY OPTIMIZATION IN DELOCALIZED INTERNAL COORDINATES **
   Searching for a Transition State

   Optimization Cycle:   1

                       Coordinates (Angstroms)
     ATOM                X               Y               Z
      1  C        -0.9073895500    0.6746463600   -0.8706424900
      2  C        -0.4675304700   -0.8373227700   -0.9549107900
      3  C        -0.0012074200    1.7436661000   -0.2885802000
      4  C         0.9868026800   -1.1938311500   -0.7128903800
      5  O         1.2408302100    1.3230443300   -0.0047910200
      6  O        -0.3743176100    2.8792778500   -0.1083193200
      7  O         1.2521037500   -1.5252205800    0.5660566500
      8  O         1.8103085200   -1.2542468300   -1.5945919800
      9  C         2.6217914000   -1.8458965600    0.8554289700
     10  C         2.1359903800    2.3016578700    0.5548935300
     11  C        -2.2471855500    0.5932158700   -0.0353162100
     12  C        -1.8310799100    0.2453380700    1.3856807000
     13  C        -1.3983876400   -1.0197419600    1.3754094300
     14  C        -1.5384523900   -1.5465059200   -0.0466844000
     15  C        -2.7966399900   -0.7707376800   -0.5050539600
     16  H         2.9505151500   -2.7031200500    0.2658532900
     17  H         1.7638398900    2.6429501500    1.5220591400
     18  H        -0.9298215800   -1.5610461000    2.1840387400
     19  H         2.6493226700   -2.0764323400    1.9183338900
     20  H         3.2634826300   -0.9924292900    0.6297396800
     21  H         3.0890382400    1.7900734800    0.6675783100
     22  H         2.2339389700    3.1557586400   -0.1157827300
     23  H        -1.5474888800   -2.6297673200   -0.1616589200
     24  H        -2.8755180200    1.4715382700   -0.1611572100
     25  H        -3.6948763400   -1.0655695600    0.0391571300
     26  H        -2.9801460800   -0.8281756300   -1.5823157500
     27  H        -1.7858020700    0.9512592100    2.2041832300
     28  H        -1.1402542900    1.0294504200   -1.8787028100
     29  H        -0.6354491900   -1.1552791800   -1.9855340200
   Point Group: c1    Number of degrees of freedom:    81


   Energy is   -728.706985223


 Attempting to Generate Delocalized Internal Coordinates

 81 Hessian modes will be used to form the next step
  Hessian Eigenvalues:
     0.004088    0.006866    0.006953    0.010416    0.010859    0.011033
     0.011058    0.012793    0.016373    0.016923    0.019793    0.022583
     0.023359    0.023942    0.030782    0.039082    0.039663    0.043010
     0.045925    0.046759    0.050053    0.053834    0.054538    0.057425
     0.058734    0.068227    0.075274    0.093408    0.099280    0.101443
     0.101449    0.105929    0.106072    0.114510    0.122551    0.146557
     0.156847    0.158723    0.160000    0.160000    0.160000    0.160000
     0.160000    0.160000    0.175211    0.226129    0.229036    0.241104
     0.249590    0.249995    0.250000    0.250000    0.250000    0.250000
     0.253439    0.254879    0.271941    0.298092    0.306099    0.306745
     0.343218    0.343824    0.346343    0.346537    0.346863    0.346918
     0.347164    0.347709    0.348840    0.350487    0.350999    0.351337
     0.357761    0.359918    0.396501    0.401140    0.513215    0.555445
     0.568292    1.004989    1.009146
**WARNING** Hessian does not have the Desired Local Structure

 Transition State Search - Taking P-RFO Step
 Searching for Lamda that Maximizes Along the Lowest mode
 Value Taken    Lamda =   0.00408762
 Searching for Lamda that Minimizes Along All other modes
 Value Taken    Lamda =  -0.00025130
 Calculated Step too Large.  Step scaled by  0.000620
 Step Taken.  Stepsize is  0.300000

                             Maximum     Tolerance    Cnvgd?
         Gradient           0.000629      0.000001      NO
         Displacement       0.105147      0.000001      NO
         Energy change     *********      0.000000      NO


 New Cartesian Coordinates Obtained by Inverse Iteration

 Displacement from previous Coordinates is:  0.843399
 Adding empirical dispersion correction 
 ----------------------------------------------------------------
 Doing -D3(op) with
 s6 =   1.00000
 s8 =   0.78311
 a1 =   0.30000
 a2 =   4.25000
 n  =  10.00000
 -D3 energy without 3body term =     -0.0338942028 hartrees
 ----------------------------------------------------------------
             Standard Nuclear Orientation (Angstroms)
    I     Atom           X                Y                Z
 ----------------------------------------------------------------
    1      C      -0.9018102381     0.6678564208    -0.8821250255
    2      C      -0.4723907058    -0.8475861237    -0.9483793388
    3      C      -0.0041785778     1.7277372815    -0.2708349509
    4      C       0.9860536367    -1.2123718414    -0.7468148958
    5      O       1.2241515594     1.2949534326     0.0516858002
    6      O      -0.3718056126     2.8668125291    -0.1014911693
    7      O       1.2902521009    -1.5212556899     0.5291017067
    8      O       1.7797721226    -1.2972340807    -1.6534675855
    9      C       2.6659510797    -1.8485150933     0.7800345130
   10      C       2.1106003552     2.2645512515     0.6401852915
   11      C      -2.2656086689     0.5990355353    -0.0836593078
   12      C      -1.8720633706     0.3201343336     1.3573540462
   13      C      -1.3969518661    -0.9290620883     1.3999826496
   14      C      -1.5231806868    -1.5271438524     0.0034372299
   15      C      -2.7889748899    -0.7936877208    -0.4987509398
   16      H       2.9680836518    -2.7199224098     0.1970627532
   17      H       1.7114007368     2.6089120005     1.5954030903
   18      H      -0.9214259253    -1.4228448637     2.2345480034
   19      H       2.7262921842    -2.0586297980     1.8458123535
   20      H       3.3070010827    -1.0053677438     0.5168480852
   21      H       3.0546254725     1.7437006331     0.7824805059
   22      H       2.2379332400     3.1180233648    -0.0263432943
   23      H      -1.5149278036    -2.6148114609    -0.0571199327
   24      H      -2.9031985356     1.4614562949    -0.2619779156
   25      H      -3.6873070297    -1.0798856342     0.0498930229
   26      H      -2.9614391296    -0.9004789571    -1.5740733603
   27      H      -1.8543079245     1.0605811629     2.1458617183
   28      H      -1.0990389143     1.0255575548    -1.8967423250
   29      H      -0.6770898335    -1.1839607373    -1.9664302287
 ----------------------------------------------------------------
 Nuclear Repulsion Energy =  1090.7885940523 hartrees
 There are       56 alpha and       56 beta electrons
 Applying Cartesian multipole field
    Component          Value
    ---------          -----
     (2,0,0)        1.00000E-11
     (0,2,0)        2.00000E-11
     (0,0,2)       -3.00000E-11
 Nucleus-field energy     =     0.0000000213 hartrees
 Requested basis set is 6-311++G(d,p)
 There are 160 shells and 428 basis functions
 A cutoff of  1.0D-11 yielded  10803 shell pairs
 There are     79153 function pairs (     84620 Cartesian)
 Smallest overlap matrix eigenvalue = 1.25E-06

 Q-Chem warning in module /fs/scratch/osu6415/qchem-kaunlao-vdw/stvman/mkSTV.C, line 281:

 Overlap eigenvalue is smaller than square root of threshold

 Guess MOs from SCF MO coefficient file
 Reading MOs from coefficient file
 Reading MOs from coefficient file
 A restricted hybrid HF-DFT SCF calculation will be
 performed using Pulay DIIS extrapolation
 Exchange:     0.2000 Hartree-Fock + 0.0800 Slater + 0.7200 B88
 Correlation:  0.1900 VWN1RPA + 0.8100 LYP
 Using SG-1 standard quadrature grid
 Dispersion:   Grimme D3
 SCF converges when DIIS error is below 1.0E-08
 Geometry optimization detected.  Setting ReadMinima to 0
 Setting SaveMinima to 0
 using 20 threads for integral computing
 -------------------------------------------------------
 OpenMP Integral computing Module                
 Release: version 1.0, May 2013, Q-Chem Inc. Pittsburgh 
 -------------------------------------------------------
 -------------------------------------------------------
 OpenMP BLAS3 based DFT computing Module                
 Release: version 1.0, May 2013, Q-Chem Inc. Pittsburgh 
 -------------------------------------------------------
 ---------------------------------------
  Cycle       Energy         DIIS Error
 ---------------------------------------
    1    -728.7066844545      1.05E-03
    2    -728.7060768231      1.30E-04
    3    -728.7056764581      2.03E-04
    4    -728.7064614877      4.47E-05
    5    -728.7064891809      1.80E-05
    6    -728.7064948369      4.63E-06
    7    -728.7064950926      2.85E-06
    8    -728.7064952679      6.09E-07
    9    -728.7064952744      2.48E-07
   10    -728.7064952750      6.88E-08
   11    -728.7064952750      3.84E-08
   12    -728.7064952755      7.45E-09 Convergence criterion met
 ---------------------------------------
 SCF time:  CPU 685.61 s  wall 38.90 s
 SCF   energy in the final basis set = -728.70649528
 Total energy in the final basis set = -728.70649528
 
 --------------------------------------------------------------
 
                    Orbital Energies (a.u.)
 --------------------------------------------------------------
 
 Alpha MOs
 -- Occupied --
-19.178 -19.170 -19.115 -19.110 -10.308 -10.303 -10.233 -10.229
-10.208 -10.203 -10.194 -10.194 -10.180 -10.175 -10.173  -1.120
 -1.111  -1.029  -1.022  -0.902  -0.788  -0.764  -0.738  -0.724
 -0.707  -0.641  -0.589  -0.577  -0.570  -0.541  -0.537  -0.524
 -0.501  -0.494  -0.482  -0.476  -0.468  -0.456  -0.441  -0.426
 -0.411  -0.402  -0.400  -0.391  -0.381  -0.368  -0.363  -0.359
 -0.351  -0.345  -0.325  -0.320  -0.307  -0.286  -0.279  -0.255
 -- Virtual --
 -0.015  -0.011  -0.009  -0.002   0.001   0.005   0.011   0.018
  0.020   0.028   0.032   0.036   0.043   0.047   0.050   0.054
  0.057   0.070   0.078   0.080   0.089   0.093   0.097   0.100
  0.106   0.109   0.110   0.112   0.115   0.117   0.119   0.124
  0.126   0.130   0.134   0.136   0.137   0.142   0.147   0.150
  0.150   0.153   0.156   0.161   0.162   0.164   0.164   0.171
  0.174   0.177   0.182   0.186   0.193   0.194   0.201   0.202
  0.205   0.211   0.217   0.221   0.227   0.227   0.236   0.241
  0.242   0.246   0.257   0.262   0.263   0.273   0.274   0.276
  0.288   0.292   0.298   0.300   0.308   0.313   0.317   0.322
  0.329   0.330   0.332   0.335   0.339   0.347   0.353   0.355
  0.360   0.363   0.366   0.368   0.378   0.380   0.386   0.397
  0.398   0.404   0.415   0.424   0.433   0.445   0.452   0.454
  0.473   0.488   0.496   0.507   0.511   0.520   0.529   0.534
  0.546   0.549   0.577   0.592   0.596   0.602   0.610   0.624
  0.631   0.638   0.644   0.649   0.653   0.668   0.670   0.675
  0.685   0.687   0.696   0.701   0.703   0.711   0.721   0.727
  0.735   0.741   0.747   0.750   0.757   0.764   0.773   0.778
  0.785   0.797   0.806   0.829   0.831   0.848   0.861   0.874
  0.898   0.910   0.924   0.946   0.963   1.014   1.017   1.030
  1.032   1.051   1.056   1.083   1.085   1.107   1.121   1.156
  1.163   1.168   1.181   1.196   1.207   1.218   1.242   1.253
  1.256   1.282   1.286   1.295   1.301   1.337   1.346   1.370
  1.379   1.383   1.403   1.420   1.434   1.442   1.449   1.455
  1.474   1.494   1.498   1.533   1.536   1.561   1.571   1.576
  1.583   1.583   1.588   1.609   1.622   1.623   1.643   1.655
  1.672   1.676   1.683   1.706   1.712   1.721   1.724   1.731
  1.743   1.751   1.761   1.776   1.793   1.804   1.811   1.814
  1.826   1.851   1.857   1.881   1.885   1.898   1.910   1.918
  1.928   1.934   1.950   1.972   1.983   1.990   2.025   2.032
  2.041   2.046   2.076   2.086   2.107   2.121   2.131   2.172
  2.183   2.191   2.199   2.207   2.229   2.242   2.254   2.287
  2.321   2.339   2.359   2.384   2.409   2.434   2.452   2.469
  2.492   2.501   2.503   2.527   2.536   2.543   2.552   2.577
  2.587   2.598   2.624   2.637   2.657   2.668   2.677   2.706
  2.721   2.742   2.779   2.788   2.810   2.821   2.834   2.844
  2.858   2.873   2.883   2.899   2.905   2.920   2.932   2.981
  2.997   3.001   3.018   3.025   3.045   3.047   3.057   3.082
  3.104   3.110   3.133   3.149   3.167   3.212   3.220   3.242
  3.247   3.271   3.306   3.311   3.340   3.373   3.389   3.417
  3.469   3.583   3.602   3.620   3.696   3.731   3.775   3.780
  3.781   3.852   3.866   3.917   4.005   4.051   4.068   4.084
  4.123   4.155   4.165   4.178   4.190   4.223   4.268   4.349
  4.438   5.034   5.074   5.109   5.136   5.245   5.254   5.444
  5.463   5.627   5.646   5.881   5.884  23.792  23.846  23.856
 23.870  23.890  23.915  23.935  23.941  23.998  24.031  24.307
 49.917  49.941  50.032  50.043
 --------------------------------------------------------------
 
          Ground-State Mulliken Net Atomic Charges

     Atom                 Charge (a.u.)
  ----------------------------------------
      1 C                     0.255242
      2 C                     0.012215
      3 C                    -0.511274
      4 C                    -0.612715
      5 O                    -0.071341
      6 O                    -0.214535
      7 O                     0.020110
      8 O                    -0.197610
      9 C                    -0.206531
     10 C                    -0.199811
     11 C                     0.176458
     12 C                    -0.219362
     13 C                    -0.574411
     14 C                     0.432773
     15 C                    -0.750155
     16 H                     0.173609
     17 H                     0.186488
     18 H                     0.144785
     19 H                     0.152180
     20 H                     0.178262
     21 H                     0.127612
     22 H                     0.183736
     23 H                     0.266165
     24 H                     0.279211
     25 H                     0.179286
     26 H                     0.124943
     27 H                     0.165522
     28 H                     0.241485
     29 H                     0.257661
  ----------------------------------------
  Sum of atomic charges =    -0.000000

 -----------------------------------------------------------------
                    Cartesian Multipole Moments
 -----------------------------------------------------------------
    Charge (ESU x 10^10)
                -0.0000
    Dipole Moment (Debye)
         X       0.3307      Y      -1.2976      Z       1.8371
       Tot       2.2734
    Quadrupole Moments (Debye-Ang)
        XX     -82.6083     XY       5.1087     YY     -92.9475
        XZ      10.0711     YZ      -1.6778     ZZ     -89.7311
    Octopole Moments (Debye-Ang^2)
       XXX      40.6842    XXY       9.2584    XYY      27.3807
       YYY     -30.2765    XXZ      13.7853    XYZ      -9.3852
       YYZ       8.5106    XZZ      -1.4914    YZZ      11.3509
       ZZZ      11.5187
    Hexadecapole Moments (Debye-Ang^3)
      XXXX   -1668.4349   XXXY       9.9743   XXYY    -466.3544
      XYYY      54.7211   YYYY   -1416.9218   XXXZ      47.9846
      XXYZ     -20.7344   XYYZ      14.4368   YYYZ     -21.0029
      XXZZ    -399.9796   XYZZ      12.3733   YYZZ    -304.6646
      XZZZ      26.2594   YZZZ     -38.0042   ZZZZ    -538.0712
 -----------------------------------------------------------------
 Calculating analytic gradient of the SCF energy
 Gradient of SCF Energy
            1           2           3           4           5           6
    1   0.0001790  -0.0010191  -0.0003449   0.0011052  -0.0000884   0.0001167
    2   0.0000877  -0.0010196  -0.0000261   0.0013955  -0.0003409  -0.0001454
    3   0.0036980  -0.0036532   0.0002654  -0.0006166   0.0004503  -0.0001306
            7           8           9          10          11          12
    1   0.0007999  -0.0007051   0.0001612   0.0001706   0.0010106  -0.0017966
    2   0.0005120  -0.0018383  -0.0000611  -0.0001023   0.0000706  -0.0000160
    3  -0.0000959   0.0002503   0.0000415   0.0002225  -0.0002953  -0.0002854
           13          14          15          16          17          18
    1   0.0006781  -0.0003227   0.0004811  -0.0000090  -0.0000653  -0.0001087
    2   0.0018922  -0.0000987  -0.0006982   0.0000373   0.0000896   0.0002335
    3   0.0000498   0.0006366  -0.0000642  -0.0000674   0.0000361  -0.0001129
           19          20          21          22          23          24
    1  -0.0000084   0.0000140  -0.0000565  -0.0000283   0.0000007  -0.0000168
    2   0.0000051  -0.0000372  -0.0000041  -0.0000382  -0.0000112  -0.0000630
    3  -0.0000349   0.0000208  -0.0000157   0.0000401  -0.0000306  -0.0001871
           25          26          27          28          29
    1   0.0001516   0.0000914  -0.0001375  -0.0000477  -0.0002054
    2  -0.0004154   0.0002103   0.0000461   0.0002866   0.0000490
    3  -0.0000494  -0.0001461   0.0000001   0.0002096  -0.0001357
 Max gradient component =       3.698E-03
 RMS gradient           =       7.472E-04
 Gradient time:  CPU 257.41 s  wall 18.42 s
 Geometry Optimization Parameters
   NAtoms,    NIC,     NZ,  NCons,   NDum,   NFix, NCnnct, MaxDiis
       29     227       0       0       0       0       0       0

 Cartesian Hessian Update
 Hessian Updated using Powell/Murtagh-Sargent Update
  Mixing factors:     0.000038 Powell
                      0.999962 Murtagh-Sargent


** GEOMETRY OPTIMIZATION IN DELOCALIZED INTERNAL COORDINATES **
   Searching for a Transition State

   Optimization Cycle:   2

                       Coordinates (Angstroms)
     ATOM                X               Y               Z
      1  C        -0.9018102381    0.6678564208   -0.8821250255
      2  C        -0.4723907058   -0.8475861237   -0.9483793388
      3  C        -0.0041785778    1.7277372815   -0.2708349509
      4  C         0.9860536367   -1.2123718414   -0.7468148958
      5  O         1.2241515594    1.2949534326    0.0516858002
      6  O        -0.3718056126    2.8668125291   -0.1014911693
      7  O         1.2902521009   -1.5212556899    0.5291017067
      8  O         1.7797721226   -1.2972340807   -1.6534675855
      9  C         2.6659510797   -1.8485150933    0.7800345130
     10  C         2.1106003552    2.2645512515    0.6401852915
     11  C        -2.2656086689    0.5990355353   -0.0836593078
     12  C        -1.8720633706    0.3201343336    1.3573540462
     13  C        -1.3969518661   -0.9290620883    1.3999826496
     14  C        -1.5231806868   -1.5271438524    0.0034372299
     15  C        -2.7889748899   -0.7936877208   -0.4987509398
     16  H         2.9680836518   -2.7199224098    0.1970627532
     17  H         1.7114007368    2.6089120005    1.5954030903
     18  H        -0.9214259253   -1.4228448637    2.2345480034
     19  H         2.7262921842   -2.0586297980    1.8458123535
     20  H         3.3070010827   -1.0053677438    0.5168480852
     21  H         3.0546254725    1.7437006331    0.7824805059
     22  H         2.2379332400    3.1180233648   -0.0263432943
     23  H        -1.5149278036   -2.6148114609   -0.0571199327
     24  H        -2.9031985356    1.4614562949   -0.2619779156
     25  H        -3.6873070297   -1.0798856342    0.0498930229
     26  H        -2.9614391296   -0.9004789571   -1.5740733603
     27  H        -1.8543079245    1.0605811629    2.1458617183
     28  H        -1.0990389143    1.0255575548   -1.8967423250
     29  H        -0.6770898335   -1.1839607373   -1.9664302287
   Point Group: c1    Number of degrees of freedom:    81


   Energy is   -728.706495275

 Hessian Updated using Powell/Murtagh-Sargent Update
  Mixing factors:     0.867305 Powell
                      0.132695 Murtagh-Sargent

 80 Hessian modes will be used to form the next step
  Hessian Eigenvalues:
     0.003606    0.006888    0.009856    0.010417    0.010863    0.011035
     0.012395    0.012806    0.016810    0.017321    0.019978    0.022584
     0.023360    0.024067    0.030801    0.039083    0.039713    0.043236
     0.046028    0.047141    0.050120    0.053868    0.054649    0.058148
     0.058735    0.068236    0.075281    0.093480    0.099362    0.101443
     0.101449    0.105929    0.106075    0.114511    0.122551    0.147199
     0.156891    0.158741    0.160000    0.160000    0.160000    0.160000
     0.160007    0.175792    0.226129    0.229583    0.241373    0.249592
     0.249995    0.250000    0.250000    0.250000    0.251250    0.253466
     0.254897    0.272552    0.298116    0.306120    0.307150    0.343220
     0.343827    0.346350    0.346537    0.346863    0.346919    0.347164
     0.347709    0.348840    0.350487    0.350999    0.351337    0.357761
     0.359934    0.396503    0.401147    0.513268    0.555445    0.568303
     1.004989    1.009187
**WARNING** Hessian does not have the Desired Local Structure

 Transition State Search - Taking P-RFO Step
 Searching for Lamda that Maximizes Along the Lowest mode
 Value Taken    Lamda =   0.00360901
 Searching for Lamda that Minimizes Along All other modes
 Value Taken    Lamda =  -0.00112130
 Calculated Step too Large.  Step scaled by  0.008036
 Step Taken.  Stepsize is  0.300000

                             Maximum     Tolerance    Cnvgd?
         Gradient           0.003283      0.000001      NO
         Displacement       0.095538      0.000001      NO
         Energy change      0.000490      0.000000      NO


 New Cartesian Coordinates Obtained by Inverse Iteration

 Displacement from previous Coordinates is:  0.624518
 Adding empirical dispersion correction 
 ----------------------------------------------------------------
 Doing -D3(op) with
 s6 =   1.00000
 s8 =   0.78311
 a1 =   0.30000
 a2 =   4.25000
 n  =  10.00000
 -D3 energy without 3body term =     -0.0337778536 hartrees
 ----------------------------------------------------------------
             Standard Nuclear Orientation (Angstroms)
    I     Atom           X                Y                Z
 ----------------------------------------------------------------
    1      C      -0.8967622518     0.6716728827    -0.8845363086
    2      C      -0.4628144319    -0.8421910202    -0.9341141873
    3      C      -0.0179044844     1.7298851750    -0.2429697984
    4      C       0.9970765059    -1.2044237898    -0.7477746225
    5      O       1.2252145959     1.3174690420     0.0475212773
    6      O      -0.4026598582     2.8599071645    -0.0522840795
    7      O       1.2925036597    -1.5905668937     0.5090233604
    8      O       1.7957759493    -1.2323075568    -1.6537602457
    9      C       2.6677543785    -1.9252638152     0.7517727796
   10      C       2.0995198028     2.2925658263     0.6448777518
   11      C      -2.2782946322     0.5969366203    -0.1148885472
   12      C      -1.8970719646     0.3647161366     1.3382147244
   13      C      -1.3952069870    -0.8727417744     1.4168293955
   14      C      -1.5003934112    -1.5125128842     0.0371045842
   15      C      -2.7748578704    -0.8162400919    -0.4941241727
   16      H       2.9794513789    -2.7594652965     0.1213247959
   17      H       1.7089337586     2.6042557176     1.6147205780
   18      H      -0.9159792340    -1.3345899249     2.2676662369
   19      H       2.7205268209    -2.1973036499     1.8038627463
   20      H       3.3062798402    -1.0649204142     0.5437759856
   21      H       3.0572938783     1.7901763251     0.7590899665
   22      H       2.1964712185     3.1648372459    -0.0022120918
   23      H      -1.4707499570    -2.6011787144     0.0122364426
   24      H      -2.9281815879     1.4416813063    -0.3296460734
   25      H      -3.6719669077    -1.1010799640     0.0572758057
   26      H      -2.9394490186    -0.9563450910    -1.5667619996
   27      H      -1.8995838428     1.1264178651     2.1063684091
   28      H      -1.0617484402     1.0360247614    -1.9026260970
   29      H      -0.6867593979    -1.1888614879    -1.9444861159
 ----------------------------------------------------------------
 Nuclear Repulsion Energy =  1089.7046357916 hartrees
 There are       56 alpha and       56 beta electrons
 Applying Cartesian multipole field
    Component          Value
    ---------          -----
     (2,0,0)        1.00000E-11
     (0,2,0)        2.00000E-11
     (0,0,2)       -3.00000E-11
 Nucleus-field energy     =     0.0000000217 hartrees
 Requested basis set is 6-311++G(d,p)
 There are 160 shells and 428 basis functions
 A cutoff of  1.0D-11 yielded  10795 shell pairs
 There are     79105 function pairs (     84570 Cartesian)
 Smallest overlap matrix eigenvalue = 1.26E-06

 Q-Chem warning in module /fs/scratch/osu6415/qchem-kaunlao-vdw/stvman/mkSTV.C, line 281:

 Overlap eigenvalue is smaller than square root of threshold

 Guess MOs from SCF MO coefficient file
 Reading MOs from coefficient file
 Reading MOs from coefficient file
 A restricted hybrid HF-DFT SCF calculation will be
 performed using Pulay DIIS extrapolation
 Exchange:     0.2000 Hartree-Fock + 0.0800 Slater + 0.7200 B88
 Correlation:  0.1900 VWN1RPA + 0.8100 LYP
 Using SG-1 standard quadrature grid
 Dispersion:   Grimme D3
 SCF converges when DIIS error is below 1.0E-08
 Geometry optimization detected.  Setting ReadMinima to 0
 Setting SaveMinima to 0
 using 20 threads for integral computing
 -------------------------------------------------------
 OpenMP Integral computing Module                
 Release: version 1.0, May 2013, Q-Chem Inc. Pittsburgh 
 -------------------------------------------------------
 -------------------------------------------------------
 OpenMP BLAS3 based DFT computing Module                
 Release: version 1.0, May 2013, Q-Chem Inc. Pittsburgh 
 -------------------------------------------------------
 ---------------------------------------
  Cycle       Energy         DIIS Error
 ---------------------------------------
    1    -728.7012903027      9.63E-04
    2    -728.7058892424      1.01E-04
    3    -728.7057083278      1.52E-04
    4    -728.7061401775      3.69E-05
    5    -728.7061597423      1.43E-05
    6    -728.7061631496      4.48E-06
    7    -728.7061634487      2.03E-06
    8    -728.7061635346      4.67E-07
    9    -728.7061635390      1.71E-07
   10    -728.7061635392      6.75E-08
   11    -728.7061635398      3.64E-08
   12    -728.7061635408      8.72E-09 Convergence criterion met
 ---------------------------------------
 SCF time:  CPU 679.49 s  wall 39.19 s
 SCF   energy in the final basis set = -728.70616354
 Total energy in the final basis set = -728.70616354
 
 --------------------------------------------------------------
 
                    Orbital Energies (a.u.)
 --------------------------------------------------------------
 
 Alpha MOs
 -- Occupied --
-19.178 -19.171 -19.115 -19.110 -10.308 -10.303 -10.232 -10.229
-10.208 -10.203 -10.194 -10.194 -10.179 -10.175 -10.173  -1.120
 -1.111  -1.029  -1.022  -0.902  -0.788  -0.764  -0.738  -0.724
 -0.707  -0.641  -0.589  -0.576  -0.570  -0.541  -0.536  -0.524
 -0.501  -0.493  -0.482  -0.477  -0.469  -0.456  -0.442  -0.427
 -0.411  -0.402  -0.399  -0.390  -0.381  -0.368  -0.362  -0.359
 -0.351  -0.346  -0.325  -0.320  -0.308  -0.285  -0.279  -0.255
 -- Virtual --
 -0.015  -0.011  -0.009  -0.001   0.001   0.005   0.012   0.018
  0.021   0.029   0.032   0.036   0.042   0.047   0.050   0.054
  0.057   0.070   0.079   0.081   0.089   0.091   0.098   0.100
  0.106   0.108   0.110   0.112   0.115   0.118   0.120   0.124
  0.126   0.130   0.134   0.135   0.137   0.142   0.147   0.149
  0.150   0.152   0.157   0.160   0.161   0.164   0.165   0.171
  0.173   0.178   0.181   0.186   0.192   0.195   0.200   0.203
  0.204   0.213   0.219   0.221   0.227   0.228   0.235   0.239
  0.243   0.247   0.258   0.261   0.263   0.273   0.274   0.278
  0.288   0.292   0.298   0.302   0.307   0.314   0.316   0.323
  0.329   0.330   0.331   0.335   0.340   0.348   0.351   0.355
  0.360   0.363   0.367   0.369   0.378   0.379   0.386   0.397
  0.401   0.405   0.411   0.423   0.432   0.445   0.450   0.451
  0.473   0.488   0.498   0.506   0.512   0.518   0.531   0.534
  0.548   0.550   0.578   0.594   0.596   0.602   0.612   0.624
  0.630   0.636   0.643   0.650   0.654   0.667   0.670   0.675
  0.683   0.685   0.693   0.702   0.703   0.711   0.722   0.726
  0.735   0.743   0.747   0.750   0.758   0.763   0.773   0.776
  0.785   0.795   0.805   0.827   0.831   0.845   0.860   0.875
  0.895   0.909   0.926   0.950   0.967   1.010   1.020   1.030
  1.035   1.051   1.057   1.083   1.088   1.105   1.116   1.153
  1.163   1.165   1.180   1.201   1.211   1.220   1.238   1.252
  1.258   1.282   1.287   1.294   1.300   1.341   1.348   1.361
  1.376   1.381   1.403   1.416   1.431   1.441   1.446   1.455
  1.471   1.495   1.500   1.535   1.537   1.561   1.570   1.578
  1.580   1.582   1.591   1.610   1.622   1.625   1.642   1.649
  1.670   1.680   1.684   1.707   1.710   1.720   1.726   1.732
  1.741   1.750   1.765   1.773   1.792   1.805   1.812   1.815
  1.826   1.854   1.858   1.883   1.886   1.900   1.908   1.921
  1.925   1.935   1.951   1.974   1.982   1.989   2.024   2.032
  2.040   2.047   2.074   2.086   2.105   2.119   2.131   2.169
  2.181   2.190   2.198   2.206   2.231   2.239   2.256   2.284
  2.318   2.340   2.361   2.385   2.411   2.436   2.448   2.469
  2.492   2.500   2.504   2.527   2.536   2.543   2.557   2.576
  2.584   2.600   2.623   2.637   2.653   2.667   2.678   2.705
  2.723   2.742   2.782   2.791   2.813   2.822   2.833   2.844
  2.857   2.876   2.880   2.896   2.904   2.920   2.931   2.980
  2.996   3.001   3.015   3.027   3.041   3.044   3.061   3.079
  3.096   3.109   3.135   3.147   3.167   3.216   3.219   3.246
  3.252   3.270   3.303   3.311   3.338   3.373   3.390   3.413
  3.469   3.584   3.603   3.620   3.698   3.737   3.775   3.779
  3.782   3.851   3.866   3.918   3.998   4.052   4.069   4.083
  4.122   4.153   4.162   4.178   4.194   4.224   4.272   4.348
  4.440   5.039   5.072   5.108   5.133   5.247   5.256   5.438
  5.459   5.627   5.647   5.881   5.884  23.793  23.844  23.856
 23.870  23.894  23.915  23.935  23.941  23.999  24.031  24.305
 49.917  49.936  50.032  50.042
 --------------------------------------------------------------
 
          Ground-State Mulliken Net Atomic Charges

     Atom                 Charge (a.u.)
  ----------------------------------------
      1 C                     0.237226
      2 C                     0.067008
      3 C                    -0.506430
      4 C                    -0.653871
      5 O                    -0.065670
      6 O                    -0.212903
      7 O                     0.016116
      8 O                    -0.198186
      9 C                    -0.200770
     10 C                    -0.200806
     11 C                     0.163638
     12 C                    -0.204830
     13 C                    -0.579988
     14 C                     0.435314
     15 C                    -0.755506
     16 H                     0.172762
     17 H                     0.186440
     18 H                     0.144515
     19 H                     0.151143
     20 H                     0.177305
     21 H                     0.131277
     22 H                     0.182890
     23 H                     0.267418
     24 H                     0.277717
     25 H                     0.179091
     26 H                     0.123958
     27 H                     0.168422
     28 H                     0.241249
     29 H                     0.255471
  ----------------------------------------
  Sum of atomic charges =    -0.000000

 -----------------------------------------------------------------
                    Cartesian Multipole Moments
 -----------------------------------------------------------------
    Charge (ESU x 10^10)
                -0.0000
    Dipole Moment (Debye)
         X       0.3612      Y      -1.3710      Z       1.7794
       Tot       2.2751
    Quadrupole Moments (Debye-Ang)
        XX     -82.7841     XY       4.8447     YY     -92.3892
        XZ      10.1262     YZ      -1.6265     ZZ     -89.7264
    Octopole Moments (Debye-Ang^2)
       XXX      40.7493    XXY       7.8621    XYY      29.2457
       YYY     -30.8419    XXZ      13.6825    XYZ      -8.6410
       YYZ       6.8608    XZZ      -1.6848    YZZ      10.4515
       ZZZ      10.7866
    Hexadecapole Moments (Debye-Ang^3)
      XXXX   -1669.5349   XXXY      16.1479   XXYY    -466.3170
      XYYY      62.0541   YYYY   -1429.0100   XXXZ      51.8185
      XXYZ     -20.8068   XYYZ      15.2815   YYYZ     -24.7986
      XXZZ    -400.1230   XYZZ      14.0632   YYZZ    -304.7103
      XZZZ      29.7158   YZZZ     -39.3319   ZZZZ    -534.4022
 -----------------------------------------------------------------
 Calculating analytic gradient of the SCF energy
 Gradient of SCF Energy
            1           2           3           4           5           6
    1   0.0005804  -0.0005436  -0.0013948   0.0009688   0.0002049   0.0004219
    2   0.0006281  -0.0012648  -0.0012676   0.0012539   0.0009487   0.0000517
    3   0.0029024  -0.0047054   0.0032004   0.0012438  -0.0006982  -0.0012102
            7           8           9          10          11          12
    1   0.0006734  -0.0005379  -0.0002192   0.0000110   0.0009740  -0.0018579
    2  -0.0008367  -0.0018141  -0.0000497  -0.0001013  -0.0000902   0.0004265
    3  -0.0005614  -0.0005479   0.0000404   0.0000877  -0.0001047  -0.0006569
           13          14          15          16          17          18
    1   0.0004476   0.0000053   0.0007267   0.0000678  -0.0000532  -0.0000486
    2   0.0016495   0.0001601  -0.0010123   0.0000787   0.0000057   0.0002538
    3   0.0001348   0.0009903  -0.0000542  -0.0000518   0.0000173  -0.0001175
           19          20          21          22          23          24
    1  -0.0000439   0.0000105  -0.0000174   0.0000182   0.0001496  -0.0000579
    2   0.0000155  -0.0000328   0.0000370   0.0000652  -0.0000863  -0.0001443
    3  -0.0000129  -0.0000782   0.0000265   0.0000964   0.0003321  -0.0007242
           25          26          27          28          29
    1   0.0002411   0.0000707  -0.0000070   0.0001529  -0.0009434
    2  -0.0005534   0.0003029   0.0000825   0.0008716   0.0004223
    3   0.0000118  -0.0001452   0.0000692   0.0003718   0.0001437
 Max gradient component =       4.705E-03
 RMS gradient           =       9.184E-04
 Gradient time:  CPU 256.88 s  wall 19.37 s
 Geometry Optimization Parameters
   NAtoms,    NIC,     NZ,  NCons,   NDum,   NFix, NCnnct, MaxDiis
       29     227       0       0       0       0       0       0

 Cartesian Hessian Update
 Hessian Updated using Powell/Murtagh-Sargent Update
  Mixing factors:     0.199857 Powell
                      0.800143 Murtagh-Sargent


** GEOMETRY OPTIMIZATION IN DELOCALIZED INTERNAL COORDINATES **
   Searching for a Transition State

   Optimization Cycle:   3

                       Coordinates (Angstroms)
     ATOM                X               Y               Z
      1  C        -0.8967622518    0.6716728827   -0.8845363086
      2  C        -0.4628144319   -0.8421910202   -0.9341141873
      3  C        -0.0179044844    1.7298851750   -0.2429697984
      4  C         0.9970765059   -1.2044237898   -0.7477746225
      5  O         1.2252145959    1.3174690420    0.0475212773
      6  O        -0.4026598582    2.8599071645   -0.0522840795
      7  O         1.2925036597   -1.5905668937    0.5090233604
      8  O         1.7957759493   -1.2323075568   -1.6537602457
      9  C         2.6677543785   -1.9252638152    0.7517727796
     10  C         2.0995198028    2.2925658263    0.6448777518
     11  C        -2.2782946322    0.5969366203   -0.1148885472
     12  C        -1.8970719646    0.3647161366    1.3382147244
     13  C        -1.3952069870   -0.8727417744    1.4168293955
     14  C        -1.5003934112   -1.5125128842    0.0371045842
     15  C        -2.7748578704   -0.8162400919   -0.4941241727
     16  H         2.9794513789   -2.7594652965    0.1213247959
     17  H         1.7089337586    2.6042557176    1.6147205780
     18  H        -0.9159792340   -1.3345899249    2.2676662369
     19  H         2.7205268209   -2.1973036499    1.8038627463
     20  H         3.3062798402   -1.0649204142    0.5437759856
     21  H         3.0572938783    1.7901763251    0.7590899665
     22  H         2.1964712185    3.1648372459   -0.0022120918
     23  H        -1.4707499570   -2.6011787144    0.0122364426
     24  H        -2.9281815879    1.4416813063   -0.3296460734
     25  H        -3.6719669077   -1.1010799640    0.0572758057
     26  H        -2.9394490186   -0.9563450910   -1.5667619996
     27  H        -1.8995838428    1.1264178651    2.1063684091
     28  H        -1.0617484402    1.0360247614   -1.9026260970
     29  H        -0.6867593979   -1.1888614879   -1.9444861159
   Point Group: c1    Number of degrees of freedom:    81


   Energy is   -728.706163541

 Hessian Updated using Powell/Murtagh-Sargent Update
  Mixing factors:     0.979105 Powell
                      0.020895 Murtagh-Sargent

 77 Hessian modes will be used to form the next step
  Hessian Eigenvalues:
     0.000135    0.006912    0.010224    0.010440    0.010881    0.011184
     0.012788    0.015505    0.016979    0.017424    0.019994    0.022587
     0.023385    0.024492    0.031123    0.039093    0.039715    0.043308
     0.046035    0.047212    0.050310    0.053871    0.054661    0.058218
     0.058776    0.068236    0.075296    0.093541    0.099391    0.101443
     0.101450    0.105930    0.106079    0.114516    0.122564    0.149299
     0.156896    0.158744    0.160000    0.160000    0.160025    0.175871
     0.226425    0.229641    0.241375    0.249605    0.249995    0.250000
     0.250616    0.251322    0.253467    0.254934    0.272552    0.298117
     0.306127    0.307151    0.343220    0.343827    0.346356    0.346537
     0.346863    0.346919    0.347164    0.347710    0.348841    0.350487
     0.350999    0.351338    0.357762    0.359934    0.396503    0.401161
     0.513310    0.555452    0.568329    1.004990    1.009225
**WARNING** Hessian does not have the Desired Local Structure

 Transition State Search - Taking P-RFO Step
 Searching for Lamda that Maximizes Along the Lowest mode
 Value Taken    Lamda =   0.00036836
 Searching for Lamda that Minimizes Along All other modes
 Value Taken    Lamda =  -0.00152016
 Calculated Step too Large.  Step scaled by  0.231858
 Step Taken.  Stepsize is  0.300000

                             Maximum     Tolerance    Cnvgd?
         Gradient           0.003558      0.000001      NO
         Displacement       0.148466      0.000001      NO
         Energy change      0.000332      0.000000      NO


 New Cartesian Coordinates Obtained by Inverse Iteration

 Displacement from previous Coordinates is:  0.668070
 Adding empirical dispersion correction 
 ----------------------------------------------------------------
 Doing -D3(op) with
 s6 =   1.00000
 s8 =   0.78311
 a1 =   0.30000
 a2 =   4.25000
 n  =  10.00000
 -D3 energy without 3body term =     -0.0342560377 hartrees
 ----------------------------------------------------------------
             Standard Nuclear Orientation (Angstroms)
    I     Atom           X                Y                Z
 ----------------------------------------------------------------
    1      C      -0.9017332563     0.6606263627    -0.9145705558
    2      C      -0.4747868629    -0.8522291660    -0.9352097477
    3      C      -0.0140480540     1.7024400775    -0.2585050300
    4      C       0.9895510107    -1.1996765353    -0.7670698066
    5      O       1.2201203649     1.2648454407     0.0347326388
    6      O      -0.4058256910     2.8149709881     0.0066604007
    7      O       1.2977695777    -1.5935674841     0.4845062343
    8      O       1.7974600417    -1.1431611148    -1.6632875724
    9      C       2.6855646237    -1.8733453727     0.7271989276
   10      C       2.0971909049     2.2061652706     0.6801660374
   11      C      -2.2880565512     0.6009918418    -0.1487402452
   12      C      -1.9016243246     0.4121380894     1.3108479681
   13      C      -1.3923633641    -0.8201121431     1.4223971602
   14      C      -1.4998326820    -1.4998713514     0.0628296838
   15      C      -2.7815628243    -0.8251209864    -0.4808550283
   16      H       3.0333981211    -2.6849961920     0.0862564753
   17      H       1.6941618840     2.4911518005     1.6531436126
   18      H      -0.9081148318    -1.2560653527     2.2842314009
   19      H       2.7469364669    -2.1579666919     1.7754800384
   20      H       3.2880093744    -0.9840771160     0.5337643071
   21      H       3.0454681991     1.6858703434     0.7935384625
   22      H       2.2178122189     3.0977617341     0.0641945438
   23      H      -1.4624285548    -2.5884133286     0.0721163502
   24      H      -2.9423516797     1.4353568607    -0.3886625322
   25      H      -3.6738609251    -1.0932814291     0.0865661072
   26      H      -2.9554108942    -0.9996139286    -1.5468913435
   27      H      -1.9054611002     1.1953306756     2.0568681883
   28      H      -1.0411711710     1.0226726563    -1.9373694497
   29      H      -0.7183925110    -1.2222702485    -1.9328567256
 ----------------------------------------------------------------
 Nuclear Repulsion Energy =  1094.1248772655 hartrees
 There are       56 alpha and       56 beta electrons
 Applying Cartesian multipole field
    Component          Value
    ---------          -----
     (2,0,0)        1.00000E-11
     (0,2,0)        2.00000E-11
     (0,0,2)       -3.00000E-11
 Nucleus-field energy     =     0.0000000209 hartrees
 Requested basis set is 6-311++G(d,p)
 There are 160 shells and 428 basis functions
 A cutoff of  1.0D-11 yielded  10825 shell pairs
 There are     79331 function pairs (     84835 Cartesian)
 Smallest overlap matrix eigenvalue = 1.24E-06

 Q-Chem warning in module /fs/scratch/osu6415/qchem-kaunlao-vdw/stvman/mkSTV.C, line 281:

 Overlap eigenvalue is smaller than square root of threshold

 Guess MOs from SCF MO coefficient file
 Reading MOs from coefficient file
 Reading MOs from coefficient file
 A restricted hybrid HF-DFT SCF calculation will be
 performed using Pulay DIIS extrapolation
 Exchange:     0.2000 Hartree-Fock + 0.0800 Slater + 0.7200 B88
 Correlation:  0.1900 VWN1RPA + 0.8100 LYP
 Using SG-1 standard quadrature grid
 Dispersion:   Grimme D3
 SCF converges when DIIS error is below 1.0E-08
 Geometry optimization detected.  Setting ReadMinima to 0
 Setting SaveMinima to 0
 using 20 threads for integral computing
 -------------------------------------------------------
 OpenMP Integral computing Module                
 Release: version 1.0, May 2013, Q-Chem Inc. Pittsburgh 
 -------------------------------------------------------
 -------------------------------------------------------
 OpenMP BLAS3 based DFT computing Module                
 Release: version 1.0, May 2013, Q-Chem Inc. Pittsburgh 
 -------------------------------------------------------
 ---------------------------------------
  Cycle       Energy         DIIS Error
 ---------------------------------------
    1    -728.6861260248      1.06E-03
    2    -728.7051660739      1.23E-04
    3    -728.7050584790      1.65E-04
    4    -728.7055380805      4.45E-05
    5    -728.7055642323      2.01E-05
    6    -728.7055713517      3.95E-06
    7    -728.7055716142      1.96E-06
    8    -728.7055716885      6.29E-07
    9    -728.7055716967      1.51E-07
   10    -728.7055716975      6.66E-08
   11    -728.7055716976      2.32E-08
   12    -728.7055716960      6.35E-09 Convergence criterion met
 ---------------------------------------
 SCF time:  CPU 673.28 s  wall 40.18 s
 SCF   energy in the final basis set = -728.70557170
 Total energy in the final basis set = -728.70557170
 
 --------------------------------------------------------------
 
                    Orbital Energies (a.u.)
 --------------------------------------------------------------
 
 Alpha MOs
 -- Occupied --
-19.177 -19.170 -19.115 -19.109 -10.307 -10.303 -10.232 -10.229
-10.208 -10.202 -10.194 -10.193 -10.179 -10.174 -10.172  -1.119
 -1.110  -1.028  -1.022  -0.902  -0.788  -0.764  -0.738  -0.723
 -0.707  -0.641  -0.589  -0.576  -0.570  -0.540  -0.536  -0.524
 -0.502  -0.494  -0.481  -0.476  -0.470  -0.456  -0.442  -0.426
 -0.411  -0.402  -0.399  -0.390  -0.380  -0.367  -0.361  -0.359
 -0.351  -0.346  -0.325  -0.320  -0.307  -0.285  -0.279  -0.254
 -- Virtual --
 -0.014  -0.010  -0.008  -0.001  -0.001   0.005   0.012   0.018
  0.020   0.029   0.032   0.036   0.043   0.048   0.050   0.054
  0.057   0.070   0.079   0.081   0.089   0.092   0.098   0.100
  0.106   0.108   0.110   0.112   0.115   0.119   0.120   0.124
  0.126   0.130   0.134   0.135   0.137   0.142   0.146   0.149
  0.150   0.154   0.157   0.159   0.161   0.165   0.166   0.171
  0.174   0.179   0.180   0.186   0.194   0.195   0.201   0.202
  0.206   0.212   0.219   0.222   0.228   0.229   0.236   0.239
  0.245   0.247   0.259   0.262   0.264   0.274   0.277   0.277
  0.288   0.291   0.299   0.301   0.305   0.315   0.318   0.323
  0.329   0.329   0.334   0.335   0.341   0.347   0.350   0.355
  0.361   0.363   0.365   0.370   0.378   0.380   0.387   0.401
  0.405   0.408   0.413   0.422   0.430   0.444   0.451   0.452
  0.474   0.487   0.498   0.507   0.514   0.521   0.532   0.536
  0.549   0.553   0.577   0.595   0.595   0.601   0.615   0.625
  0.630   0.637   0.645   0.650   0.655   0.667   0.671   0.680
  0.682   0.688   0.692   0.703   0.706   0.714   0.723   0.729
  0.737   0.742   0.746   0.750   0.757   0.764   0.773   0.775
  0.787   0.799   0.804   0.823   0.829   0.846   0.858   0.876
  0.895   0.905   0.932   0.951   0.970   1.007   1.026   1.028
  1.030   1.053   1.060   1.087   1.091   1.104   1.130   1.151
  1.168   1.170   1.182   1.203   1.206   1.226   1.244   1.245
  1.260   1.280   1.287   1.294   1.298   1.343   1.351   1.355
  1.374   1.381   1.412   1.426   1.433   1.447   1.448   1.461
  1.472   1.497   1.506   1.537   1.545   1.560   1.567   1.579
  1.582   1.585   1.595   1.613   1.624   1.627   1.644   1.648
  1.667   1.681   1.688   1.706   1.712   1.720   1.728   1.737
  1.741   1.752   1.773   1.775   1.791   1.805   1.815   1.820
  1.828   1.858   1.859   1.885   1.890   1.901   1.908   1.915
  1.928   1.936   1.955   1.972   1.984   1.995   2.025   2.031
  2.044   2.050   2.074   2.088   2.103   2.120   2.133   2.163
  2.176   2.191   2.198   2.208   2.236   2.241   2.256   2.290
  2.317   2.342   2.362   2.387   2.412   2.440   2.454   2.467
  2.494   2.500   2.507   2.528   2.538   2.544   2.560   2.578
  2.590   2.601   2.622   2.638   2.656   2.670   2.678   2.703
  2.727   2.743   2.783   2.792   2.816   2.823   2.834   2.849
  2.862   2.878   2.882   2.897   2.907   2.919   2.933   2.982
  2.996   3.001   3.013   3.027   3.039   3.044   3.061   3.077
  3.096   3.110   3.136   3.149   3.171   3.219   3.222   3.249
  3.256   3.273   3.306   3.314   3.338   3.372   3.392   3.412
  3.471   3.586   3.604   3.617   3.703   3.747   3.776   3.780
  3.782   3.853   3.872   3.918   3.996   4.052   4.069   4.082
  4.122   4.153   4.165   4.177   4.195   4.225   4.278   4.347
  4.443   5.034   5.083   5.113   5.138   5.246   5.257   5.435
  5.468   5.630   5.647   5.882   5.889  23.798  23.843  23.858
 23.871  23.897  23.917  23.935  23.940  23.998  24.031  24.304
 49.915  49.943  50.031  50.043
 --------------------------------------------------------------
 
          Ground-State Mulliken Net Atomic Charges

     Atom                 Charge (a.u.)
  ----------------------------------------
      1 C                     0.191215
      2 C                     0.062523
      3 C                    -0.457828
      4 C                    -0.645080
      5 O                    -0.067925
      6 O                    -0.213020
      7 O                     0.021129
      8 O                    -0.198891
      9 C                    -0.201654
     10 C                    -0.198364
     11 C                     0.163364
     12 C                    -0.196861
     13 C                    -0.588253
     14 C                     0.448315
     15 C                    -0.769271
     16 H                     0.171820
     17 H                     0.185549
     18 H                     0.142780
     19 H                     0.152539
     20 H                     0.176341
     21 H                     0.128408
     22 H                     0.182699
     23 H                     0.268427
     24 H                     0.276696
     25 H                     0.178503
     26 H                     0.123020
     27 H                     0.171102
     28 H                     0.240379
     29 H                     0.252338
  ----------------------------------------
  Sum of atomic charges =     0.000000

 -----------------------------------------------------------------
                    Cartesian Multipole Moments
 -----------------------------------------------------------------
    Charge (ESU x 10^10)
                 0.0000
    Dipole Moment (Debye)
         X       0.3720      Y      -1.4317      Z       1.6956
       Tot       2.2502
    Quadrupole Moments (Debye-Ang)
        XX     -82.7426     XY       4.4989     YY     -92.2563
        XZ      10.2816     YZ      -1.5976     ZZ     -89.7180
    Octopole Moments (Debye-Ang^2)
       XXX      40.9975    XXY       6.9303    XYY      28.5062
       YYY     -30.0855    XXZ      14.0374    XYZ      -7.5729
       YYZ       4.8795    XZZ      -1.5408    YZZ       9.9103
       ZZZ      11.6009
    Hexadecapole Moments (Debye-Ang^3)
      XXXX   -1677.3936   XXXY      16.2134   XXYY    -459.6815
      XYYY      60.7042   YYYY   -1375.2977   XXXZ      51.4608
      XXYZ     -21.1244   XYYZ      13.0939   YYYZ     -30.5717
      XXZZ    -401.9496   XYZZ      14.2336   YYZZ    -295.2730
      XZZZ      29.9698   YZZZ     -42.7073   ZZZZ    -537.0826
 -----------------------------------------------------------------
 Calculating analytic gradient of the SCF energy
 Gradient of SCF Energy
            1           2           3           4           5           6
    1  -0.0006740   0.0000473   0.0016303  -0.0017685  -0.0005111  -0.0016527
    2  -0.0005444   0.0023549   0.0010999  -0.0068197  -0.0025389  -0.0012672
    3   0.0041976  -0.0028390  -0.0060258  -0.0009758   0.0013907   0.0028155
            7           8           9          10          11          12
    1   0.0008655   0.0009731   0.0001288   0.0004144   0.0001590  -0.0013298
    2   0.0023304   0.0023445   0.0000294   0.0000614  -0.0003693   0.0009474
    3   0.0001214   0.0003062   0.0001514   0.0000808  -0.0003810  -0.0011640
           13          14          15          16          17          18
    1   0.0006288   0.0001510   0.0004500  -0.0000667   0.0000692   0.0000039
    2   0.0010505   0.0002890  -0.0010025   0.0000036   0.0000769   0.0001918
    3   0.0000645   0.0010750   0.0003317  -0.0000889   0.0000504  -0.0001097
           19          20          21          22          23          24
    1  -0.0000072   0.0001181  -0.0000744  -0.0001804   0.0003573  -0.0001324
    2   0.0000769   0.0000575  -0.0001266  -0.0000448  -0.0000308  -0.0002805
    3  -0.0000190   0.0000718   0.0000754   0.0000302   0.0006050  -0.0010158
           25          26          27          28          29
    1   0.0002097  -0.0000435   0.0000324   0.0012974  -0.0010955
    2  -0.0004278   0.0003207   0.0001311   0.0016381   0.0004483
    3   0.0000734  -0.0000672   0.0002170   0.0005357   0.0004924
 Max gradient component =       6.820E-03
 RMS gradient           =       1.412E-03
 Gradient time:  CPU 259.78 s  wall 18.98 s
 Geometry Optimization Parameters
   NAtoms,    NIC,     NZ,  NCons,   NDum,   NFix, NCnnct, MaxDiis
       29     227       0       0       0       0       0       0

 Cartesian Hessian Update
 Hessian Updated using Powell/Murtagh-Sargent Update
  Mixing factors:     0.359615 Powell
                      0.640385 Murtagh-Sargent


** GEOMETRY OPTIMIZATION IN DELOCALIZED INTERNAL COORDINATES **
   Searching for a Transition State

   Optimization Cycle:   4

                       Coordinates (Angstroms)
     ATOM                X               Y               Z
      1  C        -0.9017332563    0.6606263627   -0.9145705558
      2  C        -0.4747868629   -0.8522291660   -0.9352097477
      3  C        -0.0140480540    1.7024400775   -0.2585050300
      4  C         0.9895510107   -1.1996765353   -0.7670698066
      5  O         1.2201203649    1.2648454407    0.0347326388
      6  O        -0.4058256910    2.8149709881    0.0066604007
      7  O         1.2977695777   -1.5935674841    0.4845062343
      8  O         1.7974600417   -1.1431611148   -1.6632875724
      9  C         2.6855646237   -1.8733453727    0.7271989276
     10  C         2.0971909049    2.2061652706    0.6801660374
     11  C        -2.2880565512    0.6009918418   -0.1487402452
     12  C        -1.9016243246    0.4121380894    1.3108479681
     13  C        -1.3923633641   -0.8201121431    1.4223971602
     14  C        -1.4998326820   -1.4998713514    0.0628296838
     15  C        -2.7815628243   -0.8251209864   -0.4808550283
     16  H         3.0333981211   -2.6849961920    0.0862564753
     17  H         1.6941618840    2.4911518005    1.6531436126
     18  H        -0.9081148318   -1.2560653527    2.2842314009
     19  H         2.7469364669   -2.1579666919    1.7754800384
     20  H         3.2880093744   -0.9840771160    0.5337643071
     21  H         3.0454681991    1.6858703434    0.7935384625
     22  H         2.2178122189    3.0977617341    0.0641945438
     23  H        -1.4624285548   -2.5884133286    0.0721163502
     24  H        -2.9423516797    1.4353568607   -0.3886625322
     25  H        -3.6738609251   -1.0932814291    0.0865661072
     26  H        -2.9554108942   -0.9996139286   -1.5468913435
     27  H        -1.9054611002    1.1953306756    2.0568681883
     28  H        -1.0411711710    1.0226726563   -1.9373694497
     29  H        -0.7183925110   -1.2222702485   -1.9328567256
   Point Group: c1    Number of degrees of freedom:    81


   Energy is   -728.705571696

 Hessian Updated using Powell/Murtagh-Sargent Update
  Mixing factors:     0.783981 Powell
                      0.216019 Murtagh-Sargent

 79 Hessian modes will be used to form the next step
  Hessian Eigenvalues:
    -0.003697    0.006908    0.010077    0.010435    0.010879    0.011663
     0.012817    0.016715    0.017230    0.019898    0.022483    0.022720
     0.023387    0.031072    0.035412    0.039093    0.040138    0.044106
     0.046170    0.047520    0.052389    0.053892    0.054723    0.058227
     0.058917    0.068259    0.075342    0.093986    0.100045    0.101443
     0.101454    0.105930    0.106079    0.114628    0.122972    0.153521
     0.156916    0.158764    0.160000    0.160000    0.160001    0.160167
     0.175953    0.227705    0.230184    0.241414    0.249606    0.250000
     0.250000    0.250038    0.251206    0.253439    0.254542    0.256539
     0.272564    0.298197    0.307150    0.307637    0.343221    0.343827
     0.346371    0.346539    0.346863    0.346919    0.347164    0.347711
     0.348841    0.350487    0.350999    0.351338    0.357766    0.359934
     0.396509    0.401179    0.513332    0.555454    0.568530    1.004996
     1.009254

 Transition State Search - Taking P-RFO Step
 Searching for Lamda that Maximizes Along the Lowest mode
 Value Taken    Lamda =   0.00017811
 Searching for Lamda that Minimizes Along All other modes
 Value Taken    Lamda =  -0.00180547
 Calculated Step too Large.  Step scaled by  0.868395
 Step Taken.  Stepsize is  0.300000

                             Maximum     Tolerance    Cnvgd?
         Gradient           0.005950      0.000001      NO
         Displacement       0.091870      0.000001      NO
         Energy change      0.000592      0.000000      NO


 New Cartesian Coordinates Obtained by Inverse Iteration

 Displacement from previous Coordinates is:  1.106689
 Adding empirical dispersion correction 
 ----------------------------------------------------------------
 Doing -D3(op) with
 s6 =   1.00000
 s8 =   0.78311
 a1 =   0.30000
 a2 =   4.25000
 n  =  10.00000
 -D3 energy without 3body term =     -0.0336283384 hartrees
 ----------------------------------------------------------------
             Standard Nuclear Orientation (Angstroms)
    I     Atom           X                Y                Z
 ----------------------------------------------------------------
    1      C      -0.8910143675     0.6705992248    -0.8989779001
    2      C      -0.4458364835    -0.8382359633    -0.8979055524
    3      C      -0.0317119665     1.7381446524    -0.2375512227
    4      C       1.0212489936    -1.1654951722    -0.7172516754
    5      O       1.2297624841     1.3578899179     0.0144138782
    6      O      -0.4493308925     2.8445840467     0.0133805922
    7      O       1.2924990441    -1.7080810522     0.4867659787
    8      O       1.8445675158    -1.0500923155    -1.5929124449
    9      C       2.6695763718    -2.0396726764     0.7259235960
   10      C       2.0861007182     2.3445029910     0.6182301792
   11      C      -2.2830264900     0.5991523342    -0.1421983171
   12      C      -1.9143024701     0.4018135529     1.3235358114
   13      C      -1.4095563444    -0.8317977384     1.4385966406
   14      C      -1.4870411163    -1.5003023203     0.0727402967
   15      C      -2.7647443998    -0.8275501887    -0.4861061298
   16      H       3.0196178920    -2.7792808603     0.0041576848
   17      H       1.7004140794     2.6290756727     1.5983445839
   18      H      -0.9449453857    -1.2747801701     2.3077339760
   19      H       2.7016210744    -2.4436621041     1.7356444172
   20      H       3.2902200266    -1.1454422058     0.6489442431
   21      H       3.0581560278     1.8655760249     0.7102333117
   22      H       2.1522372562     3.2295860080    -0.0151927006
   23      H      -1.4437779164    -2.5885553455     0.0710988213
   24      H      -2.9414927879     1.4299305842    -0.3823858099
   25      H      -3.6634463454    -1.0983352364     0.0698887267
   26      H      -2.9259059586    -1.0008366531    -1.5543706509
   27      H      -1.9356459155     1.1797292995     2.0742302241
   28      H      -1.0197510619     1.0149284877    -1.9293977503
   29      H      -0.6680740722    -1.2168390948    -1.8981323079
 ----------------------------------------------------------------
 Nuclear Repulsion Energy =  1088.5232905515 hartrees
 There are       56 alpha and       56 beta electrons
 Applying Cartesian multipole field
    Component          Value
    ---------          -----
     (2,0,0)        1.00000E-11
     (0,2,0)        2.00000E-11
     (0,0,2)       -3.00000E-11
 Nucleus-field energy     =     0.0000000225 hartrees
 Requested basis set is 6-311++G(d,p)
 There are 160 shells and 428 basis functions
 A cutoff of  1.0D-11 yielded  10790 shell pairs
[...]
     0.35460463      0.11753995     -0.23030663
     0.12038043      0.04010574      0.86927027
    -0.00164943      0.00118396      0.00170645
    -0.02967894      0.04445520     -0.13034977
    -0.01108140     -0.01820519     -0.06060078
vibration 69
    -0.00010017      0.00016704     -0.00059363
    -0.00022336     -0.00026813     -0.00114525
    -0.00033460      0.00007403     -0.00004886
    -0.00003877     -0.00068600      0.00298962
     0.00031984      0.00021349      0.00011494
     0.00004331     -0.00004817     -0.00000624
    -0.00239169      0.00071425     -0.00151777
     0.00069083      0.00000479     -0.00071473
    -0.04351652      0.00498402      0.00178579
     0.00223201      0.00368978      0.00249641
    -0.00007038      0.00008450     -0.00001426
    -0.00001852     -0.00000417      0.00003874
    -0.00006167      0.00007313     -0.00010225
     0.00002893      0.00009511     -0.00000595
     0.00066570      0.00021113      0.00105644
     0.18243561     -0.47293602     -0.34322857
     0.02273274     -0.01681010     -0.07038882
     0.00083257     -0.00073446      0.00089172
     0.00270013     -0.10754100      0.43380576
     0.36116239      0.51666731     -0.10957978
    -0.05037600      0.02530162     -0.00057912
    -0.00097902     -0.05552902      0.03980075
     0.00020481     -0.00058628     -0.00006409
     0.00072534     -0.00094907      0.00017164
    -0.00540497     -0.00165237      0.00355849
    -0.00220586     -0.00074454     -0.01603838
     0.00004712     -0.00022557     -0.00035095
     0.00160189     -0.00226980      0.00710075
     0.00113858      0.00371348      0.01172721
vibration 70
    -0.01578908      0.02539786     -0.07175377
     0.00444959      0.00706788      0.02474739
    -0.00064665      0.00062763     -0.00125098
     0.00015719     -0.00000177      0.00074316
     0.00043711      0.00000802      0.00002323
    -0.00000006     -0.00016123      0.00014733
    -0.00000329      0.00005313     -0.00007867
    -0.00008676     -0.00005800     -0.00012961
     0.00054883     -0.00010016     -0.00008136
     0.00152907      0.00320047      0.00204181
     0.00218532     -0.00337493     -0.00015879
     0.00001652     -0.00016827      0.00019322
     0.00019959     -0.00014660     -0.00015906
     0.00010349     -0.00051054      0.00016316
    -0.00501528     -0.00159337     -0.00614370
    -0.00242867      0.00630361      0.00466509
     0.01869799     -0.01407669     -0.05818175
     0.00007213     -0.00036847      0.00082479
     0.00007947      0.00117097     -0.00488336
    -0.00433686     -0.00626948      0.00135998
    -0.03791504      0.01901525     -0.00030106
    -0.00104818     -0.04512634      0.03223710
    -0.00122663      0.00157986      0.00023480
    -0.02578339      0.03904312     -0.00634650
     0.04318282      0.01403102     -0.02765269
     0.01442249      0.00639471      0.10141806
     0.00009636      0.00117130      0.00109394
     0.18792398     -0.29736341      0.86521581
    -0.05124992     -0.08494107     -0.29399493
vibration 71
    -0.00163689      0.00242669     -0.00676121
     0.00033732      0.00052370      0.00174435
     0.00248842     -0.00134846      0.00001046
     0.00000065      0.00008748      0.00036869
    -0.00230167     -0.00113095     -0.00092477
    -0.00031734      0.00086724      0.00024847
    -0.00023301      0.00002764     -0.00013427
     0.00007808     -0.00005306     -0.00009302
    -0.00508675      0.00103007      0.00030585
    -0.01654724     -0.03457592     -0.02091378
     0.00014398     -0.00024895     -0.00006271
    -0.00002163     -0.00000915      0.00002508
     0.00000407     -0.00001445     -0.00000482
     0.00001006     -0.00020337     -0.00002093
    -0.00012867     -0.00002843      0.00016509
     0.02244977     -0.05747303     -0.04181031
    -0.19505259      0.14526754      0.60307783
     0.00006327      0.00002682     -0.00003423
     0.00031319     -0.01256299      0.05040128
     0.04035595      0.05772372     -0.01235329
     0.39531710     -0.20029514      0.00282796
     0.01052549      0.48630763     -0.34721511
    -0.00009837      0.00205391      0.00029486
    -0.00159347      0.00255632     -0.00034777
     0.00133770      0.00033948     -0.00077858
    -0.00003677      0.00014456     -0.00086080
     0.00009767     -0.00006855     -0.00014426
     0.01748265     -0.02811870      0.08134434
    -0.00380265     -0.00600058     -0.02067828
vibration 72
    -0.00518036      0.00818985     -0.02259308
    -0.01305004     -0.02227870     -0.07368826
    -0.00014347      0.00057397     -0.00015600
     0.00099897     -0.00035174     -0.00244881
     0.00005455     -0.00005841     -0.00003411
     0.00001466     -0.00010686     -0.00002979
     0.00001308     -0.00014771      0.00035042
    -0.00033020      0.00010225      0.00078867
     0.00063187     -0.00023671      0.00023416
     0.00001866      0.00009387      0.00030763
     0.00142733     -0.00229827      0.00029743
     0.00005962      0.00008862      0.00003974
    -0.00004933     -0.00005663      0.00046049
    -0.00021190      0.01116562      0.00100224
    -0.00758468     -0.00251880     -0.00059891
    -0.00281516      0.00635383      0.00432633
     0.00133140     -0.00113823     -0.00441980
    -0.00084924      0.00149929     -0.00167175
    -0.00039087      0.00210119     -0.00814906
    -0.00447925     -0.00579756      0.00110293
    -0.00156733      0.00067814     -0.00005720
    -0.00010567     -0.00062239      0.00035329
     0.00209632     -0.13080486     -0.01610428
    -0.01828679      0.02652044     -0.00468243
     0.08300064      0.02745443     -0.04890923
     0.00772094      0.00170608      0.05783073
     0.00037578      0.00049865      0.00074737
     0.06140828     -0.09463284      0.27493623
     0.15134367      0.26036369      0.88429699
vibration 73
     0.00087898     -0.00102200      0.00252381
     0.00159057      0.00281236      0.00923311
     0.00004500      0.00005305      0.00004361
     0.00002488      0.00014367      0.00013617
    -0.00001856     -0.00002698     -0.00001695
     0.00001026     -0.00004523     -0.00003537
    -0.00002492     -0.00002181     -0.00006736
     0.00005751     -0.00004428     -0.00009893
    -0.00007823     -0.00086853     -0.00032735
     0.00012905      0.00006021     -0.00027433
    -0.00017880     -0.00105333      0.00101747
     0.00029265     -0.00040017     -0.00042200
     0.00080367     -0.00101265      0.00061375
    -0.00045222      0.04481433      0.00634240
    -0.04487996     -0.01522849      0.06289680
    -0.00231266      0.00586236      0.00443397
    -0.00078615      0.00058294      0.00235646
    -0.00957412      0.01281515     -0.01587265
    -0.00005773     -0.00027453      0.00060470
     0.00346550      0.00483513     -0.00120434
    -0.00081936      0.00044394     -0.00007205
     0.00000475     -0.00172265      0.00113032
    -0.00288665     -0.52355254     -0.05896422
    -0.00467970      0.00578499     -0.00234559
     0.60457557      0.20115544     -0.35731265
    -0.06757731     -0.02114570     -0.39980311
     0.00038244      0.00076627     -0.00034272
    -0.00622879      0.01129494     -0.03123474
    -0.01589777     -0.03159413     -0.11168085
vibration 74
     0.00022796      0.00101253     -0.00093058
    -0.00040647     -0.00158499     -0.00584245
     0.00015491      0.00012663      0.00007152
     0.00034418     -0.00034864      0.00021862
    -0.00010002     -0.00002088     -0.00003771
    -0.00004736     -0.00006027     -0.00002583
    -0.00008787      0.00010834     -0.00012982
    -0.00019700      0.00007433      0.00004640
     0.00032820      0.00175582      0.00023255
    -0.00005995      0.00019404      0.00013238
     0.00288610     -0.00383857      0.00136626
     0.00009145      0.00008996      0.00034349
    -0.00137989      0.00261870     -0.00160553
    -0.00011509     -0.07142985     -0.00776555
    -0.03360337     -0.01045297      0.03466843
     0.00384538     -0.00967681     -0.00741867
     0.00069065     -0.00062817     -0.00233000
     0.01708706     -0.02185148      0.02555960
    -0.00003068     -0.00011892      0.00170765
    -0.00790250     -0.01105246      0.00266314
     0.00030780     -0.00023746      0.00000113
    -0.00009699     -0.00130445      0.00086508
     0.00301223      0.82802357      0.09010774
    -0.03828291      0.05229664     -0.00892901
     0.42047284      0.13711760     -0.24703196
    -0.02865830     -0.01159879     -0.17315186
    -0.00030141     -0.00262197     -0.00336412
     0.00233181     -0.00285342      0.00837992
     0.00982896      0.01755155      0.06655155
vibration 75
     0.00004668      0.00002155      0.00000916
    -0.00003207     -0.00026845     -0.00016231
    -0.00018762      0.00002219     -0.00004733
     0.00000531      0.00013761      0.00006173
     0.00007910      0.00001799      0.00002098
     0.00004920     -0.00002204     -0.00000144
     0.00001696      0.00031994      0.00004346
    -0.00001075      0.00017765     -0.00001927
    -0.01485479     -0.09143514     -0.01963783
     0.00070233     -0.00202531      0.00178072
     0.00005772     -0.00007677      0.00002225
    -0.00000243      0.00005051      0.00004480
    -0.00001080      0.00005094     -0.00004265
    -0.00002199     -0.00181477     -0.00022005
    -0.00019356     -0.00005238      0.00006226
    -0.22002576      0.53259477      0.40849216
     0.00243720     -0.00198161     -0.00670596
     0.00036916     -0.00065451      0.00057666
    -0.00317383     -0.00885574     -0.04016184
     0.39962430      0.55777532     -0.13517915
    -0.01117756      0.00560433     -0.00003047
     0.00062779      0.02045517     -0.01431648
     0.00021604      0.02114939      0.00233411
    -0.00078707      0.00111662     -0.00020048
     0.00206780      0.00069738     -0.00119812
     0.00009646     -0.00003590      0.00048255
    -0.00009518     -0.00037614     -0.00042774
     0.00010903     -0.00000994      0.00004451
     0.00012054      0.00047504      0.00145726
vibration 76
     0.00001449      0.00013675     -0.00035944
    -0.00003257     -0.00005922     -0.00017795
    -0.00012870     -0.00001941      0.00015658
     0.00004921      0.00002309     -0.00017961
    -0.00005678     -0.00011718      0.00038027
    -0.00005763     -0.00008196      0.00010615
     0.00001389      0.00000995      0.00007102
    -0.00005300     -0.00001370      0.00006720
    -0.00047037     -0.00211748      0.00002600
     0.02250969      0.03269005     -0.08626620
     0.00021519     -0.00026868      0.00005037
    -0.00000590      0.00010281      0.00009009
     0.00001984     -0.00002487      0.00002018
    -0.00000020     -0.00019240     -0.00002985
     0.00009605      0.00003654     -0.00021394
    -0.00419355      0.01025369      0.00799338
    -0.21409992      0.16793243      0.63560438
    -0.00013719      0.00007174     -0.00015907
    -0.00013701      0.00066236     -0.00495743
     0.01009724      0.01394999     -0.00350906
    -0.05146032      0.03453223     -0.01756376
     0.00018705     -0.58897558      0.40167533
     0.00000450      0.00222350      0.00027149
    -0.00227316      0.00322956     -0.00049048
    -0.00141636     -0.00047072      0.00083415
     0.00030756      0.00009612      0.00184010
    -0.00013500     -0.00101670     -0.00105090
     0.00013674     -0.00083191      0.00178056
     0.00043112      0.00070261      0.00232302
vibration 77
     0.00049884     -0.00157938      0.00393745
    -0.00040451      0.00083537      0.00150781
     0.00030509     -0.00087086     -0.00032460
    -0.00006193      0.00007693      0.00002207
    -0.00005476      0.00011760      0.00002862
    -0.00031008      0.00033952      0.00010505
     0.00002297     -0.00001539      0.00000089
     0.00006060     -0.00002599     -0.00001726
    -0.00008558      0.00002199      0.00005652
    -0.00034720      0.00002810      0.00033491
     0.04960084     -0.06902301      0.01076426
    -0.00039776      0.00444515      0.00316473
    -0.00009680      0.00010639     -0.00060488
    -0.00045057      0.00447990      0.00034448
     0.00508009      0.00251407      0.00001768
     0.00037644     -0.00080856     -0.00056090
     0.00096639     -0.00069582     -0.00267109
     0.00159016     -0.00111911      0.00267865
    -0.00000106      0.00001514      0.00001132
     0.00041199      0.00049087     -0.00008084
     0.00340228     -0.00163474      0.00015517
     0.00003746      0.00174463     -0.00118679
    -0.00035880     -0.04260901     -0.00466997
    -0.57534036      0.79627845     -0.11869068
    -0.05122039     -0.01889750      0.02936351
    -0.00459586     -0.00362813     -0.02697501
    -0.00057338     -0.04529449     -0.04667215
    -0.00670668      0.01650688     -0.04564940
    -0.00220954     -0.00485984     -0.01576668
vibration 78
    -0.00000937     -0.00000877     -0.00001208
    -0.00009834     -0.00007311     -0.00014133
     0.00006375      0.00000796      0.00000977
     0.00123769     -0.00019451     -0.00042800
    -0.00001135     -0.00000190      0.00001963
    -0.00001873      0.00001048      0.00000457
    -0.00002781     -0.00003906      0.00038405
    -0.00050088      0.00006370      0.00027402
     0.02063913      0.01565915     -0.09091184
    -0.00275831      0.00256036     -0.00029996
     0.00002538     -0.00002357     -0.00000813
    -0.00000102      0.00002771      0.00004577
    -0.00003071      0.00002679     -0.00004198
     0.00000175      0.00007205     -0.00001403
     0.00008483      0.00002408     -0.00012085
    -0.09519837      0.26541822      0.17527911
     0.00173316     -0.00096862     -0.00695778
    -0.00010163     -0.00012853      0.00029488
     0.00464798     -0.21350922      0.86648950
    -0.16000000     -0.23673127      0.03435330
     0.03129161     -0.01588526      0.00010590
    -0.00069737     -0.01353405      0.01010157
    -0.00000545     -0.00074960     -0.00010633
    -0.00023697      0.00028573      0.00002658
    -0.00127578     -0.00038074      0.00071075
     0.00018642      0.00003751      0.00094772
    -0.00001553     -0.00029263     -0.00039250
     0.00003393     -0.00007080      0.00024502
     0.00043463      0.00072979      0.00257628
vibration 79
     0.00001347     -0.00003466     -0.00006565
     0.00000768     -0.00001632      0.00002387
     0.00028276      0.00113725      0.00052305
    -0.00017725      0.00005294     -0.00002589
     0.00024739     -0.00026082     -0.00004608
    -0.00000017     -0.00051003     -0.00018120
     0.00004363     -0.00000890      0.00002204
     0.00007058     -0.00001052     -0.00001652
    -0.00139066     -0.00221514      0.00325205
    -0.07212689      0.06106597      0.00386629
    -0.00016449      0.00022496     -0.00004114
    -0.00000010     -0.00009874     -0.00010580
     0.00003043     -0.00004248      0.00007114
     0.00000326      0.00008654      0.00001022
     0.00000367     -0.00000120      0.00001691
     0.00103404     -0.00305665     -0.00138601
     0.07344403     -0.04963900     -0.26120887
    -0.00046773      0.00053283     -0.00079409
    -0.00017236      0.00774280     -0.03278952
     0.01571666      0.02170524     -0.00442733
     0.79498345     -0.40414440      0.00693060
    -0.01707028     -0.27362880      0.20615379
    -0.00002790     -0.00117387     -0.00011195
     0.00208532     -0.00272460      0.00039968
     0.00000444     -0.00004128      0.00000338
    -0.00002833      0.00000861     -0.00020125
     0.00009871      0.00114679      0.00120960
     0.00002064     -0.00032496      0.00051439
     0.00000648     -0.00016131     -0.00037208
vibration 80
    -0.00012722      0.00002303      0.00031151
     0.00005719      0.00016337     -0.00001677
     0.00011276     -0.00038288     -0.00024152
     0.00004419     -0.00008162      0.00016525
    -0.00001184      0.00004705      0.00000967
    -0.00009692      0.00013127      0.00015488
     0.00006281      0.00003360     -0.00010975
     0.00001028      0.00001705     -0.00005648
    -0.00008753     -0.00000407     -0.00009307
     0.00015431     -0.00008029     -0.00008417
     0.00316129     -0.00432143      0.00203596
    -0.00111196     -0.04907345     -0.05639214
     0.01688033     -0.01893582      0.03226841
    -0.00010635     -0.00202230     -0.00056770
     0.00010546      0.00055780      0.00030168
     0.00016452     -0.00019160     -0.00009282
    -0.00021051      0.00027491      0.00105861
    -0.21316009      0.25222675     -0.37753118
    -0.00000223     -0.00027137      0.00100693
     0.00059660      0.00060936     -0.00013105
    -0.00134502      0.00071786      0.00003139
     0.00006117      0.00000698     -0.00001383
     0.00073477      0.02220073      0.00375511
    -0.03380729      0.04613386     -0.01028368
    -0.00111047     -0.00076821      0.00066412
    -0.00005535     -0.00108711     -0.00182658
     0.02170741      0.55858578      0.65169196
     0.00024028      0.00112208     -0.00339907
    -0.00045809     -0.00021584      0.00076743
vibration 81
     0.00002130     -0.00012802      0.00039350
    -0.00005110     -0.00002342      0.00039071
    -0.00007059     -0.00019460     -0.00017440
    -0.00021644      0.00014060     -0.00033501
     0.00005421      0.00001186      0.00003061
    -0.00001553      0.00007727      0.00008671
    -0.00006153     -0.00005165      0.00023152
     0.00003663     -0.00003238      0.00008699
     0.00008597     -0.00005014      0.00004506
     0.00000141      0.00001190     -0.00009773
     0.00145668     -0.00230065      0.00202043
     0.00165192     -0.03583901     -0.03343497
    -0.03368368      0.04521446     -0.05670400
    -0.00008601      0.00358607      0.00252363
     0.00087886      0.00016313      0.00086525
    -0.00037685      0.00065776      0.00042271
    -0.00018214      0.00032592      0.00079658
     0.36634574     -0.43800460      0.64509729
     0.00003194      0.00006126     -0.00047373
    -0.00038036     -0.00032657      0.00000567
     0.00026256     -0.00005400      0.00000480
     0.00002708     -0.00032955      0.00029583
    -0.00000166     -0.03517718     -0.00853868
    -0.01510120      0.02166793     -0.00659105
    -0.00386888     -0.00115669      0.00208847
    -0.00079831     -0.00003891     -0.00391270
     0.01135227      0.32564382      0.37507807
    -0.00033329      0.00090289     -0.00246904
     0.00014668     -0.00023058     -0.00250937
[INT]
    2.981798
    2.213370
    0.024667
    0.044692
    0.869718
    1.560373
    1.061734
    0.920824
    1.207095
    1.664172
    6.737493
    6.525466
   13.345366
    4.728880
    0.441774
    7.415073
    1.636685
   12.663484
    3.875831
    9.604081
    7.952268
   32.395955
    8.761699
   10.761507
    9.440664
   11.490482
    4.740055
   12.805187
    7.795905
   13.435077
    2.231074
    1.993432
    1.893052
    2.984011
    1.657432
    2.908714
   28.325765
   29.173362
   80.780204
    2.766398
    5.172285
    5.902814
    0.949971
    2.861789
    8.553193
    5.965709
    4.878065
   19.410268
   69.645921
  322.045896
   72.133838
   85.774237
    0.748335
   34.113135
    3.093488
    9.464632
   30.890753
    6.108426
   23.441421
    8.844150
    5.718826
   10.598361
    9.567572
    6.222554
    1.146163
  262.018359
  298.641185
   38.518714
   31.260554
    9.364167
   34.655289
   12.806914
   27.652570
   31.620434
   22.869197
   15.335109
   15.708672
   14.118914
   12.035112
    3.086098
    7.865569

======= END OF MOLDEN-FORMATTED INPUT FILE =======


        *************************************************************
        *                                                           *
        *  Thank you very much for using Q-Chem.  Have a nice day.  *
        *                                                           *
        *************************************************************


