r0231.ten.osc.edu 10.25.157
Q-Chem Developer Version! Running on 10.25.157.*
                  Welcome to Q-Chem
     A Quantum Leap Into The Future Of Chemistry


 Q-Chem 5.0, Q-Chem, Inc., Pleasanton, CA (2017)

 Yihan Shao,  Zhengting Gan,  E. Epifanovsky,  A. T. B. Gilbert,  M. Wormit,  
 J. Kussmann,  A. W. Lange,  A. Behn,  Jia Deng,  Xintian Feng,  D. Ghosh,  
 M. Goldey,  P. R. Horn,  L. D. Jacobson,  I. Kaliman,  T. Kus,  A. Landau,  
 Jie Liu,  E. I. Proynov,  R. M. Richard,  R. P. Steele,  E. J. Sundstrom,  
 H. L. Woodcock III,  P. M. Zimmerman,  D. Zuev,  B. Albrecht,  E. Alguire,  
 S. A. Baeppler,  Z. Benda,  Y. A. Bernard,  E. J. Berquist,  K. B. Bravaya,  
 D. Casanova,  Chun-Min Chang,  Yunqing Chen,  A. Chien,  K. D. Closser,  
 M. P. Coons,  S. Dasgupta,  M. Diedenhofen,  Hainam Do,  R. G. Edgar,  
 Po-Tung Fang,  S. Fatehi,  Qingguo Feng,  Qinghui Ge,  A. Ghysels,  
 J. Gomes,  J. Gonthier,  A. Gunina,  M. W. D. Hanson-Heine,  
 P. H. P. Harbach,  A. W. Hauser,  J. E. Herr,  E. G. Hohenstein,  
 Z. C. Holden,  Kerwin Hui,  T.-C. Jagau,  Hyunjun Ji,  B. Kaduk,  
 K. Khistyaev,  Jaehoon Kim,  P. Klunzinger,  K. Koh,  D. Kosenkov,  
 T. Kowalczyk,  C. M. Krauter,  A. Kunitsa,  Ka Un Lao,  A. Laurent,  
 K. V. Lawler,  Joonho Lee,  D. Lefrancois,  S. Lehtola,  D. S. Levine,  
 Yi-Pei Li,  You-Sheng Lin,  Fenglai Liu,  E. Livshits,  A. Luenser,  
 P. Manohar,  E. Mansoor,  S. F. Manzer,  Shan-Ping Mao,  Yuezhi Mao,  
 N. Mardirossian,  A. V. Marenich,  L. A. Martinez-Martinez,  S. A. Maurer,  
 N. J. Mayhall,  S. C. McKenzie,  J.-M. Mewes,  A. F. Morrison,  K. Nanda,  
 T. S. Nguyen-Beck,  R. Olivares-Amaya,  J. A. Parkhill,  T. M. Perrine,  
 F. Plasser,  S. Prager,  A. Prociuk,  D. R. Rehn,  F. Rob,  M. Schneider,  
 N. Sergueev,  S. M. Sharada,  S. Sharma,  D. W. Small,  T. Stauch,  
 T. Stein,  Yu-Chuan Su,  A. J. W. Thom,  T. Tsuchimochi,  L. Vogt,  
 O. Vydrov,  M. A. Watson,  J. Wenzel,  M. de Wergifosse,  T. A. Wesolowski,  
 A. White,  J. Witte,  A. Yamada,  Jun Yang,  K. Yao,  S. Yeganeh,  
 S. R. Yost,  Zhi-Qiang You,  A. Zech,  Igor Ying Zhang,  Xing Zhang,  
 Yan Zhao,  Ying Zhu,  B. R. Brooks,  G. K. L. Chan,  C. J. Cramer,  
 M. S. Gordon,  W. J. Hehre,  A. Klamt,  M. W. Schmidt,  C. D. Sherrill,  
 D. G. Truhlar,  A. Aspuru-Guzik,  R. Baer,  A. T. Bell,  N. A. Besley,  
 Jeng-Da Chai,  A. Dreuw,  B. D. Dunietz,  T. R. Furlani,  Chao-Ping Hsu,  
 Yousung Jung,  Jing Kong,  D. S. Lambrecht,  WanZhen Liang,  C. Ochsenfeld,  
 V. A. Rassolov,  L. V. Slipchenko,  J. E. Subotnik,  T. Van Voorhis,  
 J. M. Herbert,  A. I. Krylov,  P. M. W. Gill,  M. Head-Gordon

 Contributors to earlier versions of Q-Chem not listed above: 
 R. D. Adamson,  B. Austin,  J. Baker,  G. J. O. Beran,  K. Brandhorst,  
 S. T. Brown,  E. F. C. Byrd,  A. K. Chakraborty,  C.-L. Cheng,  
 Siu Hung Chien,  D. M. Chipman,  D. L. Crittenden,  H. Dachsel,  
 R. A. DiStasio Jr.,  R. J. Doerksen,  A. D. Dutoi,  L. Fusti-Molnar,  
 W. A. Goddard III,  A. Golubeva-Zadorozhnaya,  S. R. Gwaltney,  G. Hawkins,  
 A. Heyden,  S. Hirata,  G. Kedziora,  F. J. Keil,  C. Kelley,  Jihan Kim,  
 R. A. King,  R. Z. Khaliullin,  P. P. Korambath,  W. Kurlancheek,  
 A. M. Lee,  M. S. Lee,  S. V. Levchenko,  Ching Yeh Lin,  D. Liotard,  
 R. C. Lochan,  I. Lotan,  P. E. Maslen,  N. Nair,  D. P. O'Neill,  
 D. Neuhauser,  E. Neuscamman,  C. M. Oana,  R. Olson,  B. Peters,  
 R. Peverati,  P. A. Pieniazek,  Y. M. Rhee,  J. Ritchie,  M. A. Rohrdanz,  
 E. Rosta,  N. J. Russ,  H. F. Schaefer III,  N. E. Schultz,  N. Shenvi,  
 A. C. Simmonett,  A. Sodt,  D. Stuck,  K. S. Thanthiriwatte,  V. Vanovschi,  
 Tao Wang,  A. Warshel,  C. F. Williams,  Q. Wu,  X. Xu,  W. Zhang

 Please cite Q-Chem as follows:
 Y. Shao et al., Mol. Phys. 113, 184-215 (2015)
 DOI: 10.1080/00268976.2014.952696

 Q-Chem 5.0.1 for Intel X86 EM64T Linux

 Parts of Q-Chem use Armadillo 5.200.1 (Boston Tea Smuggler).
 http://arma.sourceforge.net/

 Q-Chem begins on Mon Oct 23 23:19:45 2017  

Host: r0231.ten.osc.edu
0

     Scratch files written to /tmp/pbstmp.1324330/04//
Processing $rem in /users/PAS0291/osu6415/.qchemrc.
molden_format             true

Checking the input file for inconsistencies... 	...done.

--------------------------------------------------------------
User input:
--------------------------------------------------------------
$molecule
0 1
C -1.12697778 0.38647176 -0.84653846
C -0.20891395 -0.88805554 -0.97389574
C -0.50197458 1.68861360 -0.39498501
C 1.26845154 -0.65379230 -0.72919343
O 0.32658426 1.53653683 0.65725427
O -0.74367638 2.75833231 -0.90091253
O 1.76851976 -1.41288833 0.26389444
O 1.94263157 0.09346750 -1.39762156
C 3.17095318 -1.24089939 0.53768987
C 1.00614701 2.72293126 1.10365630
C -2.28321653 -0.13442658 0.10207970
C -1.68637137 -0.41264369 1.47112495
C -0.90064475 -1.48791967 1.35741796
C -0.95796812 -1.94925975 -0.09106316
C -2.42049544 -1.57737552 -0.43599206
H 3.76619604 -1.48720959 -0.34271558
H 0.28781627 3.49192813 1.39094404
H -0.23893862 -1.90017950 2.10507548
H 3.39284608 -1.92302469 1.35547877
H 3.37387921 -0.20964099 0.83006367
H 1.59869695 2.41152666 1.96135203
H 1.64930107 3.10585661 0.30988469
H -0.64001643 -2.97258107 -0.28423290
H -3.16609085 0.50243181 0.07134291
H -3.14744311 -2.16553620 0.12599669
H -2.65074512 -1.62835633 -1.50478539
H -1.79767873 0.22923931 2.33428524
H -1.56401374 0.61644538 -1.81772828
H -0.25062652 -1.20957377 -2.01899366
$end

$rem
sym_ignore      true
jobtype         opt
method          b3lyp
basis           6-311++G(d,p)
dft_d           d3_op
mem_total       62000
MEM_STATIC      4000
ao2mo_disk      350000
max_scf_cycles  200
geom_opt_max_cycles 1000
geom_opt_tol_displacement 1
GEOM_OPT_TOL_GRADIENT       1
GEOM_OPT_TOL_ENERGY         1
$end

--------------------------------------------------------------
 Adding empirical dispersion correction 
 ----------------------------------------------------------------
 Doing -D3(op) with
 s6 =   1.00000
 s8 =   0.78311
 a1 =   0.30000
 a2 =   4.25000
 n  =  10.00000
 -D3 energy without 3body term =     -0.0340668928 hartrees
 ----------------------------------------------------------------
             Standard Nuclear Orientation (Angstroms)
    I     Atom           X                Y                Z
 ----------------------------------------------------------------
    1      C      -1.1269777800     0.3864717600    -0.8465384600
    2      C      -0.2089139500    -0.8880555400    -0.9738957400
    3      C      -0.5019745800     1.6886136000    -0.3949850100
    4      C       1.2684515400    -0.6537923000    -0.7291934300
    5      O       0.3265842600     1.5365368300     0.6572542700
    6      O      -0.7436763800     2.7583323100    -0.9009125300
    7      O       1.7685197600    -1.4128883300     0.2638944400
    8      O       1.9426315700     0.0934675000    -1.3976215600
    9      C       3.1709531800    -1.2408993900     0.5376898700
   10      C       1.0061470100     2.7229312600     1.1036563000
   11      C      -2.2832165300    -0.1344265800     0.1020797000
   12      C      -1.6863713700    -0.4126436900     1.4711249500
   13      C      -0.9006447500    -1.4879196700     1.3574179600
   14      C      -0.9579681200    -1.9492597500    -0.0910631600
   15      C      -2.4204954400    -1.5773755200    -0.4359920600
   16      H       3.7661960400    -1.4872095900    -0.3427155800
   17      H       0.2878162700     3.4919281300     1.3909440400
   18      H      -0.2389386200    -1.9001795000     2.1050754800
   19      H       3.3928460800    -1.9230246900     1.3554787700
   20      H       3.3738792100    -0.2096409900     0.8300636700
   21      H       1.5986969500     2.4115266600     1.9613520300
   22      H       1.6493010700     3.1058566100     0.3098846900
   23      H      -0.6400164300    -2.9725810700    -0.2842329000
   24      H      -3.1660908500     0.5024318100     0.0713429100
   25      H      -3.1474431100    -2.1655362000     0.1259966900
   26      H      -2.6507451200    -1.6283563300    -1.5047853900
   27      H      -1.7976787300     0.2292393100     2.3342852400
   28      H      -1.5640137400     0.6164453800    -1.8177282800
   29      H      -0.2506265200    -1.2095737700    -2.0189936600
 ----------------------------------------------------------------
 Nuclear Repulsion Energy =  1092.6607661265 hartrees
 There are       56 alpha and       56 beta electrons
 Requested basis set is 6-311++G(d,p)
 There are 160 shells and 428 basis functions

 Total QAlloc Memory Limit  62000 MB
 Mega-Array Size      3911 MB
 MEM_STATIC part      4000 MB
 A cutoff of  1.0D-11 yielded  10821 shell pairs
 There are     79302 function pairs (     84793 Cartesian)
 
 -------------------------------------------------------
 OpenMP Integral Computing Module                       
 Release: version 1.0, May 2013, Q-Chem Inc. Pittsburgh 
 -------------------------------------------------------
 Integral Job Info:
 Integral job number is                      11
 Integral operator is                         1
 short-range coefficients                     0
 long-range coefficients              100000000
 Omega coefficients                           0
 if combine SR and LR in K                    0
 Integral screening is                        0
 Integral computing path is                   2
 max size of driver memory is            800000
 size of driver memory is                593474
 size of scratch memory is              2361544
 max col of scratch BK array               1296
 max len of scratch array in speh3          155
 max len of scratch index in speh4           18
 max int batch size is                      520
 min int batch size is                       52
 fixed nKL is                                52
 max L of basis functions is                  2
 order of int derivative is                   0
 number of shells is                        160
 number of basis is                         443
 number of cartesian basis is               443
 number of contracted shell pairs         10821
 number of primitive shell pairs          24494
 maxK2 (contraction) of shell pair           36
 max number of K2 of shell pair               1
 max number of CS2 of shell pair           1968
 max number of PS2 of shell pair           3510
 mem total for path MDJ                  147672
 -------------------------------------------------------
 Smallest overlap matrix eigenvalue = 1.14E-06

 Q-Chem warning in module /fs/scratch/osu6415/qchem-kaunlao-vdw/stvman/mkSTV.C, line 281:

 Overlap eigenvalue is smaller than square root of threshold


 Scale SEOQF with 1.000000e-01/1.000000e-01/1.000000e-01

 Standard Electronic Orientation quadrupole field applied
 Nucleus-field energy     =     0.0000000204 hartrees
 Guess from superposition of atomic densities
 Warning:  Energy on first SCF cycle will be non-variational
 A restricted hybrid HF-DFT SCF calculation will be
 performed using Pulay DIIS extrapolation
 Exchange:     0.2000 Hartree-Fock + 0.0800 Slater + 0.7200 B88
 Correlation:  0.1900 VWN1RPA + 0.8100 LYP
 Using SG-1 standard quadrature grid
 Dispersion:   Grimme D3
 SCF converges when DIIS error is below 1.0E-08
 using 20 threads for integral computing
 -------------------------------------------------------
 OpenMP Integral computing Module                
 Release: version 1.0, May 2013, Q-Chem Inc. Pittsburgh 
 -------------------------------------------------------
 -------------------------------------------------------
 OpenMP BLAS3 based DFT computing Module                
 Release: version 1.0, May 2013, Q-Chem Inc. Pittsburgh 
 -------------------------------------------------------
 ---------------------------------------
  Cycle       Energy         DIIS Error
 ---------------------------------------
    1    -731.8783497875      3.08E-02
    2    -728.4049357011      3.96E-03
    3    -727.9210346553      6.68E-03
    4    -728.6719728232      1.42E-03
    5    -728.7054362453      4.60E-04
    6    -728.7088586316      1.26E-04
    7    -728.7091162633      4.49E-05
    8    -728.7091502154      1.26E-05
    9    -728.7091533415      3.44E-06
   10    -728.7091535458      1.65E-06
   11    -728.7091535956      4.72E-07
   12    -728.7091535995      1.98E-07
   13    -728.7091535997      5.77E-08
   14    -728.7091535991      1.44E-08
   15    -728.7091536003      4.01E-09 Convergence criterion met
 ---------------------------------------
 SCF time:  CPU 795.49 s  wall 43.13 s
 SCF   energy in the final basis set = -728.70915360
 Total energy in the final basis set = -728.70915360
 
 --------------------------------------------------------------
 
                    Orbital Energies (a.u.)
 --------------------------------------------------------------
 
 Alpha MOs
 -- Occupied --
-19.176 -19.170 -19.114 -19.111 -10.306 -10.302 -10.232 -10.227
-10.205 -10.203 -10.197 -10.193 -10.181 -10.173 -10.172  -1.117
 -1.111  -1.027  -1.023  -0.901  -0.788  -0.765  -0.737  -0.721
 -0.707  -0.641  -0.588  -0.578  -0.568  -0.540  -0.537  -0.524
 -0.499  -0.491  -0.483  -0.477  -0.463  -0.457  -0.440  -0.424
 -0.409  -0.403  -0.396  -0.388  -0.386  -0.370  -0.363  -0.362
 -0.354  -0.346  -0.323  -0.318  -0.309  -0.285  -0.279  -0.251
 -- Virtual --
 -0.017  -0.014  -0.005  -0.004   0.002   0.007   0.013   0.017
  0.021   0.025   0.032   0.037   0.041   0.048   0.052   0.055
  0.057   0.063   0.075   0.083   0.089   0.091   0.096   0.102
  0.104   0.109   0.110   0.112   0.114   0.117   0.118   0.123
  0.127   0.129   0.134   0.136   0.137   0.146   0.146   0.150
  0.151   0.153   0.159   0.160   0.162   0.164   0.168   0.170
  0.175   0.179   0.183   0.185   0.187   0.194   0.196   0.203
  0.207   0.215   0.218   0.221   0.223   0.229   0.233   0.244
  0.246   0.250   0.253   0.262   0.267   0.271   0.275   0.279
  0.286   0.291   0.296   0.300   0.308   0.313   0.323   0.325
  0.326   0.329   0.331   0.337   0.340   0.345   0.351   0.353
  0.358   0.359   0.367   0.373   0.379   0.380   0.383   0.403
  0.408   0.413   0.421   0.428   0.434   0.440   0.450   0.461
  0.476   0.494   0.494   0.502   0.511   0.524   0.533   0.541
  0.549   0.558   0.571   0.587   0.595   0.608   0.611   0.618
  0.628   0.642   0.649   0.651   0.661   0.664   0.670   0.680
  0.683   0.690   0.697   0.700   0.707   0.717   0.723   0.727
  0.732   0.738   0.743   0.755   0.757   0.767   0.772   0.777
  0.782   0.798   0.800   0.817   0.831   0.842   0.860   0.872
  0.886   0.902   0.941   0.946   0.976   1.003   1.026   1.037
  1.054   1.060   1.077   1.082   1.086   1.101   1.114   1.154
  1.165   1.182   1.198   1.208   1.214   1.218   1.237   1.245
  1.276   1.281   1.292   1.294   1.300   1.311   1.320   1.357
  1.369   1.395   1.406   1.411   1.429   1.441   1.446   1.453
  1.477   1.489   1.523   1.535   1.540   1.563   1.566   1.578
  1.580   1.583   1.592   1.603   1.615   1.639   1.652   1.655
  1.664   1.681   1.687   1.701   1.717   1.721   1.725   1.736
  1.753   1.757   1.766   1.782   1.792   1.800   1.818   1.830
  1.835   1.853   1.859   1.875   1.876   1.885   1.901   1.917
  1.918   1.949   1.971   1.975   1.986   1.995   2.018   2.019
  2.034   2.046   2.090   2.100   2.115   2.119   2.133   2.174
  2.180   2.185   2.200   2.207   2.219   2.227   2.234   2.274
  2.325   2.339   2.350   2.372   2.406   2.445   2.453   2.477
  2.484   2.507   2.515   2.522   2.534   2.537   2.559   2.577
  2.592   2.603   2.629   2.634   2.664   2.671   2.677   2.717
  2.730   2.736   2.762   2.783   2.806   2.819   2.832   2.847
  2.850   2.866   2.882   2.900   2.907   2.929   2.940   2.978
  2.979   3.009   3.013   3.019   3.035   3.039   3.065   3.076
  3.097   3.123   3.129   3.154   3.167   3.189   3.217   3.231
  3.243   3.255   3.308   3.331   3.343   3.380   3.386   3.420
  3.463   3.593   3.607   3.615   3.698   3.729   3.774   3.777
  3.789   3.835   3.856   3.921   4.043   4.048   4.075   4.083
  4.122   4.150   4.161   4.170   4.197   4.233   4.247   4.344
  4.442   5.045   5.096   5.119   5.158   5.241   5.251   5.416
  5.447   5.638   5.643   5.874   5.890  23.797  23.848  23.864
 23.868  23.886  23.921  23.932  23.942  24.001  24.038  24.312
 49.920  49.923  50.025  50.043
 --------------------------------------------------------------
 
          Ground-State Mulliken Net Atomic Charges

     Atom                 Charge (a.u.)
  ----------------------------------------
      1 C                    -0.048054
      2 C                     0.254548
      3 C                    -0.458341
      4 C                    -0.717451
      5 O                    -0.017162
      6 O                    -0.221404
      7 O                     0.004588
      8 O                    -0.187815
      9 C                    -0.177664
     10 C                    -0.238543
     11 C                     0.439577
     12 C                    -0.530759
     13 C                    -0.315263
     14 C                     0.281412
     15 C                    -0.741839
     16 H                     0.174115
     17 H                     0.183012
     18 H                     0.149482
     19 H                     0.152904
     20 H                     0.169412
     21 H                     0.144044
     22 H                     0.206667
     23 H                     0.266813
     24 H                     0.271359
     25 H                     0.175386
     26 H                     0.129510
     27 H                     0.140005
     28 H                     0.262761
     29 H                     0.248700
  ----------------------------------------
  Sum of atomic charges =    -0.000000

 -----------------------------------------------------------------
                    Cartesian Multipole Moments
 -----------------------------------------------------------------
    Charge (ESU x 10^10)
                -0.0000
    Dipole Moment (Debye)
         X       0.4702      Y      -2.5150      Z       2.4574
       Tot       3.5476
    Quadrupole Moments (Debye-Ang)
        XX     -82.6731     XY       0.8787     YY     -91.6653
        XZ       6.9007     YZ       9.2114     ZZ     -89.4591
    Octopole Moments (Debye-Ang^2)
       XXX      36.8398    XXY      -4.1107    XYY      27.9022
       YYY      -5.9164    XXZ      12.0429    XYZ      -4.5810
       YYZ      18.7042    XZZ       3.8276    YZZ      -0.0326
       ZZZ       3.7056
    Hexadecapole Moments (Debye-Ang^3)
      XXXX   -1500.2014   XXXY     -78.5650   XXYY    -483.0505
      XYYY      15.8066   YYYY   -1452.5075   XXXZ      34.7354
      XXYZ      12.7667   XYYZ      -3.0773   YYYZ      68.7603
      XXZZ    -371.2263   XYZZ     -18.9893   YYZZ    -330.2556
      XZZZ      16.1344   YZZZ      19.2410   ZZZZ    -567.9818
 -----------------------------------------------------------------
 Calculating analytic gradient of the SCF energy
 Gradient of SCF Energy
            1           2           3           4           5           6
    1  -0.0000819   0.0001681  -0.0003739  -0.0002515  -0.0000527   0.0002966
    2  -0.0002756  -0.0000158   0.0000806   0.0006531  -0.0000227  -0.0000074
    3   0.0007562  -0.0011586   0.0003024   0.0007936  -0.0000071  -0.0003315
            7           8           9          10          11          12
    1  -0.0000210   0.0001529   0.0000436   0.0000129   0.0000131   0.0000286
    2  -0.0000193  -0.0004325   0.0000096   0.0000362  -0.0000718   0.0000027
    3   0.0000176  -0.0004028  -0.0000041   0.0000004  -0.0000208   0.0000032
           13          14          15          16          17          18
    1   0.0000136  -0.0000442  -0.0000170  -0.0000000  -0.0000128   0.0000150
    2  -0.0000035   0.0000196   0.0000003   0.0000070  -0.0000015  -0.0000001
    3   0.0000126   0.0000513   0.0000457  -0.0000027  -0.0000015  -0.0000103
           19          20          21          22          23          24
    1   0.0000060   0.0000000  -0.0000019  -0.0000123   0.0000070   0.0000175
    2   0.0000103   0.0000087   0.0000044   0.0000054  -0.0000019   0.0000298
    3   0.0000016   0.0000013  -0.0000075  -0.0000071  -0.0000277   0.0000207
           25          26          27          28          29
    1   0.0000040   0.0000430  -0.0000201   0.0000005   0.0000668
    2  -0.0000115   0.0000108   0.0000006   0.0000031  -0.0000186
    3   0.0000039  -0.0000057  -0.0000108  -0.0000063  -0.0000061
 Max gradient component =       1.159E-03
 RMS gradient           =       2.141E-04
 Gradient time:  CPU 261.05 s  wall 19.99 s
 Geometry Optimization Parameters
   NAtoms,    NIC,     NZ,  NCons,   NDum,   NFix, NCnnct, MaxDiis
       29     227       0       0       0       0       0       0


** GEOMETRY OPTIMIZATION IN DELOCALIZED INTERNAL COORDINATES **
   Searching for a Minimum

   Optimization Cycle:   1

                       Coordinates (Angstroms)
     ATOM                X               Y               Z
      1  C        -1.1269777800    0.3864717600   -0.8465384600
      2  C        -0.2089139500   -0.8880555400   -0.9738957400
      3  C        -0.5019745800    1.6886136000   -0.3949850100
      4  C         1.2684515400   -0.6537923000   -0.7291934300
      5  O         0.3265842600    1.5365368300    0.6572542700
      6  O        -0.7436763800    2.7583323100   -0.9009125300
      7  O         1.7685197600   -1.4128883300    0.2638944400
      8  O         1.9426315700    0.0934675000   -1.3976215600
      9  C         3.1709531800   -1.2408993900    0.5376898700
     10  C         1.0061470100    2.7229312600    1.1036563000
     11  C        -2.2832165300   -0.1344265800    0.1020797000
     12  C        -1.6863713700   -0.4126436900    1.4711249500
     13  C        -0.9006447500   -1.4879196700    1.3574179600
     14  C        -0.9579681200   -1.9492597500   -0.0910631600
     15  C        -2.4204954400   -1.5773755200   -0.4359920600
     16  H         3.7661960400   -1.4872095900   -0.3427155800
     17  H         0.2878162700    3.4919281300    1.3909440400
     18  H        -0.2389386200   -1.9001795000    2.1050754800
     19  H         3.3928460800   -1.9230246900    1.3554787700
     20  H         3.3738792100   -0.2096409900    0.8300636700
     21  H         1.5986969500    2.4115266600    1.9613520300
     22  H         1.6493010700    3.1058566100    0.3098846900
     23  H        -0.6400164300   -2.9725810700   -0.2842329000
     24  H        -3.1660908500    0.5024318100    0.0713429100
     25  H        -3.1474431100   -2.1655362000    0.1259966900
     26  H        -2.6507451200   -1.6283563300   -1.5047853900
     27  H        -1.7976787300    0.2292393100    2.3342852400
     28  H        -1.5640137400    0.6164453800   -1.8177282800
     29  H        -0.2506265200   -1.2095737700   -2.0189936600
   Point Group: c1    Number of degrees of freedom:    81


   Energy is   -728.709153600


 Attempting to Generate Delocalized Internal Coordinates

 81 Hessian modes will be used to form the next step
  Hessian Eigenvalues:
     0.004066    0.007101    0.007418    0.010457    0.010583    0.011114
     0.011208    0.012972    0.016566    0.016860    0.019933    0.022537
     0.022749    0.023944    0.031229    0.039572    0.040740    0.042434
     0.046803    0.047426    0.050080    0.053680    0.054431    0.055449
     0.058536    0.068392    0.075603    0.093984    0.097466    0.101378
     0.101457    0.105934    0.106147    0.113999    0.121493    0.147629
     0.156639    0.158548    0.160000    0.160000    0.160000    0.160000
     0.160000    0.160000    0.174876    0.225869    0.229025    0.239729
     0.249768    0.249931    0.250000    0.250000    0.250000    0.250000
     0.252875    0.255453    0.273021    0.299607    0.307838    0.310203
     0.342976    0.343281    0.346936    0.347007    0.347040    0.347071
     0.347180    0.348658    0.349242    0.349459    0.350455    0.350681
     0.358244    0.359717    0.396922    0.398241    0.514326    0.554698
     0.558165    1.008154    1.010193

 Minimum Search - Taking Simple RFO Step
 Searching for Lamda that Minimizes Along All modes
 Value Taken    Lamda =  -0.00007775
 Step Taken.  Stepsize is  0.094154

                             Maximum     Tolerance    Cnvgd?
         Gradient           0.000423      0.000001      NO
         Displacement       0.041133      0.000001      NO
         Energy change     *********      0.000000      NO


 New Cartesian Coordinates Obtained by Inverse Iteration

 Displacement from previous Coordinates is:  0.120504
 Adding empirical dispersion correction 
 ----------------------------------------------------------------
 Doing -D3(op) with
 s6 =   1.00000
 s8 =   0.78311
 a1 =   0.30000
 a2 =   4.25000
 n  =  10.00000
 -D3 energy without 3body term =     -0.0340957722 hartrees
 ----------------------------------------------------------------
             Standard Nuclear Orientation (Angstroms)
    I     Atom           X                Y                Z
 ----------------------------------------------------------------
    1      C      -1.1245636328     0.3850282327    -0.8505725275
    2      C      -0.2086627141    -0.8916137988    -0.9716781155
    3      C      -0.4984652248     1.6864661243    -0.3986356174
    4      C       1.2697251031    -0.6593329918    -0.7314058314
    5      O       0.3366635011     1.5316531465     0.6480220132
    6      O      -0.7582424045     2.7597845137    -0.8876059191
    7      O       1.7745018261    -1.4265895843     0.2529528184
    8      O       1.9351045372     0.1143669607    -1.3781837088
    9      C       3.1738020910    -1.2427906386     0.5347456433
   10      C       1.0087974084     2.7194065971     1.1018635902
   11      C      -2.2831034161    -0.1325141503     0.0974805408
   12      C      -1.6892603525    -0.4063352588     1.4687329689
   13      C      -0.9042778177    -1.4827338466     1.3605451318
   14      C      -0.9590718067    -1.9494236009    -0.0863294576
   15      C      -2.4205931536    -1.5775502784    -0.4353812954
   16      H       3.7752205565    -1.4701355650    -0.3465613580
   17      H       0.2857286402     3.4801966836     1.3989472398
   18      H      -0.2445299944    -1.8927996950     2.1111385579
   19      H       3.4001555932    -1.9337085100     1.3438834553
   20      H       3.3639962807    -0.2134964750     0.8422157928
   21      H       1.6074906054     2.4052300310     1.9542655678
   22      H       1.6454755103     3.1143099719     0.3087400083
   23      H      -0.6413937470    -2.9736349237    -0.2751396997
   24      H      -3.1657354296     0.5044576777     0.0627346024
   25      H      -3.1489790458    -2.1628624199     0.1277098790
   26      H      -2.6493348837    -1.6326320527    -1.5042964532
   27      H      -1.8015697118     0.2387528404     2.3293798873
   28      H      -1.5602787671     0.6139554691    -1.8225925361
   29      H      -0.2523686311    -1.2150362090    -2.0160919274
 ----------------------------------------------------------------
 Nuclear Repulsion Energy =  1092.9405065771 hartrees
 There are       56 alpha and       56 beta electrons
 Applying Cartesian multipole field
    Component          Value
    ---------          -----
     (2,0,0)        1.00000E-11
     (0,2,0)        2.00000E-11
     (0,0,2)       -3.00000E-11
 Nucleus-field energy     =     0.0000000205 hartrees
 Requested basis set is 6-311++G(d,p)
 There are 160 shells and 428 basis functions
 A cutoff of  1.0D-11 yielded  10825 shell pairs
 There are     79336 function pairs (     84832 Cartesian)
 Smallest overlap matrix eigenvalue = 1.15E-06

 Q-Chem warning in module /fs/scratch/osu6415/qchem-kaunlao-vdw/stvman/mkSTV.C, line 281:

 Overlap eigenvalue is smaller than square root of threshold

 Guess MOs from SCF MO coefficient file
 Reading MOs from coefficient file
 Reading MOs from coefficient file
 A restricted hybrid HF-DFT SCF calculation will be
 performed using Pulay DIIS extrapolation
 Exchange:     0.2000 Hartree-Fock + 0.0800 Slater + 0.7200 B88
 Correlation:  0.1900 VWN1RPA + 0.8100 LYP
 Using SG-1 standard quadrature grid
 Dispersion:   Grimme D3
 SCF converges when DIIS error is below 1.0E-08
 Geometry optimization detected.  Setting ReadMinima to 0
 Setting SaveMinima to 0
 using 20 threads for integral computing
 -------------------------------------------------------
 OpenMP Integral computing Module                
 Release: version 1.0, May 2013, Q-Chem Inc. Pittsburgh 
 -------------------------------------------------------
 -------------------------------------------------------
 OpenMP BLAS3 based DFT computing Module                
 Release: version 1.0, May 2013, Q-Chem Inc. Pittsburgh 
 -------------------------------------------------------
 ---------------------------------------
  Cycle       Energy         DIIS Error
 ---------------------------------------
    1    -728.7066965201      3.52E-04
    2    -728.7091253246      2.30E-05
    3    -728.7091358413      2.28E-05
    4    -728.7091446415      8.78E-06
    5    -728.7091459549      3.20E-06
    6    -728.7091461407      1.32E-06
    7    -728.7091461681      6.06E-07
    8    -728.7091461744      1.31E-07
    9    -728.7091461743      5.97E-08
   10    -728.7091461752      1.54E-08
   11    -728.7091461764      4.66E-09 Convergence criterion met
 ---------------------------------------
 SCF time:  CPU 585.87 s  wall 33.21 s
 SCF   energy in the final basis set = -728.70914618
 Total energy in the final basis set = -728.70914618
 
 --------------------------------------------------------------
 
                    Orbital Energies (a.u.)
 --------------------------------------------------------------
 
 Alpha MOs
 -- Occupied --
-19.176 -19.170 -19.113 -19.111 -10.306 -10.301 -10.232 -10.226
-10.205 -10.203 -10.197 -10.193 -10.181 -10.173 -10.172  -1.117
 -1.110  -1.027  -1.023  -0.901  -0.788  -0.765  -0.737  -0.721
 -0.707  -0.641  -0.588  -0.578  -0.568  -0.540  -0.537  -0.524
 -0.499  -0.491  -0.483  -0.477  -0.463  -0.457  -0.440  -0.423
 -0.409  -0.403  -0.396  -0.388  -0.386  -0.370  -0.363  -0.362
 -0.354  -0.346  -0.323  -0.318  -0.308  -0.285  -0.279  -0.251
 -- Virtual --
 -0.017  -0.014  -0.006  -0.004   0.002   0.007   0.012   0.017
  0.021   0.025   0.032   0.037   0.041   0.048   0.052   0.054
  0.057   0.063   0.075   0.083   0.089   0.091   0.096   0.102
  0.104   0.109   0.110   0.112   0.114   0.117   0.118   0.123
  0.127   0.129   0.134   0.136   0.137   0.146   0.146   0.150
  0.151   0.153   0.160   0.160   0.162   0.164   0.168   0.170
  0.175   0.179   0.183   0.185   0.187   0.194   0.196   0.203
  0.207   0.215   0.218   0.220   0.224   0.229   0.233   0.245
  0.247   0.250   0.253   0.262   0.267   0.270   0.275   0.279
  0.285   0.291   0.295   0.301   0.309   0.313   0.323   0.325
  0.326   0.329   0.331   0.337   0.340   0.345   0.351   0.353
  0.358   0.359   0.367   0.373   0.379   0.380   0.383   0.402
  0.408   0.413   0.422   0.428   0.434   0.441   0.450   0.462
  0.476   0.493   0.495   0.503   0.511   0.525   0.534   0.541
  0.548   0.558   0.572   0.587   0.596   0.608   0.612   0.618
  0.628   0.642   0.649   0.651   0.661   0.664   0.670   0.680
  0.683   0.690   0.697   0.701   0.707   0.717   0.723   0.727
  0.733   0.738   0.743   0.756   0.757   0.768   0.772   0.777
  0.781   0.798   0.799   0.817   0.831   0.841   0.860   0.871
  0.887   0.901   0.941   0.945   0.976   1.004   1.026   1.036
  1.054   1.061   1.076   1.081   1.086   1.102   1.116   1.149
  1.166   1.181   1.197   1.209   1.216   1.219   1.237   1.244
  1.275   1.282   1.291   1.294   1.301   1.309   1.319   1.356
  1.369   1.394   1.407   1.412   1.428   1.441   1.446   1.453
  1.477   1.488   1.523   1.536   1.540   1.563   1.567   1.579
  1.579   1.583   1.592   1.604   1.615   1.639   1.652   1.654
  1.662   1.681   1.688   1.702   1.717   1.721   1.725   1.736
  1.752   1.757   1.766   1.781   1.792   1.801   1.815   1.829
  1.834   1.851   1.859   1.875   1.877   1.883   1.901   1.916
  1.918   1.947   1.971   1.975   1.986   1.999   2.017   2.018
  2.034   2.046   2.089   2.100   2.114   2.119   2.134   2.175
  2.180   2.184   2.199   2.207   2.219   2.227   2.234   2.275
  2.324   2.339   2.350   2.373   2.406   2.444   2.453   2.477
  2.485   2.507   2.516   2.522   2.535   2.538   2.559   2.577
  2.592   2.604   2.630   2.634   2.665   2.670   2.677   2.716
  2.730   2.736   2.762   2.783   2.806   2.819   2.831   2.847
  2.850   2.866   2.883   2.901   2.909   2.929   2.939   2.977
  2.980   3.009   3.013   3.020   3.035   3.039   3.065   3.076
  3.096   3.122   3.129   3.155   3.167   3.188   3.218   3.232
  3.244   3.254   3.308   3.332   3.341   3.382   3.387   3.419
  3.463   3.593   3.607   3.615   3.697   3.730   3.774   3.777
  3.789   3.835   3.856   3.919   4.043   4.047   4.074   4.083
  4.122   4.150   4.162   4.170   4.197   4.234   4.248   4.344
  4.443   5.042   5.094   5.119   5.164   5.242   5.250   5.414
  5.448   5.639   5.643   5.874   5.891  23.798  23.848  23.864
 23.868  23.885  23.921  23.932  23.942  24.001  24.037  24.311
 49.919  49.924  50.025  50.044
 --------------------------------------------------------------
 
          Ground-State Mulliken Net Atomic Charges

     Atom                 Charge (a.u.)
  ----------------------------------------
      1 C                    -0.049389
      2 C                     0.243011
      3 C                    -0.454244
      4 C                    -0.704378
      5 O                    -0.017011
      6 O                    -0.223245
      7 O                     0.004147
      8 O                    -0.188413
      9 C                    -0.176820
     10 C                    -0.239469
     11 C                     0.436302
     12 C                    -0.526004
     13 C                    -0.314241
     14 C                     0.279242
     15 C                    -0.741554
     16 H                     0.174109
     17 H                     0.182948
     18 H                     0.149179
     19 H                     0.153370
     20 H                     0.169239
     21 H                     0.143430
     22 H                     0.206617
     23 H                     0.266870
     24 H                     0.271660
     25 H                     0.175647
     26 H                     0.129492
     27 H                     0.140146
     28 H                     0.262394
     29 H                     0.246965
  ----------------------------------------
  Sum of atomic charges =    -0.000000

 -----------------------------------------------------------------
                    Cartesian Multipole Moments
 -----------------------------------------------------------------
    Charge (ESU x 10^10)
                -0.0000
    Dipole Moment (Debye)
         X       0.5013      Y      -2.5537      Z       2.4087
       Tot       3.5461
    Quadrupole Moments (Debye-Ang)
        XX     -82.6631     XY       0.9337     YY     -91.8137
        XZ       6.7898     YZ       9.1615     ZZ     -89.2497
    Octopole Moments (Debye-Ang^2)
       XXX      37.1653    XXY      -4.4245    XYY      28.0304
       YYY      -6.0709    XXZ      11.7929    XYZ      -4.5343
       YYZ      18.5207    XZZ       4.1055    YZZ       0.0496
       ZZZ       3.2703
    Hexadecapole Moments (Debye-Ang^3)
      XXXX   -1501.2969   XXXY     -78.2203   XXYY    -484.1026
      XYYY      17.7384   YYYY   -1454.0560   XXXZ      33.6845
      XXYZ      12.9943   XYYZ      -3.3224   YYYZ      67.6851
      XXZZ    -370.3949   XYZZ     -19.0011   YYZZ    -329.3284
      XZZZ      15.0382   YZZZ      19.0411   ZZZZ    -564.2602
 -----------------------------------------------------------------
 Calculating analytic gradient of the SCF energy
 Gradient of SCF Energy
            1           2           3           4           5           6
    1  -0.0009595  -0.0002531   0.0012540   0.0006209  -0.0001604  -0.0002869
    2   0.0000586   0.0006842  -0.0001601  -0.0024749  -0.0001862   0.0000343
    3   0.0007893   0.0000187  -0.0015937  -0.0017864   0.0001967   0.0004631
            7           8           9          10          11          12
    1   0.0000221  -0.0003201  -0.0000215   0.0000825   0.0001698  -0.0000156
    2   0.0007386   0.0010551   0.0000525   0.0001173  -0.0001875  -0.0000180
    3   0.0006999   0.0008090   0.0000196   0.0000418  -0.0000736  -0.0000022
           13          14          15          16          17          18
    1  -0.0001214  -0.0000560  -0.0000134  -0.0000241   0.0000015  -0.0000344
    2  -0.0000444  -0.0000036  -0.0000075   0.0000111  -0.0000070   0.0000188
    3   0.0001142   0.0001825   0.0000374  -0.0000227   0.0000009  -0.0000307
           19          20          21          22          23          24
    1   0.0000024   0.0000383  -0.0000235  -0.0000386   0.0000231  -0.0000241
    2   0.0000242  -0.0000091  -0.0000041   0.0000112  -0.0000213  -0.0000113
    3   0.0000197   0.0000327  -0.0000004  -0.0000329  -0.0000222  -0.0000001
           25          26          27          28          29
    1   0.0000277   0.0000031  -0.0000066  -0.0000799   0.0001939
    2  -0.0000429  -0.0000061  -0.0000117   0.0000602   0.0003295
    3  -0.0000080  -0.0000084  -0.0000121   0.0000423   0.0001259
 Max gradient component =       2.475E-03
 RMS gradient           =       4.744E-04
 Gradient time:  CPU 260.60 s  wall 18.63 s
 Geometry Optimization Parameters
   NAtoms,    NIC,     NZ,  NCons,   NDum,   NFix, NCnnct, MaxDiis
       29     227       0       0       0       0       0       0

 Cartesian Hessian Update
 Hessian Updated using BFGS Update


** GEOMETRY OPTIMIZATION IN DELOCALIZED INTERNAL COORDINATES **
   Searching for a Minimum

   Optimization Cycle:   2

                       Coordinates (Angstroms)
     ATOM                X               Y               Z
      1  C        -1.1245636328    0.3850282327   -0.8505725275
      2  C        -0.2086627141   -0.8916137988   -0.9716781155
      3  C        -0.4984652248    1.6864661243   -0.3986356174
      4  C         1.2697251031   -0.6593329918   -0.7314058314
      5  O         0.3366635011    1.5316531465    0.6480220132
      6  O        -0.7582424045    2.7597845137   -0.8876059191
      7  O         1.7745018261   -1.4265895843    0.2529528184
      8  O         1.9351045372    0.1143669607   -1.3781837088
      9  C         3.1738020910   -1.2427906386    0.5347456433
     10  C         1.0087974084    2.7194065971    1.1018635902
     11  C        -2.2831034161   -0.1325141503    0.0974805408
     12  C        -1.6892603525   -0.4063352588    1.4687329689
     13  C        -0.9042778177   -1.4827338466    1.3605451318
     14  C        -0.9590718067   -1.9494236009   -0.0863294576
     15  C        -2.4205931536   -1.5775502784   -0.4353812954
     16  H         3.7752205565   -1.4701355650   -0.3465613580
     17  H         0.2857286402    3.4801966836    1.3989472398
     18  H        -0.2445299944   -1.8927996950    2.1111385579
     19  H         3.4001555932   -1.9337085100    1.3438834553
     20  H         3.3639962807   -0.2134964750    0.8422157928
     21  H         1.6074906054    2.4052300310    1.9542655678
     22  H         1.6454755103    3.1143099719    0.3087400083
     23  H        -0.6413937470   -2.9736349237   -0.2751396997
     24  H        -3.1657354296    0.5044576777    0.0627346024
     25  H        -3.1489790458   -2.1628624199    0.1277098790
     26  H        -2.6493348837   -1.6326320527   -1.5042964532
     27  H        -1.8015697118    0.2387528404    2.3293798873
     28  H        -1.5602787671    0.6139554691   -1.8225925361
     29  H        -0.2523686311   -1.2150362090   -2.0160919274
   Point Group: c1    Number of degrees of freedom:    81


   Energy is   -728.709146176

 Hessian Updated using BFGS Update

 75 Hessian modes will be used to form the next step
  Hessian Eigenvalues:
     0.003385    0.005119    0.007358    0.010457    0.010579    0.011056
     0.012972    0.016448    0.016858    0.019872    0.022535    0.022708
     0.023645    0.029997    0.036512    0.039616    0.041569    0.042588
     0.046767    0.047153    0.051373    0.053713    0.055333    0.055625
     0.058678    0.068361    0.075658    0.094022    0.101108    0.101406
     0.101503    0.105936    0.106156    0.114026    0.123028    0.156480
     0.157309    0.158904    0.159999    0.160458    0.176288    0.226070
     0.228958    0.239884    0.249775    0.249930    0.249991    0.252497
     0.253310    0.256111    0.273032    0.299610    0.308021    0.310296
     0.342976    0.343688    0.346936    0.347007    0.347040    0.347071
     0.347181    0.348658    0.349243    0.349463    0.350456    0.350681
     0.358245    0.359737    0.396912    0.398282    0.514447    0.554813
     0.558206    1.008137    1.010300

 Minimum Search - Taking Simple RFO Step
 Searching for Lamda that Minimizes Along All modes
 Value Taken    Lamda =  -0.00010535
 Step Taken.  Stepsize is  0.077075

                             Maximum     Tolerance    Cnvgd?
         Gradient           0.001219      0.000001      NO
         Displacement       0.027741      0.000001      NO
         Energy change      0.000007      0.000000      NO


 New Cartesian Coordinates Obtained by Inverse Iteration

 Displacement from previous Coordinates is:  0.283704
 Adding empirical dispersion correction 
 ----------------------------------------------------------------
 Doing -D3(op) with
 s6 =   1.00000
 s8 =   0.78311
 a1 =   0.30000
 a2 =   4.25000
 n  =  10.00000
 -D3 energy without 3body term =     -0.0339901239 hartrees
 ----------------------------------------------------------------
             Standard Nuclear Orientation (Angstroms)
    I     Atom           X                Y                Z
 ----------------------------------------------------------------
    1      C      -1.1207872105     0.3866643353    -0.8524678470
    2      C      -0.2019225105    -0.8893190575    -0.9594091636
    3      C      -0.5051802134     1.6911239038    -0.3947299326
    4      C       1.2760973964    -0.6542930976    -0.7204290799
    5      O       0.3264840062     1.5398553164     0.6551535732
    6      O      -0.7686898683     2.7634399138    -0.8838927234
    7      O       1.7885843102    -1.4429039839     0.2427491196
    8      O       1.9412547694     0.1149355531    -1.3726907132
    9      C       3.1928191690    -1.2739250520     0.5086557881
   10      C       0.9896940587     2.7307879390     1.1134639951
   11      C      -2.2872269396    -0.1301262618     0.0866913716
   12      C      -1.7052259483    -0.3902940211     1.4656401090
   13      C      -0.9127394770    -1.4626618822     1.3728293746
   14      C      -0.9533521724    -1.9425343509    -0.0702295457
   15      C      -2.4133069654    -1.5802351055    -0.4353610207
   16      H       3.7807843834    -1.4896647441    -0.3845638185
   17      H       0.2609606847     3.4874284889     1.4073112983
   18      H      -0.2573003122    -1.8628413458     2.1325331963
   19      H       3.4251051313    -1.9806946197     1.3022656964
   20      H       3.3943500667    -0.2515492703     0.8315994657
   21      H       1.5855892675     2.4191881260     1.9687715025
   22      H       1.6285104623     3.1297979414     0.3241280407
   23      H      -0.6294966325    -2.9668923072    -0.2472403742
   24      H      -3.1724050650     0.5023869975     0.0384403495
   25      H      -3.1441066787    -2.1639373942     0.1262705657
   26      H      -2.6325165955    -1.6454390164    -1.5056952450
   27      H      -1.8284874248     0.2611139409     2.3200252723
   28      H      -1.5475363530     0.6116502451    -1.8293609289
   29      H      -0.2437224186    -1.2206429407    -2.0015750759
 ----------------------------------------------------------------
 Nuclear Repulsion Energy =  1091.8420775374 hartrees
 There are       56 alpha and       56 beta electrons
 Applying Cartesian multipole field
    Component          Value
    ---------          -----
     (2,0,0)        1.00000E-11
     (0,2,0)        2.00000E-11
     (0,0,2)       -3.00000E-11
 Nucleus-field energy     =     0.0000000207 hartrees
 Requested basis set is 6-311++G(d,p)
 There are 160 shells and 428 basis functions
 A cutoff of  1.0D-11 yielded  10811 shell pairs
 There are     79219 function pairs (     84707 Cartesian)
 Smallest overlap matrix eigenvalue = 1.15E-06

 Q-Chem warning in module /fs/scratch/osu6415/qchem-kaunlao-vdw/stvman/mkSTV.C, line 281:

 Overlap eigenvalue is smaller than square root of threshold

 Guess MOs from SCF MO coefficient file
 Reading MOs from coefficient file
 Reading MOs from coefficient file
 A restricted hybrid HF-DFT SCF calculation will be
 performed using Pulay DIIS extrapolation
 Exchange:     0.2000 Hartree-Fock + 0.0800 Slater + 0.7200 B88
 Correlation:  0.1900 VWN1RPA + 0.8100 LYP
 Using SG-1 standard quadrature grid
 Dispersion:   Grimme D3
 SCF converges when DIIS error is below 1.0E-08
 Geometry optimization detected.  Setting ReadMinima to 0
 Setting SaveMinima to 0
 using 20 threads for integral computing
 -------------------------------------------------------
 OpenMP Integral computing Module                
 Release: version 1.0, May 2013, Q-Chem Inc. Pittsburgh 
 -------------------------------------------------------
 -------------------------------------------------------
 OpenMP BLAS3 based DFT computing Module                
 Release: version 1.0, May 2013, Q-Chem Inc. Pittsburgh 
 -------------------------------------------------------
 ---------------------------------------
  Cycle       Energy         DIIS Error
 ---------------------------------------
    1    -728.7098255210      3.07E-04
    2    -728.7091538037      2.76E-05
    3    -728.7091473968      3.86E-05
    4    -728.7091743657      1.27E-05
    5    -728.7091769009      3.94E-06
    6    -728.7091771425      1.65E-06
    7    -728.7091771856      6.08E-07
    8    -728.7091771931      1.65E-07
    9    -728.7091771932      6.71E-08
   10    -728.7091771936      2.56E-08
   11    -728.7091771936      1.19E-08
   12    -728.7091771990      3.93E-09 Convergence criterion met
 ---------------------------------------
 SCF time:  CPU 630.48 s  wall 34.35 s
 SCF   energy in the final basis set = -728.70917720
 Total energy in the final basis set = -728.70917720
 
 --------------------------------------------------------------
 
                    Orbital Energies (a.u.)
 --------------------------------------------------------------
 
 Alpha MOs
 -- Occupied --
-19.177 -19.170 -19.113 -19.111 -10.306 -10.301 -10.232 -10.226
-10.205 -10.203 -10.197 -10.193 -10.181 -10.173 -10.172  -1.117
 -1.110  -1.027  -1.023  -0.901  -0.788  -0.765  -0.737  -0.721
 -0.707  -0.641  -0.588  -0.578  -0.568  -0.540  -0.537  -0.524
 -0.499  -0.491  -0.483  -0.477  -0.463  -0.457  -0.440  -0.423
 -0.409  -0.403  -0.396  -0.388  -0.386  -0.370  -0.363  -0.362
 -0.354  -0.346  -0.323  -0.318  -0.308  -0.285  -0.279  -0.252
 -- Virtual --
 -0.017  -0.013  -0.006  -0.004   0.002   0.007   0.013   0.017
  0.021   0.025   0.032   0.037   0.041   0.048   0.052   0.055
  0.057   0.063   0.075   0.083   0.089   0.091   0.095   0.102
  0.104   0.109   0.110   0.112   0.114   0.117   0.118   0.123
  0.127   0.129   0.134   0.135   0.137   0.145   0.146   0.150
  0.151   0.153   0.160   0.160   0.162   0.165   0.168   0.170
  0.174   0.179   0.182   0.185   0.187   0.193   0.196   0.203
  0.207   0.215   0.218   0.220   0.224   0.228   0.234   0.244
  0.246   0.250   0.254   0.262   0.267   0.270   0.275   0.278
  0.285   0.291   0.296   0.301   0.308   0.313   0.323   0.324
  0.326   0.329   0.331   0.338   0.340   0.345   0.352   0.352
  0.358   0.359   0.366   0.373   0.378   0.380   0.383   0.402
  0.409   0.412   0.423   0.428   0.433   0.441   0.449   0.464
  0.476   0.492   0.495   0.503   0.510   0.524   0.535   0.539
  0.549   0.558   0.573   0.587   0.595   0.608   0.611   0.617
  0.628   0.643   0.648   0.652   0.659   0.662   0.670   0.680
  0.683   0.689   0.697   0.701   0.706   0.718   0.723   0.727
  0.732   0.739   0.742   0.757   0.757   0.768   0.772   0.776
  0.781   0.797   0.800   0.817   0.831   0.840   0.859   0.870
  0.888   0.900   0.942   0.946   0.978   1.004   1.025   1.036
  1.054   1.062   1.076   1.082   1.086   1.102   1.117   1.147
  1.164   1.182   1.198   1.208   1.213   1.219   1.237   1.247
  1.275   1.282   1.291   1.294   1.301   1.310   1.318   1.354
  1.368   1.394   1.406   1.411   1.428   1.441   1.446   1.453
  1.477   1.487   1.524   1.535   1.541   1.562   1.567   1.579
  1.579   1.583   1.592   1.604   1.615   1.640   1.651   1.654
  1.661   1.681   1.687   1.702   1.717   1.721   1.725   1.734
  1.753   1.758   1.767   1.781   1.791   1.801   1.815   1.828
  1.835   1.850   1.859   1.876   1.877   1.884   1.900   1.916
  1.917   1.946   1.970   1.975   1.986   1.997   2.017   2.018
  2.034   2.047   2.089   2.099   2.114   2.119   2.134   2.175
  2.180   2.183   2.198   2.208   2.219   2.227   2.234   2.275
  2.323   2.340   2.350   2.373   2.406   2.444   2.452   2.477
  2.485   2.507   2.515   2.522   2.536   2.538   2.559   2.575
  2.592   2.604   2.629   2.633   2.663   2.670   2.677   2.717
  2.730   2.735   2.763   2.784   2.807   2.819   2.830   2.847
  2.851   2.866   2.882   2.901   2.909   2.929   2.939   2.977
  2.979   3.008   3.015   3.019   3.035   3.039   3.064   3.075
  3.096   3.122   3.127   3.152   3.167   3.188   3.218   3.232
  3.242   3.256   3.308   3.331   3.341   3.381   3.387   3.419
  3.463   3.592   3.607   3.615   3.698   3.729   3.774   3.776
  3.789   3.835   3.855   3.918   4.043   4.048   4.074   4.082
  4.121   4.151   4.163   4.169   4.196   4.234   4.248   4.344
  4.443   5.042   5.095   5.117   5.161   5.242   5.252   5.413
  5.446   5.639   5.644   5.874   5.890  23.798  23.848  23.864
 23.867  23.885  23.921  23.932  23.942  24.001  24.037  24.310
 49.917  49.924  50.026  50.044
 --------------------------------------------------------------
 
          Ground-State Mulliken Net Atomic Charges

     Atom                 Charge (a.u.)
  ----------------------------------------
      1 C                    -0.047989
      2 C                     0.256306
      3 C                    -0.449723
      4 C                    -0.728467
      5 O                    -0.015961
      6 O                    -0.223577
      7 O                     0.003425
      8 O                    -0.190038
      9 C                    -0.176996
     10 C                    -0.235920
     11 C                     0.426936
     12 C                    -0.515878
     13 C                    -0.324570
     14 C                     0.290503
     15 C                    -0.741215
     16 H                     0.174736
     17 H                     0.183045
     18 H                     0.149106
     19 H                     0.152923
     20 H                     0.168971
     21 H                     0.144055
     22 H                     0.205775
     23 H                     0.267227
     24 H                     0.271682
     25 H                     0.175805
     26 H                     0.129694
     27 H                     0.140656
     28 H                     0.262574
     29 H                     0.246915
  ----------------------------------------
  Sum of atomic charges =    -0.000000

 -----------------------------------------------------------------
                    Cartesian Multipole Moments
 -----------------------------------------------------------------
    Charge (ESU x 10^10)
                -0.0000
    Dipole Moment (Debye)
         X       0.5059      Y      -2.5613      Z       2.3997
       Tot       3.5461
    Quadrupole Moments (Debye-Ang)
        XX     -82.6577     XY       0.8648     YY     -91.7670
        XZ       6.7035     YZ       9.1855     ZZ     -89.2194
    Octopole Moments (Debye-Ang^2)
       XXX      37.7114    XXY      -5.1043    XYY      28.2806
       YYY      -6.4342    XXZ      11.4841    XYZ      -4.5363
       YYZ      18.5861    XZZ       4.1128    YZZ       0.0386
       ZZZ       2.7346
    Hexadecapole Moments (Debye-Ang^3)
      XXXX   -1507.2560   XXXY     -73.6160   XXYY    -485.8848
      XYYY      24.2507   YYYY   -1459.8112   XXXZ      36.1101
      XXYZ      12.6697   XYYZ      -2.5232   YYYZ      66.1922
      XXZZ    -371.7240   XYZZ     -16.6813   YYZZ    -329.8179
      XZZZ      17.3603   YZZZ      17.6055   ZZZZ    -562.6235
 -----------------------------------------------------------------
 Calculating analytic gradient of the SCF energy
 Gradient of SCF Energy
            1           2           3           4           5           6
    1  -0.0007004   0.0001046   0.0008357  -0.0000416  -0.0002181  -0.0001910
    2   0.0004595  -0.0005173  -0.0000187   0.0003060  -0.0000169  -0.0000067
    3   0.0005971  -0.0005632  -0.0010780   0.0009796   0.0003210   0.0003618
            7           8           9          10          11          12
    1   0.0004916   0.0000123  -0.0001302   0.0000469   0.0004490  -0.0001359
    2  -0.0000373  -0.0002863   0.0000683   0.0000350  -0.0000707   0.0000035
    3  -0.0004192  -0.0003434  -0.0000244  -0.0000405  -0.0000255  -0.0000866
           13          14          15          16          17          18
    1  -0.0000973  -0.0001007   0.0000585   0.0000296  -0.0000012  -0.0001082
    2   0.0000936  -0.0001587  -0.0000262   0.0000044  -0.0000019   0.0000338
    3   0.0002848   0.0000827  -0.0000122   0.0000126   0.0000126  -0.0000413
           19          20          21          22          23          24
    1   0.0000142  -0.0000439  -0.0000214  -0.0000276   0.0000073  -0.0000188
    2  -0.0000038   0.0000210  -0.0000031  -0.0000028  -0.0000701  -0.0000457
    3  -0.0000034  -0.0000019   0.0000113  -0.0000228   0.0000029  -0.0000513
           25          26          27          28          29
    1   0.0000444  -0.0000322  -0.0000172  -0.0001058  -0.0001026
    2  -0.0000407  -0.0000138  -0.0000218  -0.0000387   0.0003562
    3  -0.0000053  -0.0000083  -0.0000137   0.0000134   0.0000611
 Max gradient component =       1.078E-03
 RMS gradient           =       2.649E-04
 Gradient time:  CPU 260.63 s  wall 18.36 s
 Geometry Optimization Parameters
   NAtoms,    NIC,     NZ,  NCons,   NDum,   NFix, NCnnct, MaxDiis
       29     227       0       0       0       0       0       0

 Cartesian Hessian Update
 Hessian Updated using BFGS Update


** GEOMETRY OPTIMIZATION IN DELOCALIZED INTERNAL COORDINATES **
   Searching for a Minimum

   Optimization Cycle:   3

                       Coordinates (Angstroms)
     ATOM                X               Y               Z
      1  C        -1.1207872105    0.3866643353   -0.8524678470
      2  C        -0.2019225105   -0.8893190575   -0.9594091636
      3  C        -0.5051802134    1.6911239038   -0.3947299326
      4  C         1.2760973964   -0.6542930976   -0.7204290799
      5  O         0.3264840062    1.5398553164    0.6551535732
      6  O        -0.7686898683    2.7634399138   -0.8838927234
      7  O         1.7885843102   -1.4429039839    0.2427491196
      8  O         1.9412547694    0.1149355531   -1.3726907132
      9  C         3.1928191690   -1.2739250520    0.5086557881
     10  C         0.9896940587    2.7307879390    1.1134639951
     11  C        -2.2872269396   -0.1301262618    0.0866913716
     12  C        -1.7052259483   -0.3902940211    1.4656401090
     13  C        -0.9127394770   -1.4626618822    1.3728293746
     14  C        -0.9533521724   -1.9425343509   -0.0702295457
     15  C        -2.4133069654   -1.5802351055   -0.4353610207
     16  H         3.7807843834   -1.4896647441   -0.3845638185
     17  H         0.2609606847    3.4874284889    1.4073112983
     18  H        -0.2573003122   -1.8628413458    2.1325331963
     19  H         3.4251051313   -1.9806946197    1.3022656964
     20  H         3.3943500667   -0.2515492703    0.8315994657
     21  H         1.5855892675    2.4191881260    1.9687715025
     22  H         1.6285104623    3.1297979414    0.3241280407
     23  H        -0.6294966325   -2.9668923072   -0.2472403742
     24  H        -3.1724050650    0.5023869975    0.0384403495
     25  H        -3.1441066787   -2.1639373942    0.1262705657
     26  H        -2.6325165955   -1.6454390164   -1.5056952450
     27  H        -1.8284874248    0.2611139409    2.3200252723
     28  H        -1.5475363530    0.6116502451   -1.8293609289
     29  H        -0.2437224186   -1.2206429407   -2.0015750759
   Point Group: c1    Number of degrees of freedom:    81


   Energy is   -728.709177199

 Hessian Updated using BFGS Update

 77 Hessian modes will be used to form the next step
  Hessian Eigenvalues:
     0.003654    0.004968    0.007358    0.010456    0.010578    0.011418
     0.012970    0.016463    0.016855    0.019866    0.022529    0.022595
     0.023579    0.030665    0.039191    0.039956    0.041042    0.045790
     0.046920    0.049992    0.050848    0.053667    0.054634    0.056056
     0.058675    0.068375    0.075585    0.094163    0.098166    0.101378
     0.101463    0.105942    0.106146    0.113981    0.123352    0.144711
     0.156698    0.158550    0.159993    0.160000    0.160424    0.175129
     0.225969    0.230976    0.240170    0.249187    0.249783    0.249944
     0.250001    0.252177    0.253494    0.256120    0.273942    0.299683
     0.308165    0.310411    0.342976    0.343163    0.346937    0.347009
     0.347040    0.347071    0.347181    0.348660    0.349244    0.349472
     0.350456    0.350681    0.358243    0.359745    0.397066    0.398253
     0.514288    0.554674    0.558776    1.008125    1.010205

 Minimum Search - Taking Simple RFO Step
 Searching for Lamda that Minimizes Along All modes
 Value Taken    Lamda =  -0.00004783
 Step Taken.  Stepsize is  0.053934

                             Maximum     Tolerance    Cnvgd?
         Gradient           0.000666      0.000001      NO
         Displacement       0.019334      0.000001      NO
         Energy change     -0.000031      0.000000      NO


 New Cartesian Coordinates Obtained by Inverse Iteration

 Displacement from previous Coordinates is:  0.136130
 Adding empirical dispersion correction 
 ----------------------------------------------------------------
 Doing -D3(op) with
 s6 =   1.00000
 s8 =   0.78311
 a1 =   0.30000
 a2 =   4.25000
 n  =  10.00000
 -D3 energy without 3body term =     -0.0340217009 hartrees
 ----------------------------------------------------------------
             Standard Nuclear Orientation (Angstroms)
    I     Atom           X                Y                Z
 ----------------------------------------------------------------
    1      C      -1.1255126690     0.3886610381    -0.8492537002
    2      C      -0.2018240375    -0.8831411793    -0.9585496942
    3      C      -0.5191054960     1.6951993783    -0.3852979058
    4      C       1.2740706405    -0.6455616390    -0.7127951320
    5      O       0.3288003672     1.5435377884     0.6513103169
    6      O      -0.7775178761     2.7656617949    -0.8813289372
    7      O       1.7816510320    -1.4398884835     0.2484344561
    8      O       1.9409214503     0.1301991101    -1.3554976577
    9      C       3.1859816831    -1.2771192088     0.5184314285
   10      C       0.9993859960     2.7340941483     1.0996086157
   11      C      -2.2897728859    -0.1345798098     0.0897392057
   12      C      -1.7037389784    -0.3990272283     1.4667002972
   13      C      -0.9092831082    -1.4695324265     1.3682839530
   14      C      -0.9513260225    -1.9426282783    -0.0763826171
   15      C      -2.4128424217    -1.5824709650    -0.4382612948
   16      H       3.7750396387    -1.4920853253    -0.3742580848
   17      H       0.2755301060     3.4911796249     1.4041738212
   18      H      -0.2506348997    -1.8709832982     2.1247607692
   19      H       3.4136461919    -1.9875882740     1.3100507363
   20      H       3.3909751643    -0.2566953001     0.8453111873
   21      H       1.6079448356     2.4222814312     1.9458682232
   22      H       1.6267023767     3.1327533724     0.3009196075
   23      H      -0.6247407298    -2.9650921133    -0.2586684001
   24      H      -3.1763246082     0.4963435292     0.0460459992
   25      H      -3.1418321019    -2.1699909062     0.1217843989
   26      H      -2.6330475926    -1.6435974665    -1.5085958361
   27      H      -1.8260824484     0.2490270544     2.3238104331
   28      H      -1.5522760880     0.6146825281    -1.8258648536
   29      H      -0.2385565983    -1.2132206462    -2.0015960857
 ----------------------------------------------------------------
 Nuclear Repulsion Energy =  1092.1944599369 hartrees
 There are       56 alpha and       56 beta electrons
 Applying Cartesian multipole field
    Component          Value
    ---------          -----
     (2,0,0)        1.00000E-11
     (0,2,0)        2.00000E-11
     (0,0,2)       -3.00000E-11
 Nucleus-field energy     =     0.0000000209 hartrees
 Requested basis set is 6-311++G(d,p)
 There are 160 shells and 428 basis functions
 A cutoff of  1.0D-11 yielded  10811 shell pairs
 There are     79233 function pairs (     84727 Cartesian)
 Smallest overlap matrix eigenvalue = 1.14E-06

 Q-Chem warning in module /fs/scratch/osu6415/qchem-kaunlao-vdw/stvman/mkSTV.C, line 281:

 Overlap eigenvalue is smaller than square root of threshold

 Guess MOs from SCF MO coefficient file
 Reading MOs from coefficient file
 Reading MOs from coefficient file
 A restricted hybrid HF-DFT SCF calculation will be
 performed using Pulay DIIS extrapolation
 Exchange:     0.2000 Hartree-Fock + 0.0800 Slater + 0.7200 B88
 Correlation:  0.1900 VWN1RPA + 0.8100 LYP
 Using SG-1 standard quadrature grid
 Dispersion:   Grimme D3
 SCF converges when DIIS error is below 1.0E-08
 Geometry optimization detected.  Setting ReadMinima to 0
 Setting SaveMinima to 0
 using 20 threads for integral computing
 -------------------------------------------------------
 OpenMP Integral computing Module                
 Release: version 1.0, May 2013, Q-Chem Inc. Pittsburgh 
 -------------------------------------------------------
 -------------------------------------------------------
 OpenMP BLAS3 based DFT computing Module                
 Release: version 1.0, May 2013, Q-Chem Inc. Pittsburgh 
 -------------------------------------------------------
 ---------------------------------------
  Cycle       Energy         DIIS Error
 ---------------------------------------
    1    -728.7106214801      2.03E-04
    2    -728.7091400327      1.90E-05
    3    -728.7091375412      2.49E-05
    4    -728.7091490498      8.58E-06
    5    -728.7091503268      2.72E-06
    6    -728.7091504285      1.28E-06
    7    -728.7091504553      3.83E-07
    8    -728.7091504580      1.15E-07
    9    -728.7091504587      3.53E-08
   10    -728.7091504596      1.52E-08
   11    -728.7091504584      8.06E-09 Convergence criterion met
 ---------------------------------------
 SCF time:  CPU 586.13 s  wall 32.42 s
 SCF   energy in the final basis set = -728.70915046
 Total energy in the final basis set = -728.70915046
 
 --------------------------------------------------------------
 
                    Orbital Energies (a.u.)
 --------------------------------------------------------------
 
 Alpha MOs
 -- Occupied --
-19.177 -19.170 -19.113 -19.111 -10.306 -10.301 -10.232 -10.226
-10.205 -10.203 -10.197 -10.193 -10.181 -10.173 -10.172  -1.117
 -1.110  -1.027  -1.023  -0.901  -0.788  -0.766  -0.737  -0.721
 -0.707  -0.641  -0.587  -0.578  -0.568  -0.540  -0.537  -0.524
 -0.499  -0.491  -0.483  -0.477  -0.463  -0.457  -0.440  -0.423
 -0.409  -0.403  -0.396  -0.388  -0.386  -0.370  -0.363  -0.362
 -0.354  -0.346  -0.323  -0.318  -0.308  -0.285  -0.278  -0.252
 -- Virtual --
 -0.017  -0.013  -0.006  -0.004   0.002   0.007   0.013   0.017
  0.021   0.025   0.032   0.037   0.041   0.048   0.052   0.055
  0.058   0.063   0.075   0.083   0.089   0.091   0.095   0.102
  0.104   0.109   0.110   0.112   0.114   0.117   0.118   0.123
  0.127   0.129   0.134   0.135   0.137   0.145   0.146   0.150
  0.151   0.153   0.160   0.160   0.162   0.165   0.168   0.170
  0.174   0.179   0.182   0.185   0.187   0.194   0.195   0.203
  0.207   0.215   0.218   0.220   0.224   0.228   0.234   0.245
  0.246   0.250   0.254   0.262   0.267   0.270   0.275   0.279
  0.285   0.292   0.296   0.302   0.309   0.313   0.323   0.324
  0.326   0.329   0.331   0.338   0.340   0.345   0.351   0.352
  0.358   0.359   0.366   0.373   0.378   0.380   0.383   0.402
  0.409   0.413   0.422   0.428   0.433   0.442   0.450   0.464
  0.475   0.493   0.496   0.503   0.511   0.525   0.535   0.540
  0.550   0.558   0.572   0.587   0.595   0.607   0.612   0.617
  0.628   0.643   0.649   0.652   0.659   0.662   0.670   0.680
  0.683   0.689   0.697   0.700   0.706   0.718   0.723   0.727
  0.732   0.740   0.742   0.757   0.757   0.768   0.772   0.776
  0.781   0.797   0.800   0.817   0.831   0.839   0.859   0.870
  0.888   0.900   0.941   0.947   0.978   1.004   1.026   1.036
  1.054   1.061   1.076   1.079   1.085   1.100   1.116   1.150
  1.165   1.182   1.198   1.208   1.215   1.220   1.236   1.247
  1.274   1.283   1.292   1.295   1.301   1.310   1.318   1.355
  1.368   1.395   1.406   1.413   1.429   1.441   1.446   1.453
  1.477   1.488   1.524   1.534   1.540   1.562   1.567   1.579
  1.579   1.584   1.592   1.604   1.616   1.640   1.651   1.654
  1.661   1.681   1.688   1.702   1.717   1.722   1.725   1.734
  1.752   1.758   1.766   1.782   1.792   1.802   1.815   1.828
  1.836   1.850   1.859   1.876   1.877   1.884   1.901   1.916
  1.918   1.946   1.971   1.975   1.985   1.997   2.017   2.017
  2.035   2.047   2.089   2.099   2.115   2.119   2.134   2.175
  2.180   2.184   2.198   2.207   2.220   2.228   2.234   2.276
  2.323   2.340   2.350   2.373   2.406   2.443   2.452   2.477
  2.485   2.506   2.515   2.522   2.536   2.538   2.560   2.576
  2.592   2.604   2.630   2.633   2.663   2.670   2.677   2.717
  2.730   2.735   2.762   2.784   2.807   2.818   2.831   2.847
  2.850   2.866   2.882   2.903   2.909   2.930   2.940   2.977
  2.979   3.009   3.015   3.019   3.034   3.039   3.066   3.076
  3.096   3.122   3.127   3.152   3.166   3.188   3.219   3.232
  3.243   3.256   3.308   3.332   3.341   3.380   3.386   3.421
  3.463   3.593   3.607   3.615   3.697   3.730   3.774   3.777
  3.789   3.835   3.855   3.918   4.042   4.048   4.075   4.082
  4.121   4.151   4.162   4.169   4.196   4.235   4.249   4.345
  4.444   5.040   5.094   5.117   5.166   5.242   5.252   5.413
  5.446   5.639   5.644   5.874   5.891  23.798  23.849  23.864
 23.868  23.885  23.921  23.932  23.942  24.001  24.037  24.310
 49.917  49.924  50.025  50.045
 --------------------------------------------------------------
 
          Ground-State Mulliken Net Atomic Charges

     Atom                 Charge (a.u.)
  ----------------------------------------
      1 C                    -0.034223
      2 C                     0.241984
      3 C                    -0.459822
      4 C                    -0.716972
      5 O                    -0.016277
      6 O                    -0.223751
      7 O                     0.003401
      8 O                    -0.190461
      9 C                    -0.175681
     10 C                    -0.235200
     11 C                     0.427709
     12 C                    -0.523349
     13 C                    -0.318754
     14 C                     0.288256
     15 C                    -0.740448
     16 H                     0.174892
     17 H                     0.182785
     18 H                     0.149130
     19 H                     0.152979
     20 H                     0.169096
     21 H                     0.143627
     22 H                     0.206310
     23 H                     0.267422
     24 H                     0.271694
     25 H                     0.175425
     26 H                     0.129782
     27 H                     0.140643
     28 H                     0.263229
     29 H                     0.246573
  ----------------------------------------
  Sum of atomic charges =    -0.000000

 -----------------------------------------------------------------
                    Cartesian Multipole Moments
 -----------------------------------------------------------------
    Charge (ESU x 10^10)
                -0.0000
    Dipole Moment (Debye)
         X       0.5211      Y      -2.5820      Z       2.3766
       Tot       3.5477
    Quadrupole Moments (Debye-Ang)
        XX     -82.6890     XY       0.8442     YY     -91.7911
        XZ       6.6619     YZ       9.1634     ZZ     -89.1579
    Octopole Moments (Debye-Ang^2)
       XXX      37.9359    XXY      -5.3176    XYY      28.7122
       YYY      -6.7599    XXZ      11.3921    XYZ      -4.5852
       YYZ      18.3838    XZZ       4.4321    YZZ      -0.1338
       ZZZ       1.9899
    Hexadecapole Moments (Debye-Ang^3)
      XXXX   -1507.2850   XXXY     -74.6074   XXYY    -486.4708
      XYYY      23.6824   YYYY   -1462.7520   XXXZ      34.2743
      XXYZ      13.3398   XYYZ      -3.0628   YYYZ      67.4774
      XXZZ    -370.4611   XYZZ     -17.1980   YYZZ    -329.8174
      XZZZ      15.0225   YZZZ      18.8811   ZZZZ    -558.6641
 -----------------------------------------------------------------
 Calculating analytic gradient of the SCF energy
 Gradient of SCF Energy
            1           2           3           4           5           6
    1   0.0004977   0.0002332  -0.0029653  -0.0001820   0.0011957   0.0010549
    2   0.0001287  -0.0004343   0.0005371  -0.0000238  -0.0003240  -0.0002391
    3  -0.0007037   0.0000451   0.0021293   0.0007218  -0.0007256  -0.0008721
            7           8           9          10          11          12
    1  -0.0001283  -0.0000275  -0.0000179   0.0000336   0.0002164  -0.0000288
    2   0.0000216   0.0002501  -0.0000173  -0.0000044   0.0002271  -0.0000974
    3  -0.0001798  -0.0002365  -0.0000494   0.0000030   0.0001461  -0.0000316
           13          14          15          16          17          18
    1   0.0000937   0.0000666   0.0000266   0.0000139  -0.0000284   0.0000352
    2  -0.0000423   0.0000369   0.0000296   0.0000099  -0.0000104  -0.0000180
    3  -0.0000521  -0.0001163  -0.0001214   0.0000148  -0.0000260   0.0000202
           19          20          21          22          23          24
    1   0.0000027  -0.0000322   0.0000083   0.0000156   0.0000079  -0.0000031
    2   0.0000030   0.0000221  -0.0000027   0.0000708  -0.0000060  -0.0000044
    3  -0.0000073  -0.0000146  -0.0000114   0.0000258   0.0000355  -0.0000261
           25          26          27          28          29
    1  -0.0000199  -0.0000327   0.0000019  -0.0000191  -0.0000187
    2   0.0000596  -0.0000080  -0.0000325  -0.0000947  -0.0000373
    3   0.0000172   0.0000160  -0.0000066  -0.0000685   0.0000741
 Max gradient component =       2.965E-03
 RMS gradient           =       4.742E-04
 Gradient time:  CPU 259.26 s  wall 18.42 s
 Geometry Optimization Parameters
   NAtoms,    NIC,     NZ,  NCons,   NDum,   NFix, NCnnct, MaxDiis
       29     227       0       0       0       0       0       0

 Cartesian Hessian Update
 Hessian Updated using BFGS Update


** GEOMETRY OPTIMIZATION IN DELOCALIZED INTERNAL COORDINATES **
   Searching for a Minimum

   Optimization Cycle:   4

                       Coordinates (Angstroms)
     ATOM                X               Y               Z
      1  C        -1.1255126690    0.3886610381   -0.8492537002
      2  C        -0.2018240375   -0.8831411793   -0.9585496942
      3  C        -0.5191054960    1.6951993783   -0.3852979058
      4  C         1.2740706405   -0.6455616390   -0.7127951320
      5  O         0.3288003672    1.5435377884    0.6513103169
      6  O        -0.7775178761    2.7656617949   -0.8813289372
      7  O         1.7816510320   -1.4398884835    0.2484344561
      8  O         1.9409214503    0.1301991101   -1.3554976577
      9  C         3.1859816831   -1.2771192088    0.5184314285
     10  C         0.9993859960    2.7340941483    1.0996086157
     11  C        -2.2897728859   -0.1345798098    0.0897392057
     12  C        -1.7037389784   -0.3990272283    1.4667002972
     13  C        -0.9092831082   -1.4695324265    1.3682839530
     14  C        -0.9513260225   -1.9426282783   -0.0763826171
     15  C        -2.4128424217   -1.5824709650   -0.4382612948
     16  H         3.7750396387   -1.4920853253   -0.3742580848
     17  H         0.2755301060    3.4911796249    1.4041738212
     18  H        -0.2506348997   -1.8709832982    2.1247607692
     19  H         3.4136461919   -1.9875882740    1.3100507363
     20  H         3.3909751643   -0.2566953001    0.8453111873
     21  H         1.6079448356    2.4222814312    1.9458682232
     22  H         1.6267023767    3.1327533724    0.3009196075
     23  H        -0.6247407298   -2.9650921133   -0.2586684001
     24  H        -3.1763246082    0.4963435292    0.0460459992
     25  H        -3.1418321019   -2.1699909062    0.1217843989
     26  H        -2.6330475926   -1.6435974665   -1.5085958361
     27  H        -1.8260824484    0.2490270544    2.3238104331
     28  H        -1.5522760880    0.6146825281   -1.8258648536
     29  H        -0.2385565983   -1.2132206462   -2.0015960857
   Point Group: c1    Number of degrees of freedom:    81


   Energy is   -728.709150458

 Hessian Updated using BFGS Update

 79 Hessian modes will be used to form the next step
  Hessian Eigenvalues:
     0.003642    0.005201    0.007321    0.010454    0.010570    0.012923
     0.016437    0.016847    0.019773    0.021208    0.022495    0.023404
     0.029624    0.038420    0.039526    0.040731    0.043098    0.045966
     0.046878    0.048295    0.053207    0.054220    0.055471    0.056944
     0.059561    0.068495    0.075628    0.093730    0.097232    0.101377
     0.101465    0.105911    0.106123    0.114263    0.123342    0.133624
     0.156731    0.158501    0.159994    0.159999    0.160267    0.160311
     0.174964    0.225788    0.231156    0.238778    0.240194    0.249934
     0.249976    0.249997    0.250255    0.252245    0.252830    0.256755
     0.273292    0.299677    0.308579    0.310670    0.342825    0.342999
     0.346939    0.347004    0.347039    0.347072    0.347181    0.348663
     0.349244    0.349426    0.350456    0.350679    0.358233    0.359664
     0.396782    0.398286    0.514257    0.554642    0.558244    1.008619
     1.009969

 Minimum Search - Taking Simple RFO Step
 Searching for Lamda that Minimizes Along All modes
 Value Taken    Lamda =  -0.00009027
 Step Taken.  Stepsize is  0.043926

                             Maximum     Tolerance    Cnvgd?
         Gradient           0.000996      0.000001      NO
         Displacement       0.018314      0.000001      NO
         Energy change      0.000027      0.000000      NO


 New Cartesian Coordinates Obtained by Inverse Iteration

 Displacement from previous Coordinates is:  0.163737
 Adding empirical dispersion correction 
 ----------------------------------------------------------------
 Doing -D3(op) with
 s6 =   1.00000
 s8 =   0.78311
 a1 =   0.30000
 a2 =   4.25000
 n  =  10.00000
 -D3 energy without 3body term =     -0.0340004049 hartrees
 ----------------------------------------------------------------
             Standard Nuclear Orientation (Angstroms)
    I     Atom           X                Y                Z
 ----------------------------------------------------------------
    1      C      -1.1197839524     0.3875790749    -0.8542884577
    2      C      -0.2000178636    -0.8868397840    -0.9624637777
    3      C      -0.5107384018     1.6940480839    -0.3935105719
    4      C       1.2775828398    -0.6544671126    -0.7225517233
    5      O       0.3196094405     1.5464554341     0.6576380137
    6      O      -0.7740125883     2.7645666019    -0.8869521977
    7      O       1.7822759638    -1.4428017580     0.2452809610
    8      O       1.9466312900     0.1153808412    -1.3699761993
    9      C       3.1883001872    -1.2866041361     0.5107730059
   10      C       0.9797358299     2.7394197089     1.1148752112
   11      C      -2.2840818956    -0.1299083153     0.0883490113
   12      C      -1.6949476907    -0.3900597891     1.4649337349
   13      C      -0.9023715232    -1.4621615496     1.3683738789
   14      C      -0.9495619609    -1.9409678834    -0.0741411520
   15      C      -2.4113357997    -1.5795056785    -0.4336264777
   16      H       3.7737638081    -1.5141167107    -0.3811817577
   17      H       0.2492088336     3.4956662963     1.4052588689
   18      H      -0.2418583637    -1.8615487960     2.1243831966
   19      H       3.4130551536    -1.9909423975     1.3086664734
   20      H       3.4010048415    -0.2645091771     0.8273137432
   21      H       1.5743738481     2.4307823079     1.9721202606
   22      H       1.6198746953     3.1375506280     0.3261643754
   23      H      -0.6255064507    -2.9647548084    -0.2532618967
   24      H      -3.1691884662     0.5030331372     0.0444830283
   25      H      -3.1400695899    -2.1634704548     0.1304900236
   26      H      -2.6341682005    -1.6443310747    -1.5031857507
   27      H      -1.8134887958     0.2618076840     2.3197166901
   28      H      -1.5470518213     0.6127899175    -1.8308248218
   29      H      -0.2410024471    -1.2216720398    -2.0039724429
 ----------------------------------------------------------------
 Nuclear Repulsion Energy =  1091.9090857311 hartrees
 There are       56 alpha and       56 beta electrons
 Applying Cartesian multipole field
    Component          Value
    ---------          -----
     (2,0,0)        1.00000E-11
     (0,2,0)        2.00000E-11
     (0,0,2)       -3.00000E-11
 Nucleus-field energy     =     0.0000000208 hartrees
 Requested basis set is 6-311++G(d,p)
 There are 160 shells and 428 basis functions
 A cutoff of  1.0D-11 yielded  10811 shell pairs
 There are     79203 function pairs (     84688 Cartesian)
 Smallest overlap matrix eigenvalue = 1.14E-06

 Q-Chem warning in module /fs/scratch/osu6415/qchem-kaunlao-vdw/stvman/mkSTV.C, line 281:

 Overlap eigenvalue is smaller than square root of threshold

 Guess MOs from SCF MO coefficient file
 Reading MOs from coefficient file
 Reading MOs from coefficient file
 A restricted hybrid HF-DFT SCF calculation will be
 performed using Pulay DIIS extrapolation
 Exchange:     0.2000 Hartree-Fock + 0.0800 Slater + 0.7200 B88
 Correlation:  0.1900 VWN1RPA + 0.8100 LYP
 Using SG-1 standard quadrature grid
 Dispersion:   Grimme D3
 SCF converges when DIIS error is below 1.0E-08
 Geometry optimization detected.  Setting ReadMinima to 0
 Setting SaveMinima to 0
 using 20 threads for integral computing
 -------------------------------------------------------
 OpenMP Integral computing Module                
 Release: version 1.0, May 2013, Q-Chem Inc. Pittsburgh 
 -------------------------------------------------------
 -------------------------------------------------------
 OpenMP BLAS3 based DFT computing Module                
 Release: version 1.0, May 2013, Q-Chem Inc. Pittsburgh 
 -------------------------------------------------------
 ---------------------------------------
  Cycle       Energy         DIIS Error
 ---------------------------------------
    1    -728.7072041751      2.01E-04
    2    -728.7091662420      2.92E-05
    3    -728.7091232559      6.01E-05
    4    -728.7091854946      6.44E-06
    5    -728.7091861032      2.94E-06
    6    -728.7091862619      1.03E-06
    7    -728.7091862779      4.96E-07
[...]
     0.24688847      0.19960791     -0.21112537
     0.14467850      0.03958879      0.76609003
    -0.00175845      0.00037366      0.00144822
     0.01094057     -0.00586095      0.02760672
    -0.02884885     -0.14703934     -0.46176312
vibration 69
     0.00463012     -0.00219682      0.01028262
    -0.00365180     -0.02160182     -0.06724321
     0.00011995      0.00006495      0.00041348
    -0.00000367     -0.00004067     -0.00160304
    -0.00008671     -0.00004846     -0.00005622
    -0.00003994     -0.00002843     -0.00005893
    -0.00005270     -0.00021618      0.00011225
    -0.00009374      0.00001556      0.00026764
    -0.00113852     -0.00034228      0.00009737
    -0.00052328     -0.00125956     -0.00013013
     0.00194463     -0.00088644      0.00032013
     0.00013170      0.00018033     -0.00008895
    -0.00008187      0.00019984      0.00029604
    -0.00179801      0.00625569      0.00062635
    -0.01984682     -0.01246360     -0.02474971
     0.00922227     -0.00370096     -0.01512668
    -0.01322527      0.01290374      0.00520579
     0.00040803     -0.00095022      0.00063091
     0.00203978     -0.00759277      0.00825293
     0.00258748      0.01513874      0.00496962
     0.00810178     -0.00428793      0.01157596
     0.01199475      0.00716095     -0.01505571
     0.02473665     -0.07470037     -0.01473777
    -0.02582204      0.01610837     -0.00192287
     0.15048106      0.12152276     -0.12614114
     0.08015015      0.02091083      0.42187595
    -0.00070233      0.00039141      0.00128227
    -0.05352912      0.02603417     -0.12308870
     0.04861691      0.25755814      0.81180234
vibration 70
     0.00044884     -0.00018848      0.00089394
    -0.00014030     -0.00060407     -0.00179155
    -0.00166923      0.00087332     -0.00219137
     0.00018973     -0.00038721      0.00026770
     0.00162495      0.00167636      0.00150531
     0.00022206     -0.00082510      0.00038180
    -0.00043092      0.00007916     -0.00019633
     0.00002668      0.00011495     -0.00005186
    -0.00607827     -0.00188159      0.00006357
     0.01427874      0.04051445      0.00535889
     0.00006249     -0.00009271      0.00003671
    -0.00001571      0.00007459      0.00007055
     0.00002109      0.00001292     -0.00002056
    -0.00010831      0.00033224      0.00004195
    -0.00036970     -0.00023456     -0.00057418
     0.04783742     -0.01911821     -0.07664470
     0.42743501     -0.42161633     -0.16870124
     0.00009743     -0.00017870      0.00022255
     0.01315839     -0.04378903      0.04771693
     0.01588259      0.08627430      0.02866657
    -0.24740501      0.13234065     -0.35423398
    -0.36098793     -0.21706947      0.45316369
     0.00134734     -0.00387514     -0.00073629
    -0.00139979      0.00098753     -0.00009206
     0.00274145      0.00236264     -0.00235361
     0.00170938      0.00039195      0.00908883
     0.00006165     -0.00052301     -0.00059040
    -0.00347224      0.00286062     -0.00871640
     0.00128125      0.00691643      0.02153258
vibration 71
    -0.00022413      0.00007710     -0.00049805
     0.00002012      0.00061899      0.00154538
     0.00022775     -0.00021879      0.00030207
     0.00047609     -0.00195752      0.00218401
    -0.00022754     -0.00019935     -0.00019534
    -0.00002936      0.00017440     -0.00005980
    -0.00246663      0.00037153     -0.00114520
     0.00055181      0.00064032     -0.00051545
    -0.04157247     -0.01289996      0.00033950
    -0.00211015     -0.00603187     -0.00077762
    -0.00019800      0.00014124     -0.00002762
    -0.00002108     -0.00000842      0.00003537
    -0.00006183      0.00002146     -0.00008251
     0.00002686      0.00002604      0.00000521
     0.00084283      0.00050607      0.00127376
     0.32372516     -0.12864011     -0.51744345
    -0.06302387      0.06227237      0.02492950
     0.00071313     -0.00030182      0.00042280
     0.08902552     -0.29459940      0.32173723
     0.10821891      0.58243133      0.19398806
     0.03621073     -0.01930535      0.05176789
     0.05327102      0.03207857     -0.06681169
     0.00008186      0.00028762      0.00011345
     0.00241129     -0.00165185      0.00019859
    -0.00600479     -0.00473329      0.00504663
    -0.00381204     -0.00098113     -0.02011453
     0.00008499     -0.00018361     -0.00040895
     0.00225828     -0.00114890      0.00552217
    -0.00153643     -0.00631841     -0.01973623
vibration 72
    -0.03073981      0.01419351     -0.06818429
    -0.00025320     -0.00322488     -0.00849986
    -0.00046154      0.00183127     -0.00150265
     0.00049901      0.00001043     -0.00020903
     0.00024405     -0.00002715      0.00022982
     0.00022196     -0.00054712      0.00050207
    -0.00003642     -0.00002542     -0.00000922
    -0.00011172     -0.00008299      0.00010853
     0.00007860      0.00008653      0.00001859
     0.00043388      0.00016621      0.00014772
     0.01809884     -0.01352673      0.00103421
    -0.00017589      0.00041742      0.00074346
     0.00010613      0.00002476     -0.00004164
    -0.00201175      0.00533396      0.00142110
    -0.01382802     -0.01187068      0.02164226
    -0.00033270      0.00014365      0.00042194
     0.00076762     -0.00120872     -0.00053977
    -0.00040026      0.00084037     -0.00072320
    -0.00012256      0.00021562     -0.00022213
    -0.00034781     -0.00148241     -0.00050507
    -0.00288875      0.00121631     -0.00408945
    -0.00273498     -0.00182855      0.00299849
     0.02077306     -0.06478722     -0.01234002
    -0.21195302      0.15389706     -0.01308904
     0.18979980      0.15150060     -0.14617461
    -0.02506215     -0.00725855     -0.11253115
     0.00197840     -0.00663126     -0.00811397
     0.35568780     -0.17229970      0.81002214
     0.00620159      0.03660433      0.10787445
vibration 73
     0.01125077     -0.00479047      0.02409267
     0.00041528      0.00190479      0.00482991
     0.00032957     -0.00052706      0.00061977
     0.00010978      0.00003242      0.00012652
    -0.00013928     -0.00001587     -0.00017552
    -0.00012287      0.00016409     -0.00019816
    -0.00006600      0.00003707     -0.00008471
    -0.00003259      0.00000193     -0.00003490
     0.00014332     -0.00016735     -0.00036176
     0.00002130     -0.00002058     -0.00031367
    -0.00045382     -0.00024357      0.00128859
     0.00039579     -0.00023118     -0.00039501
    -0.00001748      0.00031918     -0.00010799
    -0.00255770      0.00689119      0.00241339
    -0.03960707     -0.03519997      0.07005471
    -0.00210402      0.00074616      0.00328785
    -0.00118550      0.00129927      0.00051491
    -0.00206923      0.00158832     -0.00326135
     0.00010001     -0.00048936      0.00044658
     0.00030314      0.00182375      0.00054433
     0.00139141     -0.00072531      0.00199270
    -0.00063893     -0.00033784      0.00100778
     0.02588949     -0.08479704     -0.01628020
    -0.00059705     -0.00142598     -0.00137073
     0.55738924      0.44687690     -0.43217915
    -0.08850844     -0.02905949     -0.41257183
    -0.00001679      0.00050557     -0.00074445
    -0.12557879      0.06232257     -0.28858754
    -0.00180014     -0.01989403     -0.06240311
vibration 74
    -0.00586366      0.00251263     -0.01315448
     0.00033001     -0.00008286      0.00096063
    -0.00025333      0.00074346     -0.00025900
    -0.00005179      0.00024912     -0.00027929
     0.00006259     -0.00003338      0.00006997
     0.00014288     -0.00034559      0.00014052
     0.00000668     -0.00011803      0.00004584
     0.00001301     -0.00005870      0.00007631
     0.00046219     -0.00092625     -0.00084781
     0.00103200     -0.00030071     -0.00047221
    -0.05231100      0.03753149     -0.00350669
     0.00109816     -0.00273796     -0.00219333
     0.00175833     -0.00148018      0.00141217
    -0.01576142      0.05015171      0.00919877
    -0.00000942     -0.00108185     -0.00090945
    -0.00604791      0.00212080      0.00951126
    -0.00605825      0.00588711      0.00216693
    -0.02007368      0.01281898     -0.02006148
    -0.00025294      0.00104130     -0.00142126
     0.00125360      0.00746177      0.00222100
    -0.00155128      0.00081298     -0.00258124
    -0.00465420     -0.00310840      0.00598563
     0.18701041     -0.58865397     -0.10212987
     0.61294117     -0.43630511      0.03286495
     0.00117091      0.00425339     -0.00167777
     0.00092795      0.00306141      0.01193542
    -0.00638051      0.02783158      0.03184676
     0.06621965     -0.03420783      0.15711801
     0.00027474     -0.00125260     -0.01138633
vibration 75
    -0.00594699      0.00351514     -0.01333703
     0.00065866     -0.00173513     -0.00567493
    -0.00021177      0.00082993     -0.00018718
     0.00036981     -0.00032915      0.00025806
     0.00000994     -0.00007008      0.00003810
     0.00012424     -0.00039403      0.00012110
    -0.00007700      0.00012441     -0.00006659
    -0.00015532     -0.00001511     -0.00003968
    -0.00094925      0.00309232      0.00287573
     0.00029097      0.00012821     -0.00001130
    -0.04157028      0.03049844     -0.00247305
     0.00084922     -0.00213476     -0.00129036
    -0.00192430      0.00164958     -0.00099329
     0.02017593     -0.06183724     -0.01099461
    -0.01039137     -0.00795182      0.00498854
     0.01672722     -0.00582992     -0.02675260
     0.00018326     -0.00046699     -0.00024122
     0.02194838     -0.01466474      0.02155582
     0.00003378     -0.00050289      0.00159338
    -0.00566773     -0.03002547     -0.00919929
    -0.00128504      0.00059338     -0.00198062
    -0.00205078     -0.00143002      0.00245724
    -0.22702226      0.71432971      0.12334110
     0.48111711     -0.34254258      0.02548875
     0.10986374      0.08719942     -0.08322474
     0.00478682      0.00153703      0.02001664
    -0.00539765      0.02134801      0.02441131
     0.06662627     -0.03435111      0.15662958
     0.00188354      0.01853557      0.06463566
vibration 76
    -0.00021137      0.00016238     -0.00053271
     0.00008056     -0.00027598     -0.00054350
    -0.00009898      0.00002362     -0.00008747
    -0.00000047      0.00008308      0.00013105
     0.00002146      0.00001113      0.00005590
     0.00002067     -0.00002148      0.00004304
    -0.00010630      0.00028841      0.00026169
    -0.00005991      0.00009974      0.00008238
     0.01984389     -0.06554390     -0.06533205
     0.00515085     -0.00150257     -0.00350341
    -0.00112911      0.00084483     -0.00006457
     0.00000962     -0.00001369      0.00001759
    -0.00005867      0.00006625     -0.00003424
     0.00116437     -0.00361546     -0.00066428
    -0.00033279     -0.00021512     -0.00006686
    -0.36575513      0.12628121      0.58408617
    -0.03325894      0.03348224      0.01239928
     0.00073322     -0.00071737      0.00080208
     0.00357308     -0.01194393     -0.01343816
     0.12783594      0.66023059      0.20172383
    -0.00193522      0.00147332     -0.00476225
    -0.02577531     -0.01682891      0.03376520
    -0.01318025      0.04184920      0.00722082
     0.01288259     -0.00915773      0.00070439
     0.00289066      0.00226884     -0.00214170
     0.00069421      0.00016705      0.00295146
    -0.00015416      0.00025124      0.00026767
     0.00280963     -0.00139475      0.00641723
    -0.00012955      0.00135708      0.00454909
vibration 77
     0.00032547     -0.00010013      0.00020066
    -0.00004471     -0.00000543     -0.00002657
    -0.00009750     -0.00011742      0.00020089
     0.00013576      0.00014475     -0.00008370
    -0.00029933      0.00005689      0.00017646
    -0.00007175      0.00011712      0.00010613
    -0.00001065     -0.00004450      0.00000147
    -0.00008197     -0.00010087      0.00001610
    -0.00133002      0.00419388      0.00466250
     0.07317649     -0.01868159     -0.05743331
     0.00077062     -0.00050781      0.00005483
    -0.00003853      0.00011969      0.00011654
    -0.00001370      0.00001274     -0.00002995
     0.00007586     -0.00025298     -0.00005908
     0.00013796      0.00013114     -0.00022132
     0.02523534     -0.00884484     -0.04033644
    -0.47864844      0.48150508      0.17544229
     0.00039712     -0.00021397      0.00037955
    -0.00093862      0.00285314     -0.00154257
    -0.00856308     -0.04332617     -0.01336198
     0.01071901     -0.00166764     -0.01532704
    -0.39792853     -0.25875483      0.51857592
    -0.00100264      0.00306223      0.00061078
    -0.00900950      0.00632078     -0.00045420
    -0.00191561     -0.00148020      0.00144648
     0.00030542      0.00007113      0.00131977
     0.00013019     -0.00143507     -0.00145385
    -0.00177925      0.00082657     -0.00397996
     0.00000042     -0.00001717      0.00043404
vibration 78
    -0.00012071     -0.00001361     -0.00024179
    -0.00000241     -0.00001311     -0.00001306
     0.00020711      0.00128911     -0.00003885
    -0.00006409      0.00007494     -0.00010241
     0.00016343     -0.00019365      0.00023673
    -0.00000219     -0.00055058      0.00010778
     0.00004699     -0.00002157      0.00005509
     0.00000858     -0.00003226      0.00002953
     0.00004147     -0.00013336     -0.00061492
    -0.04255957      0.04770505     -0.06989413
    -0.00014597      0.00010389     -0.00003741
    -0.00001623      0.00007133      0.00008987
     0.00005750     -0.00005305      0.00007168
    -0.00001311      0.00005995      0.00000416
     0.00003406      0.00002822     -0.00006989
    -0.00226797      0.00108511      0.00381558
     0.21268521     -0.20507392     -0.09892884
    -0.00066287      0.00035263     -0.00074774
     0.00078608     -0.00241250      0.00257834
     0.00085308      0.00274257      0.00063386
     0.48639935     -0.26125825      0.69828708
    -0.19749238     -0.10357932      0.22738314
     0.00023936     -0.00085197     -0.00008715
     0.00181306     -0.00122047      0.00012305
    -0.00054595     -0.00050476      0.00042079
     0.00013771      0.00006923      0.00061552
     0.00002966     -0.00079637     -0.00108422
     0.00154866     -0.00074883      0.00353079
     0.00004937      0.00000969      0.00020504
vibration 79
     0.00000886     -0.00001786      0.00002838
    -0.00004288     -0.00007663     -0.00002083
     0.00003644     -0.00002030      0.00002549
     0.00115085      0.00054793     -0.00024279
    -0.00002322      0.00000911      0.00000270
    -0.00001001      0.00001302     -0.00000884
     0.00000690     -0.00026143      0.00027960
    -0.00044391     -0.00029503      0.00018383
     0.00254160      0.06721279     -0.06668336
     0.00041746     -0.00026002      0.00004164
     0.00003114     -0.00001635     -0.00001311
     0.00000164     -0.00000142      0.00000934
     0.00000654     -0.00001140      0.00000349
    -0.00003536      0.00010242     -0.00000276
     0.00006112      0.00004764     -0.00009151
    -0.16241783      0.07844600      0.25310090
    -0.00265517      0.00259641      0.00105346
    -0.00037645      0.00018722     -0.00017356
     0.17821727     -0.59147236      0.64596791
    -0.05174417     -0.28412515     -0.11009737
    -0.00171327      0.00093556     -0.00267019
    -0.00057748     -0.00060246      0.00096014
     0.00028351     -0.00107108     -0.00020197
    -0.00030886      0.00017864      0.00004903
    -0.00095084     -0.00071767      0.00069003
     0.00015569      0.00004501      0.00059691
     0.00000928      0.00005735      0.00003073
    -0.00011444      0.00002509     -0.00019759
    -0.00008366      0.00020932      0.00074472
vibration 80
    -0.00008203      0.00001958      0.00023983
    -0.00000556      0.00017364     -0.00006090
    -0.00010703     -0.00012358     -0.00028581
     0.00006870     -0.00015484      0.00016009
    -0.00004489     -0.00000753      0.00017130
     0.00001135      0.00003186      0.00004413
     0.00004763      0.00003847     -0.00011049
     0.00000671      0.00006199     -0.00004300
    -0.00009751     -0.00002210     -0.00000858
     0.00011405      0.00007659     -0.00010060
     0.00372012     -0.00259439      0.00156895
     0.00925213     -0.04431999     -0.05756463
     0.02548565     -0.01476786      0.03183164
     0.00060170     -0.00217694     -0.00075245
    -0.00005119      0.00052023      0.00025178
     0.00054996     -0.00014284     -0.00060585
    -0.00018443      0.00025812     -0.00000526
    -0.32075280      0.19430124     -0.37074870
     0.00002671     -0.00016385      0.00019793
     0.00021380      0.00064925      0.00024116
     0.00020913     -0.00013575      0.00019647
    -0.00095509     -0.00062961      0.00115800
    -0.00685144      0.02349340      0.00524493
    -0.03847599      0.02703431     -0.00547683
    -0.00078540     -0.00114984      0.00072819
     0.00024845     -0.00089265     -0.00152452
    -0.09634601      0.50944080      0.66553567
    -0.00007890      0.00070331     -0.00262468
    -0.00031005     -0.00021858      0.00104376
vibration 81
     0.00009827     -0.00006868      0.00031259
    -0.00004930     -0.00005802      0.00043657
    -0.00016667     -0.00012342     -0.00027388
    -0.00025995      0.00014755     -0.00026783
     0.00002319     -0.00001055      0.00016102
     0.00003316      0.00003091      0.00004209
    -0.00001388     -0.00004158      0.00019413
     0.00006095     -0.00003389      0.00005164
     0.00008351     -0.00004463     -0.00003863
    -0.00001847      0.00009989     -0.00013651
     0.00213909     -0.00169960      0.00187244
     0.01023159     -0.03399840     -0.03699284
    -0.04887348      0.03362755     -0.05162670
    -0.00111376      0.00341815      0.00272365
     0.00085322      0.00041246      0.00088064
    -0.00069874      0.00022669      0.00083610
     0.00023479     -0.00015764     -0.00013325
     0.51569717     -0.31588785      0.59113670
     0.00006613     -0.00002081     -0.00004137
     0.00003625      0.00018040     -0.00002715
     0.00082076     -0.00031083      0.00105005
    -0.00056017     -0.00034075      0.00070847
     0.01103881     -0.03436169     -0.01051260
    -0.02018561      0.01503779     -0.00463222
    -0.00303630     -0.00224732      0.00213091
    -0.00113699     -0.00014515     -0.00410702
    -0.06214226      0.31817175      0.41080968
    -0.00056964      0.00054993     -0.00200590
     0.00024929     -0.00021439     -0.00275853
[INT]
    0.856533
    0.703680
    0.352013
    4.617121
    0.035911
    0.218836
    0.924733
    0.500434
    1.888486
    1.862792
    8.608489
    6.345258
   13.931639
    3.895832
    4.515118
    3.334900
    6.988183
    5.626367
    2.119421
    0.958444
    4.112959
   36.335171
   12.507266
    9.636743
   19.601085
    6.185643
    3.513255
    5.452718
   17.387064
    5.911654
    1.958823
    3.036546
    3.943215
    0.691870
    2.798342
    1.658789
   21.531068
   39.544813
   98.114897
    3.235909
    5.422077
    1.051964
    1.719450
    5.271615
    4.001415
    1.601573
   13.866123
   49.343891
   81.339075
  273.975721
   41.692414
   96.339677
    5.916750
   36.602712
   18.443215
   13.293865
    6.364132
    9.591100
   17.558531
    3.712328
   13.158761
   12.197263
    5.592346
    6.100603
    1.715894
  106.181648
  472.209879
   26.742874
   24.823090
   27.699138
   38.215508
    2.710984
   29.857417
   42.852402
   12.852375
   21.524180
   13.663859
   13.224913
   13.194874
    5.033652
    8.704920

======= END OF MOLDEN-FORMATTED INPUT FILE =======


        *************************************************************
        *                                                           *
        *  Thank you very much for using Q-Chem.  Have a nice day.  *
        *                                                           *
        *************************************************************


