mFile = /opt/software/qchem/qchem-5.0.1//bin/mpi/machines
Process 0 of 1 is on vega02.cac.cornell.edu - thread support 0
initial socket setup ...start
initial socket setup ...done 
now start server 0 ... 
vega02.cac.cornell.edu 10.84.3
Q-Chem Developer Version! Running on 10.84.3.*
                  Welcome to Q-Chem
     A Quantum Leap Into The Future Of Chemistry


 Q-Chem 5.0, Q-Chem, Inc., Pleasanton, CA (2017)

 Yihan Shao,  Zhengting Gan,  E. Epifanovsky,  A. T. B. Gilbert,  M. Wormit,  
 J. Kussmann,  A. W. Lange,  A. Behn,  Jia Deng,  Xintian Feng,  D. Ghosh,  
 M. Goldey,  P. R. Horn,  L. D. Jacobson,  I. Kaliman,  T. Kus,  A. Landau,  
 Jie Liu,  E. I. Proynov,  R. M. Richard,  R. P. Steele,  E. J. Sundstrom,  
 H. L. Woodcock III,  P. M. Zimmerman,  D. Zuev,  B. Albrecht,  E. Alguire,  
 S. A. Baeppler,  Z. Benda,  Y. A. Bernard,  E. J. Berquist,  K. B. Bravaya,  
 D. Casanova,  Chun-Min Chang,  Yunqing Chen,  A. Chien,  K. D. Closser,  
 M. P. Coons,  S. Dasgupta,  M. Diedenhofen,  Hainam Do,  R. G. Edgar,  
 Po-Tung Fang,  S. Fatehi,  Qingguo Feng,  Qinghui Ge,  A. Ghysels,  
 J. Gomes,  J. Gonthier,  A. Gunina,  M. W. D. Hanson-Heine,  
 P. H. P. Harbach,  A. W. Hauser,  J. E. Herr,  E. G. Hohenstein,  
 Z. C. Holden,  Kerwin Hui,  T.-C. Jagau,  Hyunjun Ji,  B. Kaduk,  
 K. Khistyaev,  Jaehoon Kim,  P. Klunzinger,  K. Koh,  D. Kosenkov,  
 T. Kowalczyk,  C. M. Krauter,  A. Kunitsa,  Ka Un Lao,  A. Laurent,  
 K. V. Lawler,  Joonho Lee,  D. Lefrancois,  S. Lehtola,  D. S. Levine,  
 Yi-Pei Li,  You-Sheng Lin,  Fenglai Liu,  E. Livshits,  A. Luenser,  
 P. Manohar,  E. Mansoor,  S. F. Manzer,  Shan-Ping Mao,  Yuezhi Mao,  
 N. Mardirossian,  A. V. Marenich,  L. A. Martinez-Martinez,  S. A. Maurer,  
 N. J. Mayhall,  S. C. McKenzie,  J.-M. Mewes,  A. F. Morrison,  K. Nanda,  
 T. S. Nguyen-Beck,  R. Olivares-Amaya,  J. A. Parkhill,  T. M. Perrine,  
 F. Plasser,  S. Prager,  A. Prociuk,  D. R. Rehn,  F. Rob,  M. Schneider,  
 N. Sergueev,  S. M. Sharada,  S. Sharma,  D. W. Small,  T. Stauch,  
 T. Stein,  Yu-Chuan Su,  A. J. W. Thom,  T. Tsuchimochi,  L. Vogt,  
 O. Vydrov,  M. A. Watson,  J. Wenzel,  M. de Wergifosse,  T. A. Wesolowski,  
 A. White,  J. Witte,  A. Yamada,  Jun Yang,  K. Yao,  S. Yeganeh,  
 S. R. Yost,  Zhi-Qiang You,  A. Zech,  Igor Ying Zhang,  Xing Zhang,  
 Yan Zhao,  Ying Zhu,  B. R. Brooks,  G. K. L. Chan,  C. J. Cramer,  
 M. S. Gordon,  W. J. Hehre,  A. Klamt,  M. W. Schmidt,  C. D. Sherrill,  
 D. G. Truhlar,  A. Aspuru-Guzik,  R. Baer,  A. T. Bell,  N. A. Besley,  
 Jeng-Da Chai,  A. Dreuw,  B. D. Dunietz,  T. R. Furlani,  Chao-Ping Hsu,  
 Yousung Jung,  Jing Kong,  D. S. Lambrecht,  WanZhen Liang,  C. Ochsenfeld,  
 V. A. Rassolov,  L. V. Slipchenko,  J. E. Subotnik,  T. Van Voorhis,  
 J. M. Herbert,  A. I. Krylov,  P. M. W. Gill,  M. Head-Gordon

 Contributors to earlier versions of Q-Chem not listed above: 
 R. D. Adamson,  B. Austin,  J. Baker,  G. J. O. Beran,  K. Brandhorst,  
 S. T. Brown,  E. F. C. Byrd,  A. K. Chakraborty,  C.-L. Cheng,  
 Siu Hung Chien,  D. M. Chipman,  D. L. Crittenden,  H. Dachsel,  
 R. A. DiStasio Jr.,  R. J. Doerksen,  A. D. Dutoi,  L. Fusti-Molnar,  
 W. A. Goddard III,  A. Golubeva-Zadorozhnaya,  S. R. Gwaltney,  G. Hawkins,  
 A. Heyden,  S. Hirata,  G. Kedziora,  F. J. Keil,  C. Kelley,  Jihan Kim,  
 R. A. King,  R. Z. Khaliullin,  P. P. Korambath,  W. Kurlancheek,  
 A. M. Lee,  M. S. Lee,  S. V. Levchenko,  Ching Yeh Lin,  D. Liotard,  
 R. C. Lochan,  I. Lotan,  P. E. Maslen,  N. Nair,  D. P. O'Neill,  
 D. Neuhauser,  E. Neuscamman,  C. M. Oana,  R. Olson,  B. Peters,  
 R. Peverati,  P. A. Pieniazek,  Y. M. Rhee,  J. Ritchie,  M. A. Rohrdanz,  
 E. Rosta,  N. J. Russ,  H. F. Schaefer III,  N. E. Schultz,  N. Shenvi,  
 A. C. Simmonett,  A. Sodt,  D. Stuck,  K. S. Thanthiriwatte,  V. Vanovschi,  
 Tao Wang,  A. Warshel,  C. F. Williams,  Q. Wu,  X. Xu,  W. Zhang

 Please cite Q-Chem as follows:
 Y. Shao et al., Mol. Phys. 113, 184-215 (2015)
 DOI: 10.1080/00268976.2014.952696

 Q-Chem 5.0.1 for Intel X86 EM64T Linux

 Parts of Q-Chem use Armadillo 5.200.1 (Boston Tea Smuggler).
 http://arma.sourceforge.net/

 Q-Chem begins on Tue Apr 17 22:31:13 2018  

Host: vega02.cac.cornell.edu
0

     Scratch files written to /scratch/jj585/vdw/0000_distance_4.200_11.save//
 Parallel job on  1  processors

Checking the input file for inconsistencies... 	...done.

--------------------------------------------------------------
User input:
--------------------------------------------------------------
$molecule
0  1
--
0  1
C        +0.20238000        +1.04766000        +0.59128000
C        +0.63819000        -0.38392000        +1.03507000
C        +1.32502000        +1.40342000        -0.40773000
C        +2.63024000        +1.71632000        +0.35656000
C        +3.06844000        +0.28546000        +0.80025000
C        +1.92879000        -0.57154000        +0.20725000
O        +1.61715000        +0.12844000        -1.01410000
H        +3.36771000        +2.16806000        -0.30914000
H        +2.46905000        +2.39751000        +1.19495000
H        +4.02649000        +0.00980000        +0.35668000
H        +3.15140000        +0.17666000        +1.88393000
H        +1.05332000        +2.11810000        -1.18255000
H        +2.19020000        -1.60239000        -0.02473000
H        +0.81538000        -0.46660000        +2.10960000
H        -0.10758000        -1.13032000        +0.75591000
H        -0.76622000        +1.02844000        +0.08894000
H        +0.14243000        +1.75630000        +1.41989000
--
0  1
C        +0.24400000        +2.30296000        +4.59908000
C        +0.67981000        +0.87138000        +5.04287000
C        +1.36664000        +2.65872000        +3.60007000
C        +2.67186000        +2.97162000        +4.36436000
C        +3.11006000        +1.54076000        +4.80805000
C        +1.97041000        +0.68376000        +4.21505000
O        +1.65877000        +1.38374000        +2.99370000
H        +3.40933000        +3.42336000        +3.69866000
H        +2.51067000        +3.65281000        +5.20275000
H        +4.06811000        +1.26510000        +4.36448000
H        +3.19302000        +1.43196000        +5.89173000
H        +1.09494000        +3.37340000        +2.82525000
H        +2.23182000        -0.34709000        +3.98307000
H        +0.85700000        +0.78870000        +6.11740000
H        -0.06596000        +0.12498000        +4.76371000
H        -0.72460000        +2.28374000        +4.09674000
H        +0.18405000        +3.01160000        +5.42769000
$end

$rem
JOBTYPE                   SP
METHOD                    B3LYP
DFT_D                     d3_op
BASIS                     6-311++G(d,p)
SYMMETRY                  False
THRESH                    12
SCF_CONVERGENCE           8
MAX_SUB_FILE_NUM          128
MEM_STATIC                400
MEM_TOTAL                 4000
$end
--------------------------------------------------------------
 Adding empirical dispersion correction 
 ----------------------------------------------------------------
 Doing -D3(op) with
 s6 =   1.00000
 s8 =   0.78311
 a1 =   0.30000
 a2 =   4.25000
 n  =  10.00000
 -D3 energy without 3body term =     -0.0373140681 hartrees
 ----------------------------------------------------------------
             Standard Nuclear Orientation (Angstroms)
    I     Atom           X                Y                Z
 ----------------------------------------------------------------
    1      C      -1.6360645399    -1.2641714250     0.7815047848
    2      C      -1.6362230646    -1.2659825031    -0.7793596909
    3      C      -2.4718261832     0.0003796675     1.0770039172
    4      C      -1.6360119481     1.2649990318     0.7806978419
    5      C      -1.6360268964     1.2656818544    -0.7801480599
    6      C      -2.4694030331     0.0000654293    -1.0778045765
    7      O      -3.4286804446    -0.0003202196    -0.0014338171
    8      H      -2.1288590737     2.1542761934     1.1774034747
    9      H      -0.6339687014     1.2126681319     1.2120568953
   10      H      -2.1321732012     2.1535264839    -1.1753357890
   11      H      -0.6336597818     1.2158248312    -1.2112589375
   12      H      -3.0002248365     0.0007315112     2.0287019598
   13      H      -2.9963313612    -0.0002950794    -2.0302477706
   14      H      -0.6338419106    -1.2176292844    -1.2103364740
   15      H      -2.1331485341    -2.1534204643    -1.1752575328
   16      H      -2.1307808940    -2.1522971895     1.1782278614
   17      H      -0.6341411314    -1.2111529675     1.2124313573
   18      C       2.5639320147    -1.2643752302     0.7812721994
   19      C       2.5637734900    -1.2661863083    -0.7795922763
   20      C       1.7281703714     0.0001758623     1.0767713318
   21      C       2.5639846065     1.2647952266     0.7804652564
   22      C       2.5639696582     1.2654780493    -0.7803806454
   23      C       1.7305935215    -0.0001383758    -1.0780371619
   24      O       0.7713161100    -0.0005240247    -0.0016664026
   25      H       2.0711374809     2.1540723883     1.1771708892
   26      H       3.5660278532     1.2124643268     1.2118243098
   27      H       2.0678233534     2.1533226787    -1.1755683744
   28      H       3.5663367728     1.2156210261    -1.2114915229
   29      H       1.1997717181     0.0005277060     2.0284693744
   30      H       1.2036651934    -0.0004988845    -2.0304803560
   31      H       3.5661546441    -1.2178330895    -1.2105690595
   32      H       2.0668480205    -2.1536242695    -1.1754901183
   33      H       2.0692156606    -2.1525009947     1.1779952759
   34      H       3.5658554232    -1.2113567727     1.2121987718
 ----------------------------------------------------------------
 Molecular Point Group                 C1    NOp =  1
 Largest Abelian Subgroup              C1    NOp =  1
 Nuclear Repulsion Energy =  1012.3345286806 hartrees
 There are       54 alpha and       54 beta electrons
 Requested basis set is 6-311++G(d,p)
 There are 184 shells and 448 basis functions

 Total QAlloc Memory Limit   4000 MB
 Mega-Array Size       392 MB
 MEM_STATIC part       400 MB
 A cutoff of  1.0D-12 yielded  14846 shell pairs
 There are     88556 function pairs (     94010 Cartesian)
 
 -------------------------------------------------------
 OpenMP Integral Computing Module                       
 Release: version 1.0, May 2013, Q-Chem Inc. Pittsburgh 
 -------------------------------------------------------
 Integral Job Info:
 Integral job number is                      11
 Integral operator is                         1
 short-range coefficients                     0
 long-range coefficients              100000000
 Omega coefficients                           0
 if combine SR and LR in K                    0
 Integral screening is                        0
 Integral computing path is                   2
 max size of driver memory is            800000
 size of driver memory is                593474
 size of scratch memory is              2361544
 max col of scratch BK array               1296
 max len of scratch array in speh3          155
 max len of scratch index in speh4           18
 max int batch size is                      520
 min int batch size is                       52
 fixed nKL is                                52
 max L of basis functions is                  2
 order of int derivative is                   0
 number of shells is                        184
 number of basis is                         462
 number of cartesian basis is               462
 number of contracted shell pairs         14846
 number of primitive shell pairs          32076
 maxK2 (contraction) of shell pair           36
 max number of K2 of shell pair               1
 max number of CS2 of shell pair           2622
 max number of PS2 of shell pair           4584
 mem total for path MDJ                  128536
 -------------------------------------------------------
 Smallest overlap matrix eigenvalue = 8.56E-07
 Linear dependence detected in AO basis
 Number of orthogonalized atomic orbitals = 447
 Maximum deviation from orthogonality = 6.925E-11

 Scale SEOQF with 1.000000e-01/1.000000e-01/1.000000e-01

 Standard Electronic Orientation quadrupole field applied
 Nucleus-field energy     =     0.0000000179 hartrees
 Guess from superposition of atomic densities
 Warning:  Energy on first SCF cycle will be non-variational
 A restricted hybrid HF-DFT SCF calculation will be
 performed using Pulay DIIS extrapolation
 Exchange:     0.2000 Hartree-Fock + 0.0800 Slater + 0.7200 B88
 Correlation:  0.1900 VWN1RPA + 0.8100 LYP
 Using SG-1 standard quadrature grid
 Dispersion:   Grimme D3
 SCF converges when DIIS error is below 1.0E-08
 using 4 threads for integral computing
 -------------------------------------------------------
 OpenMP Integral computing Module                
 Release: version 1.0, May 2013, Q-Chem Inc. Pittsburgh 
 -------------------------------------------------------
 -------------------------------------------------------
 OpenMP BLAS3 based DFT computing Module                
 Release: version 1.0, May 2013, Q-Chem Inc. Pittsburgh 
 -------------------------------------------------------
 ---------------------------------------
  Cycle       Energy         DIIS Error
 ---------------------------------------
    1    -622.8680010610      2.92E-02
    2    -619.6481898630      3.33E-03
    3    -619.4661874362      4.37E-03
    4    -619.9239844349      5.45E-04
    5    -619.9286486342      2.50E-04
    6    -619.9297676268      6.88E-05
    7    -619.9298421218      2.20E-05
    8    -619.9298521980      2.62E-06
    9    -619.9298522953      1.64E-06
   10    -619.9298523436      3.66E-07
   11    -619.9298523462      4.82E-08
   12    -619.9298523462      1.67E-08
   13    -619.9298523462      6.36E-09 Convergence criterion met
 ---------------------------------------
 SCF time:  CPU 602.86 s  wall 151.32 s
 SCF   energy in the final basis set = -619.92985235
 Total energy in the final basis set = -619.92985235
 
 --------------------------------------------------------------
 
                    Orbital Energies (a.u.)
 --------------------------------------------------------------
 
 Alpha MOs
 -- Occupied --
-19.127 -19.103 -10.230 -10.230 -10.203 -10.203 -10.179 -10.179
-10.179 -10.179 -10.151 -10.151 -10.150 -10.150  -1.061  -1.031
 -0.810  -0.779  -0.761  -0.758  -0.733  -0.729  -0.622  -0.595
 -0.586  -0.583  -0.557  -0.553  -0.538  -0.509  -0.492  -0.480
 -0.458  -0.447  -0.430  -0.417  -0.402  -0.401  -0.391  -0.378
 -0.373  -0.370  -0.356  -0.354  -0.348  -0.344  -0.337  -0.330
 -0.321  -0.316  -0.302  -0.290  -0.276  -0.246
 -- Virtual --
 -0.015   0.001   0.001   0.005   0.016   0.020   0.021   0.024
  0.024   0.041   0.042   0.045   0.048   0.049   0.060   0.066
  0.073   0.079   0.080   0.081   0.084   0.093   0.099   0.100
  0.104   0.110   0.112   0.116   0.116   0.117   0.123   0.124
  0.128   0.130   0.131   0.132   0.137   0.137   0.139   0.142
  0.142   0.145   0.151   0.156   0.156   0.160   0.165   0.169
  0.169   0.170   0.175   0.176   0.179   0.183   0.185   0.190
  0.191   0.193   0.198   0.202   0.205   0.211   0.212   0.217
  0.223   0.228   0.233   0.235   0.238   0.246   0.248   0.250
  0.252   0.262   0.268   0.270   0.273   0.280   0.283   0.288
  0.289   0.300   0.305   0.313   0.314   0.322   0.326   0.333
  0.333   0.336   0.339   0.347   0.351   0.355   0.357   0.360
  0.361   0.372   0.374   0.375   0.378   0.385   0.389   0.397
  0.398   0.407   0.433   0.435   0.445   0.465   0.474   0.499
  0.516   0.530   0.532   0.536   0.543   0.547   0.548   0.559
  0.560   0.564   0.582   0.584   0.602   0.614   0.643   0.647
  0.650   0.655   0.660   0.662   0.667   0.669   0.684   0.698
  0.699   0.700   0.701   0.706   0.706   0.715   0.718   0.722
  0.737   0.740   0.740   0.750   0.753   0.753   0.759   0.764
  0.777   0.782   0.785   0.791   0.806   0.809   0.821   0.827
  0.839   0.847   0.867   0.882   0.910   0.911   0.924   0.926
  0.928   0.937   0.974   1.017   1.025   1.035   1.051   1.059
  1.059   1.104   1.184   1.196   1.207   1.222   1.232   1.232
  1.251   1.255   1.273   1.298   1.307   1.310   1.328   1.340
  1.373   1.382   1.422   1.441   1.445   1.482   1.488   1.490
  1.496   1.498   1.502   1.516   1.523   1.535   1.537   1.569
  1.570   1.577   1.580   1.589   1.589   1.591   1.606   1.636
  1.637   1.643   1.654   1.663   1.665   1.676   1.677   1.685
  1.689   1.695   1.724   1.751   1.751   1.768   1.771   1.792
  1.808   1.815   1.820   1.832   1.837   1.847   1.853   1.854
  1.857   1.871   1.879   1.893   1.900   1.915   1.918   1.926
  1.927   1.950   1.968   1.972   1.975   1.993   2.016   2.028
  2.033   2.033   2.055   2.060   2.074   2.127   2.138   2.142
  2.149   2.149   2.161   2.176   2.178   2.181   2.203   2.205
  2.237   2.260   2.267   2.289   2.290   2.317   2.333   2.347
  2.351   2.447   2.461   2.466   2.489   2.495   2.508   2.520
  2.521   2.531   2.551   2.553   2.572   2.579   2.602   2.610
  2.612   2.626   2.636   2.660   2.673   2.704   2.732   2.744
  2.751   2.752   2.765   2.780   2.786   2.789   2.791   2.799
  2.812   2.836   2.839   2.857   2.867   2.898   2.907   2.923
  2.938   2.959   2.964   3.000   3.004   3.014   3.022   3.023
  3.043   3.048   3.073   3.097   3.131   3.133   3.134   3.138
  3.155   3.175   3.177   3.232   3.237   3.254   3.284   3.310
  3.322   3.399   3.406   3.416   3.475   3.608   3.680   3.684
  3.776   3.937   3.958   3.961   3.979   3.989   4.015   4.103
  4.116   4.120   4.131   4.136   4.154   4.154   4.185   4.234
  4.265   4.347   4.395   4.455   4.491   5.187   5.225   5.512
  5.595   5.605   5.608  23.829  23.842  23.879  23.879  23.939
 23.947  23.967  23.982  23.998  24.042  24.064  24.132  49.968
 49.981
 --------------------------------------------------------------
 
          Ground-State Mulliken Net Atomic Charges

     Atom                 Charge (a.u.)
  ----------------------------------------
      1 C                    -0.230227
      2 C                    -0.236223
      3 C                    -0.205323
      4 C                    -0.230968
      5 C                    -0.234796
      6 C                    -0.206777
      7 O                    -0.160292
      8 H                     0.182898
      9 H                     0.066283
     10 H                     0.183466
     11 H                     0.067791
     12 H                     0.216812
     13 H                     0.216207
     14 H                     0.068035
     15 H                     0.183358
     16 H                     0.183076
     17 H                     0.066031
     18 C                    -0.486565
     19 C                    -0.489968
     20 C                     0.161370
     21 C                    -0.487206
     22 C                    -0.489774
     23 C                     0.163850
     24 O                     0.084322
     25 H                     0.161866
     26 H                     0.137700
     27 H                     0.161738
     28 H                     0.137807
     29 H                     0.208475
     30 H                     0.208088
     31 H                     0.137744
     32 H                     0.161691
     33 H                     0.161752
     34 H                     0.137759
  ----------------------------------------
  Sum of atomic charges =     0.000000

 -----------------------------------------------------------------
                    Cartesian Multipole Moments
 -----------------------------------------------------------------
    Charge (ESU x 10^10)
                 0.0000
    Dipole Moment (Debye)
         X       4.4990      Y       0.0033      Z       0.0017
       Tot       4.4990
    Quadrupole Moments (Debye-Ang)
        XX     -95.8934     XY       0.0035     YY     -87.6249
        XZ      -0.0080     YZ       0.0056     ZZ     -83.1011
    Octopole Moments (Debye-Ang^2)
       XXX      67.3296    XXY       0.0094    XYY      -3.2773
       YYY       0.0357    XXZ       0.0341    XYZ       0.0088
       YYZ      -0.0138    XZZ      -7.4024    YZZ      -0.0001
       ZZZ      -0.0294
    Hexadecapole Moments (Debye-Ang^3)
      XXXX   -2911.6820   XXXY       0.0428   XXYY    -576.6940
      XYYY       0.0401   YYYY    -717.8566   XXXZ      -0.1567
      XXYZ       0.0293   XYYZ       0.0004   YYYZ       0.0323
      XXZZ    -512.1104   XYZZ       0.0153   YYZZ    -217.8756
      XZZZ       0.0325   YZZZ       0.0304   ZZZZ    -559.9178
 -----------------------------------------------------------------
Archival summary:
1\1\vega02.cac.cornell.edu\SP\ProcedureUnspecified\BasisUnspecified\21220\jj585\TueApr1722:33:462018TueApr1722:33:462018\0\\#,ProcedureUnspecified,BasisUnspecified,\\0,1\O\C,1,1.44173\H,2,1.08855,1,109.379\C,1,1.4418,2,96.7107,3,179.971,0\H,4,1.08849,1,109.339,2,-179.996,0\C,4,1.54431,1,102.437,2,-57.0227,0\H,6,1.09115,4,110.589,1,-83.2363,0\H,6,1.09228,4,112.441,1,155.758,0\C,2,1.54431,1,102.454,3,123.009,0\H,9,1.09128,2,110.579,1,-83.396,0\H,9,1.09195,2,112.414,1,155.582,0\C,2,1.54455,1,102.477,3,-123.013,0\H,12,1.09137,2,110.674,1,83.4826,0\H,12,1.0922,2,112.425,1,-155.592,0\C,4,1.54471,1,102.381,2,57.0829,0\H,15,1.09143,4,110.534,1,83.2474,0\H,15,1.09218,4,112.489,1,-155.81,0\H,1,2.21697,2,90.6514,3,-33.1099,0\C,18,1.09195,1,113.084,2,167.987,0\H,19,1.09128,18,108.18,1,157.686,0\C,19,1.54431,18,112.414,1,-79.9251,0\H,21,1.08855,19,115.484,18,-85.6221,0\O,21,1.44173,19,102.454,18,155.582,0\C,23,1.4418,21,96.7107,19,-57.0198,0\H,24,1.08849,23,109.339,21,-179.996,0\C,24,1.54431,23,102.437,21,-57.0227,0\H,26,1.09115,24,110.589,23,-83.2363,0\H,26,1.09228,24,112.441,23,155.758,0\C,21,1.54455,19,109.93,18,47.1957,0\H,29,1.09137,21,110.674,19,-168.147,0\H,29,1.0922,21,112.425,19,-47.2213,0\C,24,1.54471,23,102.381,21,57.0829,0\H,32,1.09143,24,110.534,23,83.2474,0\H,32,1.09218,24,112.489,23,-155.81,0\\\@

 Total job time:  152.17s(wall), 605.38s(cpu) 
 Tue Apr 17 22:33:46 2018

        *************************************************************
        *                                                           *
        *  Thank you very much for using Q-Chem.  Have a nice day.  *
        *                                                           *
        *************************************************************


0 sent ACK to 0 
now end server 0 ... 
