mFile = /opt/software/qchem/qchem-5.0.1//bin/mpi/machines
Process 0 of 1 is on vega02.cac.cornell.edu - thread support 0
initial socket setup ...start
initial socket setup ...done 
now start server 0 ... 
vega02.cac.cornell.edu 10.84.3
Q-Chem Developer Version! Running on 10.84.3.*
                  Welcome to Q-Chem
     A Quantum Leap Into The Future Of Chemistry


 Q-Chem 5.0, Q-Chem, Inc., Pleasanton, CA (2017)

 Yihan Shao,  Zhengting Gan,  E. Epifanovsky,  A. T. B. Gilbert,  M. Wormit,  
 J. Kussmann,  A. W. Lange,  A. Behn,  Jia Deng,  Xintian Feng,  D. Ghosh,  
 M. Goldey,  P. R. Horn,  L. D. Jacobson,  I. Kaliman,  T. Kus,  A. Landau,  
 Jie Liu,  E. I. Proynov,  R. M. Richard,  R. P. Steele,  E. J. Sundstrom,  
 H. L. Woodcock III,  P. M. Zimmerman,  D. Zuev,  B. Albrecht,  E. Alguire,  
 S. A. Baeppler,  Z. Benda,  Y. A. Bernard,  E. J. Berquist,  K. B. Bravaya,  
 D. Casanova,  Chun-Min Chang,  Yunqing Chen,  A. Chien,  K. D. Closser,  
 M. P. Coons,  S. Dasgupta,  M. Diedenhofen,  Hainam Do,  R. G. Edgar,  
 Po-Tung Fang,  S. Fatehi,  Qingguo Feng,  Qinghui Ge,  A. Ghysels,  
 J. Gomes,  J. Gonthier,  A. Gunina,  M. W. D. Hanson-Heine,  
 P. H. P. Harbach,  A. W. Hauser,  J. E. Herr,  E. G. Hohenstein,  
 Z. C. Holden,  Kerwin Hui,  T.-C. Jagau,  Hyunjun Ji,  B. Kaduk,  
 K. Khistyaev,  Jaehoon Kim,  P. Klunzinger,  K. Koh,  D. Kosenkov,  
 T. Kowalczyk,  C. M. Krauter,  A. Kunitsa,  Ka Un Lao,  A. Laurent,  
 K. V. Lawler,  Joonho Lee,  D. Lefrancois,  S. Lehtola,  D. S. Levine,  
 Yi-Pei Li,  You-Sheng Lin,  Fenglai Liu,  E. Livshits,  A. Luenser,  
 P. Manohar,  E. Mansoor,  S. F. Manzer,  Shan-Ping Mao,  Yuezhi Mao,  
 N. Mardirossian,  A. V. Marenich,  L. A. Martinez-Martinez,  S. A. Maurer,  
 N. J. Mayhall,  S. C. McKenzie,  J.-M. Mewes,  A. F. Morrison,  K. Nanda,  
 T. S. Nguyen-Beck,  R. Olivares-Amaya,  J. A. Parkhill,  T. M. Perrine,  
 F. Plasser,  S. Prager,  A. Prociuk,  D. R. Rehn,  F. Rob,  M. Schneider,  
 N. Sergueev,  S. M. Sharada,  S. Sharma,  D. W. Small,  T. Stauch,  
 T. Stein,  Yu-Chuan Su,  A. J. W. Thom,  T. Tsuchimochi,  L. Vogt,  
 O. Vydrov,  M. A. Watson,  J. Wenzel,  M. de Wergifosse,  T. A. Wesolowski,  
 A. White,  J. Witte,  A. Yamada,  Jun Yang,  K. Yao,  S. Yeganeh,  
 S. R. Yost,  Zhi-Qiang You,  A. Zech,  Igor Ying Zhang,  Xing Zhang,  
 Yan Zhao,  Ying Zhu,  B. R. Brooks,  G. K. L. Chan,  C. J. Cramer,  
 M. S. Gordon,  W. J. Hehre,  A. Klamt,  M. W. Schmidt,  C. D. Sherrill,  
 D. G. Truhlar,  A. Aspuru-Guzik,  R. Baer,  A. T. Bell,  N. A. Besley,  
 Jeng-Da Chai,  A. Dreuw,  B. D. Dunietz,  T. R. Furlani,  Chao-Ping Hsu,  
 Yousung Jung,  Jing Kong,  D. S. Lambrecht,  WanZhen Liang,  C. Ochsenfeld,  
 V. A. Rassolov,  L. V. Slipchenko,  J. E. Subotnik,  T. Van Voorhis,  
 J. M. Herbert,  A. I. Krylov,  P. M. W. Gill,  M. Head-Gordon

 Contributors to earlier versions of Q-Chem not listed above: 
 R. D. Adamson,  B. Austin,  J. Baker,  G. J. O. Beran,  K. Brandhorst,  
 S. T. Brown,  E. F. C. Byrd,  A. K. Chakraborty,  C.-L. Cheng,  
 Siu Hung Chien,  D. M. Chipman,  D. L. Crittenden,  H. Dachsel,  
 R. A. DiStasio Jr.,  R. J. Doerksen,  A. D. Dutoi,  L. Fusti-Molnar,  
 W. A. Goddard III,  A. Golubeva-Zadorozhnaya,  S. R. Gwaltney,  G. Hawkins,  
 A. Heyden,  S. Hirata,  G. Kedziora,  F. J. Keil,  C. Kelley,  Jihan Kim,  
 R. A. King,  R. Z. Khaliullin,  P. P. Korambath,  W. Kurlancheek,  
 A. M. Lee,  M. S. Lee,  S. V. Levchenko,  Ching Yeh Lin,  D. Liotard,  
 R. C. Lochan,  I. Lotan,  P. E. Maslen,  N. Nair,  D. P. O'Neill,  
 D. Neuhauser,  E. Neuscamman,  C. M. Oana,  R. Olson,  B. Peters,  
 R. Peverati,  P. A. Pieniazek,  Y. M. Rhee,  J. Ritchie,  M. A. Rohrdanz,  
 E. Rosta,  N. J. Russ,  H. F. Schaefer III,  N. E. Schultz,  N. Shenvi,  
 A. C. Simmonett,  A. Sodt,  D. Stuck,  K. S. Thanthiriwatte,  V. Vanovschi,  
 Tao Wang,  A. Warshel,  C. F. Williams,  Q. Wu,  X. Xu,  W. Zhang

 Please cite Q-Chem as follows:
 Y. Shao et al., Mol. Phys. 113, 184-215 (2015)
 DOI: 10.1080/00268976.2014.952696

 Q-Chem 5.0.1 for Intel X86 EM64T Linux

 Parts of Q-Chem use Armadillo 5.200.1 (Boston Tea Smuggler).
 http://arma.sourceforge.net/

 Q-Chem begins on Tue Apr 17 22:28:54 2018  

Host: vega02.cac.cornell.edu
0

     Scratch files written to /scratch/jj585/vdw/0000_distance_4.200_01.save//
 Parallel job on  1  processors

Checking the input file for inconsistencies... 	...done.

--------------------------------------------------------------
User input:
--------------------------------------------------------------
$molecule
0  1
C        +0.24400000        +2.30296000        +4.59908000
C        +0.67981000        +0.87138000        +5.04287000
C        +1.36664000        +2.65872000        +3.60007000
C        +2.67186000        +2.97162000        +4.36436000
C        +3.11006000        +1.54076000        +4.80805000
C        +1.97041000        +0.68376000        +4.21505000
O        +1.65877000        +1.38374000        +2.99370000
H        +3.40933000        +3.42336000        +3.69866000
H        +2.51067000        +3.65281000        +5.20275000
H        +4.06811000        +1.26510000        +4.36448000
H        +3.19302000        +1.43196000        +5.89173000
H        +1.09494000        +3.37340000        +2.82525000
H        +2.23182000        -0.34709000        +3.98307000
H        +0.85700000        +0.78870000        +6.11740000
H        -0.06596000        +0.12498000        +4.76371000
H        -0.72460000        +2.28374000        +4.09674000
H        +0.18405000        +3.01160000        +5.42769000
@C        +0.20238000        +1.04766000        +0.59128000
@C        +0.63819000        -0.38392000        +1.03507000
@C        +1.32502000        +1.40342000        -0.40773000
@C        +2.63024000        +1.71632000        +0.35656000
@C        +3.06844000        +0.28546000        +0.80025000
@C        +1.92879000        -0.57154000        +0.20725000
@O        +1.61715000        +0.12844000        -1.01410000
@H        +3.36771000        +2.16806000        -0.30914000
@H        +2.46905000        +2.39751000        +1.19495000
@H        +4.02649000        +0.00980000        +0.35668000
@H        +3.15140000        +0.17666000        +1.88393000
@H        +1.05332000        +2.11810000        -1.18255000
@H        +2.19020000        -1.60239000        -0.02473000
@H        +0.81538000        -0.46660000        +2.10960000
@H        -0.10758000        -1.13032000        +0.75591000
@H        -0.76622000        +1.02844000        +0.08894000
@H        +0.14243000        +1.75630000        +1.41989000
$end

$rem
JOBTYPE                   SP
METHOD                    B3LYP
DFT_D                     d3_op
BASIS                     6-311++G(d,p)
SYMMETRY                  False
THRESH                    12
SCF_CONVERGENCE           8
MAX_SUB_FILE_NUM          128
MEM_STATIC                400
MEM_TOTAL                 4000
$end
--------------------------------------------------------------
 Adding empirical dispersion correction 
 ----------------------------------------------------------------
 Doing -D3(op) with
 s6 =   1.00000
 s8 =   0.78311
 a1 =   0.30000
 a2 =   4.25000
 n  =  10.00000
 -D3 energy without 3body term =     -0.0133729297 hartrees
 ----------------------------------------------------------------
             Standard Nuclear Orientation (Angstroms)
    I     Atom           X                Y                Z
 ----------------------------------------------------------------
    1      C       0.2440000000     2.3029600000     4.5990800000
    2      C       0.6798100000     0.8713800000     5.0428700000
    3      C       1.3666400000     2.6587200000     3.6000700000
    4      C       2.6718600000     2.9716200000     4.3643600000
    5      C       3.1100600000     1.5407600000     4.8080500000
    6      C       1.9704100000     0.6837600000     4.2150500000
    7      O       1.6587700000     1.3837400000     2.9937000000
    8      H       3.4093300000     3.4233600000     3.6986600000
    9      H       2.5106700000     3.6528100000     5.2027500000
   10      H       4.0681100000     1.2651000000     4.3644800000
   11      H       3.1930200000     1.4319600000     5.8917300000
   12      H       1.0949400000     3.3734000000     2.8252500000
   13      H       2.2318200000    -0.3470900000     3.9830700000
   14      H       0.8570000000     0.7887000000     6.1174000000
   15      H      -0.0659600000     0.1249800000     4.7637100000
   16      H      -0.7246000000     2.2837400000     4.0967400000
   17      H       0.1840500000     3.0116000000     5.4276900000
   18      GH      0.2023800000     1.0476600000     0.5912800000
   19      GH      0.6381900000    -0.3839200000     1.0350700000
   20      GH      1.3250200000     1.4034200000    -0.4077300000
   21      GH      2.6302400000     1.7163200000     0.3565600000
   22      GH      3.0684400000     0.2854600000     0.8002500000
   23      GH      1.9287900000    -0.5715400000     0.2072500000
   24      GH      1.6171500000     0.1284400000    -1.0141000000
   25      GH      3.3677100000     2.1680600000    -0.3091400000
   26      GH      2.4690500000     2.3975100000     1.1949500000
   27      GH      4.0264900000     0.0098000000     0.3566800000
   28      GH      3.1514000000     0.1766600000     1.8839300000
   29      GH      1.0533200000     2.1181000000    -1.1825500000
   30      GH      2.1902000000    -1.6023900000    -0.0247300000
   31      GH      0.8153800000    -0.4666000000     2.1096000000
   32      GH     -0.1075800000    -1.1303200000     0.7559100000
   33      GH     -0.7662200000     1.0284400000     0.0889400000
   34      GH      0.1424300000     1.7563000000     1.4198900000
 ----------------------------------------------------------------
 Nuclear Repulsion Energy =   331.2676235907 hartrees
 There are       27 alpha and       27 beta electrons
 Requested basis set is 6-311++G(d,p)
 There are 184 shells and 448 basis functions

 Total QAlloc Memory Limit   4000 MB
 Mega-Array Size       392 MB
 MEM_STATIC part       400 MB
 A cutoff of  1.0D-12 yielded  14846 shell pairs
 There are     88556 function pairs (     94010 Cartesian)
 
 -------------------------------------------------------
 OpenMP Integral Computing Module                       
 Release: version 1.0, May 2013, Q-Chem Inc. Pittsburgh 
 -------------------------------------------------------
 Integral Job Info:
 Integral job number is                      11
 Integral operator is                         1
 short-range coefficients                     0
 long-range coefficients              100000000
 Omega coefficients                           0
 if combine SR and LR in K                    0
 Integral screening is                        0
 Integral computing path is                   2
 max size of driver memory is            800000
 size of driver memory is                593474
 size of scratch memory is              2361544
 max col of scratch BK array               1296
 max len of scratch array in speh3          155
 max len of scratch index in speh4           18
 max int batch size is                      520
 min int batch size is                       52
 fixed nKL is                                52
 max L of basis functions is                  2
 order of int derivative is                   0
 number of shells is                        184
 number of basis is                         462
 number of cartesian basis is               462
 number of contracted shell pairs         14846
 number of primitive shell pairs          32076
 maxK2 (contraction) of shell pair           36
 max number of K2 of shell pair               1
 max number of CS2 of shell pair           2622
 max number of PS2 of shell pair           4584
 mem total for path MDJ                  128536
 -------------------------------------------------------
 Smallest overlap matrix eigenvalue = 8.56E-07
 Linear dependence detected in AO basis
 Number of orthogonalized atomic orbitals = 447
 Maximum deviation from orthogonality = 4.496E-11

 Scale SEOQF with 1.000000e-01/1.000000e-01/1.000000e-02

 Standard Electronic Orientation quadrupole field applied
 Nucleus-field energy     =     0.0000000124 hartrees
 Guess from superposition of atomic densities
 Warning:  Energy on first SCF cycle will be non-variational

 Q-Chem warning in module /opt/software/qchem/qchem-5.0.1/libgen/Atomic_PolEc.C, line 58:

 No atomic polarizability available.


 Q-Chem warning in module /opt/software/qchem/qchem-5.0.1/libgen/Atomic_PolEc.C, line 73:

 No atomic polarizability available.


 Q-Chem warning in module /opt/software/qchem/qchem-5.0.1/libgen/Atomic_PolEc.C, line 58:

 No atomic polarizability available.


 Q-Chem warning in module /opt/software/qchem/qchem-5.0.1/libgen/Atomic_PolEc.C, line 73:

 No atomic polarizability available.


 Q-Chem warning in module /opt/software/qchem/qchem-5.0.1/libgen/Atomic_PolEc.C, line 58:

 No atomic polarizability available.


 Q-Chem warning in module /opt/software/qchem/qchem-5.0.1/libgen/Atomic_PolEc.C, line 73:

 No atomic polarizability available.


 Q-Chem warning in module /opt/software/qchem/qchem-5.0.1/libgen/Atomic_PolEc.C, line 58:

 No atomic polarizability available.


 Q-Chem warning in module /opt/software/qchem/qchem-5.0.1/libgen/Atomic_PolEc.C, line 73:

 No atomic polarizability available.


 Q-Chem warning in module /opt/software/qchem/qchem-5.0.1/libgen/Atomic_PolEc.C, line 58:

 No atomic polarizability available.


 Q-Chem warning in module /opt/software/qchem/qchem-5.0.1/libgen/Atomic_PolEc.C, line 73:

 No atomic polarizability available.


 Q-Chem warning in module /opt/software/qchem/qchem-5.0.1/libgen/Atomic_PolEc.C, line 58:

 No atomic polarizability available.


 Q-Chem warning in module /opt/software/qchem/qchem-5.0.1/libgen/Atomic_PolEc.C, line 73:

 No atomic polarizability available.


 Q-Chem warning in module /opt/software/qchem/qchem-5.0.1/libgen/Atomic_PolEc.C, line 58:

 No atomic polarizability available.


 Q-Chem warning in module /opt/software/qchem/qchem-5.0.1/libgen/Atomic_PolEc.C, line 73:

 No atomic polarizability available.


 Q-Chem warning in module /opt/software/qchem/qchem-5.0.1/libgen/Atomic_PolEc.C, line 58:

 No atomic polarizability available.


 Q-Chem warning in module /opt/software/qchem/qchem-5.0.1/libgen/Atomic_PolEc.C, line 73:

 No atomic polarizability available.


 Q-Chem warning in module /opt/software/qchem/qchem-5.0.1/libgen/Atomic_PolEc.C, line 58:

 No atomic polarizability available.


 Q-Chem warning in module /opt/software/qchem/qchem-5.0.1/libgen/Atomic_PolEc.C, line 73:

 No atomic polarizability available.


 Q-Chem warning in module /opt/software/qchem/qchem-5.0.1/libgen/Atomic_PolEc.C, line 58:

 No atomic polarizability available.


 Q-Chem warning in module /opt/software/qchem/qchem-5.0.1/libgen/Atomic_PolEc.C, line 73:

 No atomic polarizability available.


 Q-Chem warning in module /opt/software/qchem/qchem-5.0.1/libgen/Atomic_PolEc.C, line 58:

 No atomic polarizability available.


 Q-Chem warning in module /opt/software/qchem/qchem-5.0.1/libgen/Atomic_PolEc.C, line 73:

 No atomic polarizability available.


 Q-Chem warning in module /opt/software/qchem/qchem-5.0.1/libgen/Atomic_PolEc.C, line 58:

 No atomic polarizability available.


 Q-Chem warning in module /opt/software/qchem/qchem-5.0.1/libgen/Atomic_PolEc.C, line 73:

 No atomic polarizability available.


 Q-Chem warning in module /opt/software/qchem/qchem-5.0.1/libgen/Atomic_PolEc.C, line 58:

 No atomic polarizability available.


 Q-Chem warning in module /opt/software/qchem/qchem-5.0.1/libgen/Atomic_PolEc.C, line 73:

 No atomic polarizability available.


 Q-Chem warning in module /opt/software/qchem/qchem-5.0.1/libgen/Atomic_PolEc.C, line 58:

 No atomic polarizability available.


 Q-Chem warning in module /opt/software/qchem/qchem-5.0.1/libgen/Atomic_PolEc.C, line 73:

 No atomic polarizability available.


 Q-Chem warning in module /opt/software/qchem/qchem-5.0.1/libgen/Atomic_PolEc.C, line 58:

 No atomic polarizability available.


 Q-Chem warning in module /opt/software/qchem/qchem-5.0.1/libgen/Atomic_PolEc.C, line 73:

 No atomic polarizability available.


 Q-Chem warning in module /opt/software/qchem/qchem-5.0.1/libgen/Atomic_PolEc.C, line 58:

 No atomic polarizability available.


 Q-Chem warning in module /opt/software/qchem/qchem-5.0.1/libgen/Atomic_PolEc.C, line 73:

 No atomic polarizability available.


 Q-Chem warning in module /opt/software/qchem/qchem-5.0.1/libgen/Atomic_PolEc.C, line 58:

 No atomic polarizability available.


 Q-Chem warning in module /opt/software/qchem/qchem-5.0.1/libgen/Atomic_PolEc.C, line 73:

 No atomic polarizability available.

 A restricted hybrid HF-DFT SCF calculation will be
 performed using Pulay DIIS extrapolation
 Exchange:     0.2000 Hartree-Fock + 0.0800 Slater + 0.7200 B88
 Correlation:  0.1900 VWN1RPA + 0.8100 LYP
 Using SG-1 standard quadrature grid
 Dispersion:   Grimme D3
 SCF converges when DIIS error is below 1.0E-08
 using 4 threads for integral computing
 -------------------------------------------------------
 OpenMP Integral computing Module                
 Release: version 1.0, May 2013, Q-Chem Inc. Pittsburgh 
 -------------------------------------------------------
 -------------------------------------------------------
 OpenMP BLAS3 based DFT computing Module                
 Release: version 1.0, May 2013, Q-Chem Inc. Pittsburgh 
 -------------------------------------------------------
 ---------------------------------------
  Cycle       Energy         DIIS Error
 ---------------------------------------
    1    -311.3833484255      2.06E-02
    2    -309.8282334743      2.35E-03
    3    -309.7405855380      3.08E-03
    4    -309.9657989233      3.96E-04
    5    -309.9681379284      1.82E-04
    6    -309.9687231696      4.87E-05
    7    -309.9687626631      1.52E-05
    8    -309.9687676454      1.55E-06
    9    -309.9687677050      3.93E-07
   10    -309.9687677092      5.73E-08
   11    -309.9687677093      9.75E-09 Convergence criterion met
 ---------------------------------------
 SCF time:  CPU 541.82 s  wall 135.93 s
 SCF   energy in the final basis set = -309.96876771
 Total energy in the final basis set = -309.96876771
 
 --------------------------------------------------------------
 
                    Orbital Energies (a.u.)
 --------------------------------------------------------------
 
 Alpha MOs
 -- Occupied --
-19.118 -10.219 -10.219 -10.170 -10.170 -10.170 -10.170  -1.046
 -0.798  -0.751  -0.745  -0.612  -0.572  -0.571  -0.524  -0.478
 -0.468  -0.418  -0.408  -0.389  -0.367  -0.361  -0.348  -0.342
 -0.323  -0.306  -0.263
 -- Virtual --
 -0.011   0.008   0.009   0.011   0.029   0.032   0.032   0.032
  0.035   0.049   0.057   0.059   0.064   0.068   0.070   0.085
  0.087   0.087   0.090   0.092   0.100   0.102   0.105   0.111
  0.112   0.118   0.129   0.132   0.133   0.134   0.134   0.140
  0.141   0.141   0.149   0.152   0.153   0.156   0.159   0.163
  0.164   0.175   0.176   0.178   0.180   0.181   0.183   0.188
  0.191   0.196   0.200   0.203   0.209   0.210   0.210   0.216
  0.223   0.224   0.230   0.231   0.238   0.242   0.244   0.247
  0.253   0.253   0.263   0.270   0.273   0.277   0.279   0.280
  0.286   0.288   0.295   0.309   0.324   0.326   0.340   0.341
  0.345   0.354   0.363   0.366   0.369   0.374   0.376   0.386
  0.386   0.394   0.395   0.402   0.404   0.420   0.425   0.432
  0.433   0.444   0.444   0.451   0.456   0.473   0.488   0.504
  0.515   0.528   0.537   0.547   0.556   0.557   0.559   0.560
  0.576   0.580   0.581   0.602   0.621   0.626   0.631   0.640
  0.641   0.661   0.664   0.672   0.673   0.683   0.690   0.691
  0.702   0.716   0.725   0.729   0.736   0.742   0.747   0.750
  0.752   0.767   0.768   0.778   0.787   0.794   0.796   0.801
  0.801   0.802   0.820   0.830   0.836   0.861   0.873   0.873
  0.928   0.929   0.932   0.935   0.964   0.970   0.990   1.017
  1.047   1.063   1.070   1.095   1.113   1.135   1.144   1.159
  1.161   1.166   1.200   1.214   1.232   1.250   1.254   1.254
  1.314   1.316   1.316   1.347   1.349   1.380   1.429   1.441
  1.446   1.484   1.490   1.499   1.513   1.526   1.531   1.539
  1.559   1.571   1.577   1.604   1.604   1.624   1.631   1.632
  1.658   1.667   1.676   1.686   1.688   1.711   1.716   1.723
  1.727   1.749   1.756   1.773   1.785   1.793   1.797   1.806
  1.827   1.828   1.830   1.835   1.849   1.860   1.879   1.880
  1.896   1.903   1.903   1.925   1.932   1.949   1.954   1.961
  1.964   1.966   1.989   1.994   2.015   2.025   2.032   2.038
  2.044   2.070   2.083   2.103   2.140   2.163   2.165   2.166
  2.166   2.177   2.192   2.202   2.244   2.250   2.252   2.276
  2.290   2.300   2.310   2.345   2.346   2.366   2.404   2.413
  2.422   2.435   2.458   2.458   2.476   2.482   2.482   2.490
  2.497   2.504   2.514   2.517   2.523   2.552   2.557   2.564
  2.593   2.624   2.631   2.636   2.641   2.674   2.687   2.714
  2.732   2.733   2.765   2.772   2.773   2.776   2.803   2.817
  2.843   2.858   2.859   2.861   2.883   2.907   2.908   2.927
  2.933   2.966   2.995   3.008   3.014   3.025   3.042   3.048
  3.054   3.059   3.092   3.132   3.140   3.151   3.182   3.184
  3.198   3.232   3.256   3.258   3.290   3.311   3.311   3.327
  3.388   3.397   3.421   3.455   3.509   3.534   3.553   3.574
  3.618   3.643   3.657   3.688   3.688   3.723   3.774   3.802
  3.812   3.852   3.874   3.882   3.961   3.970   4.021   4.031
  4.064   4.128   4.131   4.142   4.164   4.274   4.371   4.467
  4.608   4.661   4.770   4.799   4.825   4.849   4.870   4.874
  4.902   4.919   5.081   5.082   5.109   5.247   5.343   5.612
  5.622   5.713   7.313   7.420   7.489   7.540   7.633   7.676
  7.707   7.849   7.898   7.971   7.991   8.021   8.169   8.279
  8.364   8.426   8.679   8.683   9.913   9.929   9.998  10.026
 10.038  10.168  13.597  13.918  13.987  18.614  23.843  23.857
 23.949  23.962  23.978  24.085  49.991  69.655  69.732  69.764
 69.799  69.979  70.156 139.614
 --------------------------------------------------------------
 
          Ground-State Mulliken Net Atomic Charges

     Atom                 Charge (a.u.)
  ----------------------------------------
      1 C                    -0.500798
      2 C                    -0.507791
      3 C                     0.249637
      4 C                    -0.503552
      5 C                    -0.505480
      6 C                     0.254763
      7 O                     0.075470
      8 H                     0.156684
      9 H                     0.132296
     10 H                     0.156280
     11 H                     0.132166
     12 H                     0.197045
     13 H                     0.196805
     14 H                     0.132121
     15 H                     0.156669
     16 H                     0.155969
     17 H                     0.132063
     18 GH                   -0.014042
     19 GH                   -0.014524
     20 GH                    0.037438
     21 GH                   -0.014733
     22 GH                   -0.014462
     23 GH                    0.034954
     24 GH                   -0.000156
     25 GH                   -0.004470
     26 GH                   -0.029236
     27 GH                   -0.004379
     28 GH                   -0.027998
     29 GH                    0.003987
     30 GH                    0.003728
     31 GH                   -0.028228
     32 GH                   -0.004347
     33 GH                   -0.004403
     34 GH                   -0.029475
  ----------------------------------------
  Sum of atomic charges =    -0.000000

 -----------------------------------------------------------------
                    Cartesian Multipole Moments
 -----------------------------------------------------------------
    Charge (ESU x 10^10)
                -0.0000
    Dipole Moment (Debye)
         X       0.0196      Y       0.5243      Z       1.6662
       Tot       1.7468
    Quadrupole Moments (Debye-Ang)
        XX     -43.1178     XY       0.3332     YY     -39.9735
        XZ       3.0091     YZ       3.5011     ZZ     -32.5506
    Octopole Moments (Debye-Ang^2)
       XXX    -216.5316    XXY     -78.5441    XYY     -68.6552
       YYY    -222.9295    XXZ    -182.5158    XYZ       4.1421
       YYZ    -174.3978    XZZ     -52.9839    YZZ     -59.1268
       ZZZ    -504.4694
    Hexadecapole Moments (Debye-Ang^3)
      XXXX   -1074.8011   XXXY    -403.0315   XXYY    -364.8229
      XYYY    -388.5815   YYYY   -1089.6113   XXXZ    -929.9157
      XXYZ    -332.3387   XYYZ    -297.2568   YYYZ    -957.8169
      XXZZ    -998.0808   XYZZ    -108.8800   YYZZ    -972.7555
      XZZZ    -829.7615   YZZZ    -893.7939   ZZZZ   -4741.1256
 -----------------------------------------------------------------
Archival summary:
1\1\vega02.cac.cornell.edu\SP\ProcedureUnspecified\BasisUnspecified\1610h17\jj585\TueApr1722:31:112018TueApr1722:31:112018\0\\#,ProcedureUnspecified,BasisUnspecified,\\0,1\O\C,1,1.44173\H,2,1.08855,1,109.379\C,1,1.4418,2,96.7107,3,179.971,0\H,4,1.08849,1,109.339,2,-179.996,0\C,4,1.54431,1,102.437,2,-57.0227,0\H,6,1.09115,4,110.589,1,-83.2363,0\H,6,1.09228,4,112.441,1,155.758,0\C,2,1.54431,1,102.454,3,123.009,0\H,9,1.09128,2,110.579,1,-83.396,0\H,9,1.09195,2,112.414,1,155.582,0\C,2,1.54455,1,102.477,3,-123.013,0\H,12,1.09137,2,110.674,1,83.4826,0\H,12,1.0922,2,112.425,1,-155.592,0\C,4,1.54471,1,102.381,2,57.0829,0\H,15,1.09143,4,110.534,1,83.2474,0\H,15,1.09218,4,112.489,1,-155.81,0\Gh,1,2.21697,2,90.6514,3,-33.1099,0\Gh,18,1.09195,1,113.084,2,167.987,0\Gh,19,1.09128,18,108.18,1,157.686,0\Gh,19,1.54431,18,112.414,1,-79.9251,0\Gh,21,1.08855,19,115.484,18,-85.6221,0\Gh,21,1.44173,19,102.454,18,155.582,0\Gh,23,1.4418,21,96.7107,19,-57.0198,0\Gh,24,1.08849,23,109.339,21,-179.996,0\Gh,24,1.54431,23,102.437,21,-57.0227,0\Gh,26,1.09115,24,110.589,23,-83.2363,0\Gh,26,1.09228,24,112.441,23,155.758,0\Gh,21,1.54455,19,109.93,18,47.1957,0\Gh,29,1.09137,21,110.674,19,-168.147,0\Gh,29,1.0922,21,112.425,19,-47.2213,0\Gh,24,1.54471,23,102.381,21,57.0829,0\Gh,32,1.09143,24,110.534,23,83.2474,0\Gh,32,1.09218,24,112.489,23,-155.81,0\\\@

 Total job time:  136.82s(wall), 544.43s(cpu) 
 Tue Apr 17 22:31:11 2018

        *************************************************************
        *                                                           *
        *  Thank you very much for using Q-Chem.  Have a nice day.  *
        *                                                           *
        *************************************************************


0 sent ACK to 0 
now end server 0 ... 
