mFile = /opt/software/qchem/qchem-5.0.1//bin/mpi/machines
Process 0 of 1 is on vega01.cac.cornell.edu - thread support 0
initial socket setup ...start
initial socket setup ...done 
now start server 0 ... 
localhost 127.0.0
Q-Chem Developer Version! Running on 127.0.0.*
                  Welcome to Q-Chem
     A Quantum Leap Into The Future Of Chemistry


 Q-Chem 5.0, Q-Chem, Inc., Pleasanton, CA (2017)

 Yihan Shao,  Zhengting Gan,  E. Epifanovsky,  A. T. B. Gilbert,  M. Wormit,  
 J. Kussmann,  A. W. Lange,  A. Behn,  Jia Deng,  Xintian Feng,  D. Ghosh,  
 M. Goldey,  P. R. Horn,  L. D. Jacobson,  I. Kaliman,  T. Kus,  A. Landau,  
 Jie Liu,  E. I. Proynov,  R. M. Richard,  R. P. Steele,  E. J. Sundstrom,  
 H. L. Woodcock III,  P. M. Zimmerman,  D. Zuev,  B. Albrecht,  E. Alguire,  
 S. A. Baeppler,  Z. Benda,  Y. A. Bernard,  E. J. Berquist,  K. B. Bravaya,  
 D. Casanova,  Chun-Min Chang,  Yunqing Chen,  A. Chien,  K. D. Closser,  
 M. P. Coons,  S. Dasgupta,  M. Diedenhofen,  Hainam Do,  R. G. Edgar,  
 Po-Tung Fang,  S. Fatehi,  Qingguo Feng,  Qinghui Ge,  A. Ghysels,  
 J. Gomes,  J. Gonthier,  A. Gunina,  M. W. D. Hanson-Heine,  
 P. H. P. Harbach,  A. W. Hauser,  J. E. Herr,  E. G. Hohenstein,  
 Z. C. Holden,  Kerwin Hui,  T.-C. Jagau,  Hyunjun Ji,  B. Kaduk,  
 K. Khistyaev,  Jaehoon Kim,  P. Klunzinger,  K. Koh,  D. Kosenkov,  
 T. Kowalczyk,  C. M. Krauter,  A. Kunitsa,  Ka Un Lao,  A. Laurent,  
 K. V. Lawler,  Joonho Lee,  D. Lefrancois,  S. Lehtola,  D. S. Levine,  
 Yi-Pei Li,  You-Sheng Lin,  Fenglai Liu,  E. Livshits,  A. Luenser,  
 P. Manohar,  E. Mansoor,  S. F. Manzer,  Shan-Ping Mao,  Yuezhi Mao,  
 N. Mardirossian,  A. V. Marenich,  L. A. Martinez-Martinez,  S. A. Maurer,  
 N. J. Mayhall,  S. C. McKenzie,  J.-M. Mewes,  A. F. Morrison,  K. Nanda,  
 T. S. Nguyen-Beck,  R. Olivares-Amaya,  J. A. Parkhill,  T. M. Perrine,  
 F. Plasser,  S. Prager,  A. Prociuk,  D. R. Rehn,  F. Rob,  M. Schneider,  
 N. Sergueev,  S. M. Sharada,  S. Sharma,  D. W. Small,  T. Stauch,  
 T. Stein,  Yu-Chuan Su,  A. J. W. Thom,  T. Tsuchimochi,  L. Vogt,  
 O. Vydrov,  M. A. Watson,  J. Wenzel,  M. de Wergifosse,  T. A. Wesolowski,  
 A. White,  J. Witte,  A. Yamada,  Jun Yang,  K. Yao,  S. Yeganeh,  
 S. R. Yost,  Zhi-Qiang You,  A. Zech,  Igor Ying Zhang,  Xing Zhang,  
 Yan Zhao,  Ying Zhu,  B. R. Brooks,  G. K. L. Chan,  C. J. Cramer,  
 M. S. Gordon,  W. J. Hehre,  A. Klamt,  M. W. Schmidt,  C. D. Sherrill,  
 D. G. Truhlar,  A. Aspuru-Guzik,  R. Baer,  A. T. Bell,  N. A. Besley,  
 Jeng-Da Chai,  A. Dreuw,  B. D. Dunietz,  T. R. Furlani,  Chao-Ping Hsu,  
 Yousung Jung,  Jing Kong,  D. S. Lambrecht,  WanZhen Liang,  C. Ochsenfeld,  
 V. A. Rassolov,  L. V. Slipchenko,  J. E. Subotnik,  T. Van Voorhis,  
 J. M. Herbert,  A. I. Krylov,  P. M. W. Gill,  M. Head-Gordon

 Contributors to earlier versions of Q-Chem not listed above: 
 R. D. Adamson,  B. Austin,  J. Baker,  G. J. O. Beran,  K. Brandhorst,  
 S. T. Brown,  E. F. C. Byrd,  A. K. Chakraborty,  C.-L. Cheng,  
 Siu Hung Chien,  D. M. Chipman,  D. L. Crittenden,  H. Dachsel,  
 R. A. DiStasio Jr.,  R. J. Doerksen,  A. D. Dutoi,  L. Fusti-Molnar,  
 W. A. Goddard III,  A. Golubeva-Zadorozhnaya,  S. R. Gwaltney,  G. Hawkins,  
 A. Heyden,  S. Hirata,  G. Kedziora,  F. J. Keil,  C. Kelley,  Jihan Kim,  
 R. A. King,  R. Z. Khaliullin,  P. P. Korambath,  W. Kurlancheek,  
 A. M. Lee,  M. S. Lee,  S. V. Levchenko,  Ching Yeh Lin,  D. Liotard,  
 R. C. Lochan,  I. Lotan,  P. E. Maslen,  N. Nair,  D. P. O'Neill,  
 D. Neuhauser,  E. Neuscamman,  C. M. Oana,  R. Olson,  B. Peters,  
 R. Peverati,  P. A. Pieniazek,  Y. M. Rhee,  J. Ritchie,  M. A. Rohrdanz,  
 E. Rosta,  N. J. Russ,  H. F. Schaefer III,  N. E. Schultz,  N. Shenvi,  
 A. C. Simmonett,  A. Sodt,  D. Stuck,  K. S. Thanthiriwatte,  V. Vanovschi,  
 Tao Wang,  A. Warshel,  C. F. Williams,  Q. Wu,  X. Xu,  W. Zhang

 Please cite Q-Chem as follows:
 Y. Shao et al., Mol. Phys. 113, 184-215 (2015)
 DOI: 10.1080/00268976.2014.952696

 Q-Chem 5.0.1 for Intel X86 EM64T Linux

 Parts of Q-Chem use Armadillo 5.200.1 (Boston Tea Smuggler).
 http://arma.sourceforge.net/

 Q-Chem begins on Tue Apr 17 15:49:01 2018  

Host: vega01.cac.cornell.edu
0

     Scratch files written to /scratch/jj585/vdw/01n00_distance_5.400_10.save//
 Parallel job on  1  processors

Checking the input file for inconsistencies... 	...done.

--------------------------------------------------------------
User input:
--------------------------------------------------------------
$molecule
0  1
C        -0.54444000        -0.68370000        -0.06689000
C        -0.55709000        +0.71878000        +0.05493000
C        -1.74320000        -1.41616000        -0.12552000
C        -2.93952000        -0.70056000        -0.05285000
C        -2.95313000        +0.68255000        +0.06934000
C        -1.77161000        +1.42404000        +0.12810000
H        -3.90354000        +1.20325000        +0.11710000
H        -3.87892000        -1.24211000        -0.08988000
C        -1.83960000        +2.92746000        +0.24839000
H        -1.24214000        +3.42352000        -0.52065000
H        -1.45503000        +3.26427000        +1.21284000
H        -2.87211000        +3.26623000        +0.14638000
H        -1.73878000        -2.44393000        -0.21875000
H        +0.35825000        -1.18166000        -0.11386000
H        +0.33551000        +1.23549000        +0.09097000
@C        -0.50728000        -1.15453000        +5.31242000
@C        -0.51993000        +0.24795000        +5.43424000
@C        -1.70604000        -1.88699000        +5.25379000
@C        -2.90236000        -1.17139000        +5.32646000
@C        -2.91597000        +0.21172000        +5.44865000
@C        -1.73445000        +0.95321000        +5.50741000
@H        -3.86638000        +0.73242000        +5.49641000
@H        -3.84176000        -1.71294000        +5.28943000
@C        -1.80244000        +2.45663000        +5.62770000
@H        -1.20498000        +2.95269000        +4.85866000
@H        -1.41787000        +2.79344000        +6.59215000
@H        -2.83495000        +2.79540000        +5.52569000
@H        -1.70162000        -2.91476000        +5.16056000
@H        +0.39541000        -1.65249000        +5.26545000
@H        +0.37267000        +0.76466000        +5.47028000
$end

$rem
JOBTYPE                   SP
METHOD                    B3LYP
DFT_D                     d3_op
BASIS                     6-311++G(d,p)
SYMMETRY                  False
THRESH                    12
SCF_CONVERGENCE           8
MAX_SUB_FILE_NUM          128
MEM_STATIC                400
MEM_TOTAL                 4000
$end
--------------------------------------------------------------
 Adding empirical dispersion correction 
 ----------------------------------------------------------------
 Doing -D3(op) with
 s6 =   1.00000
 s8 =   0.78311
 a1 =   0.30000
 a2 =   4.25000
 n  =  10.00000
 -D3 energy without 3body term =     -0.0113800034 hartrees
 ----------------------------------------------------------------
             Standard Nuclear Orientation (Angstroms)
    I     Atom           X                Y                Z
 ----------------------------------------------------------------
    1      C      -0.5444400000    -0.6837000000    -0.0668900000
    2      C      -0.5570900000     0.7187800000     0.0549300000
    3      C      -1.7432000000    -1.4161600000    -0.1255200000
    4      C      -2.9395200000    -0.7005600000    -0.0528500000
    5      C      -2.9531300000     0.6825500000     0.0693400000
    6      C      -1.7716100000     1.4240400000     0.1281000000
    7      H      -3.9035400000     1.2032500000     0.1171000000
    8      H      -3.8789200000    -1.2421100000    -0.0898800000
    9      C      -1.8396000000     2.9274600000     0.2483900000
   10      H      -1.2421400000     3.4235200000    -0.5206500000
   11      H      -1.4550300000     3.2642700000     1.2128400000
   12      H      -2.8721100000     3.2662300000     0.1463800000
   13      H      -1.7387800000    -2.4439300000    -0.2187500000
   14      H       0.3582500000    -1.1816600000    -0.1138600000
   15      H       0.3355100000     1.2354900000     0.0909700000
   16      GH     -0.5072800000    -1.1545300000     5.3124200000
   17      GH     -0.5199300000     0.2479500000     5.4342400000
   18      GH     -1.7060400000    -1.8869900000     5.2537900000
   19      GH     -2.9023600000    -1.1713900000     5.3264600000
   20      GH     -2.9159700000     0.2117200000     5.4486500000
   21      GH     -1.7344500000     0.9532100000     5.5074100000
   22      GH     -3.8663800000     0.7324200000     5.4964100000
   23      GH     -3.8417600000    -1.7129400000     5.2894300000
   24      GH     -1.8024400000     2.4566300000     5.6277000000
   25      GH     -1.2049800000     2.9526900000     4.8586600000
   26      GH     -1.4178700000     2.7934400000     6.5921500000
   27      GH     -2.8349500000     2.7954000000     5.5256900000
   28      GH     -1.7016200000    -2.9147600000     5.1605600000
   29      GH      0.3954100000    -1.6524900000     5.2654500000
   30      GH      0.3726700000     0.7646600000     5.4702800000
 ----------------------------------------------------------------
 Nuclear Repulsion Energy =   269.2168625664 hartrees
 There are       25 alpha and       25 beta electrons
 Requested basis set is 6-311++G(d,p)
 There are 164 shells and 420 basis functions

 Total QAlloc Memory Limit   4000 MB
 Mega-Array Size       392 MB
 MEM_STATIC part       400 MB
 A cutoff of  1.0D-12 yielded  10619 shell pairs
 There are     69013 function pairs (     73072 Cartesian)
 
 -------------------------------------------------------
 OpenMP Integral Computing Module                       
 Release: version 1.0, May 2013, Q-Chem Inc. Pittsburgh 
 -------------------------------------------------------
 Integral Job Info:
 Integral job number is                      11
 Integral operator is                         1
 short-range coefficients                     0
 long-range coefficients              100000000
 Omega coefficients                           0
 if combine SR and LR in K                    0
 Integral screening is                        0
 Integral computing path is                   2
 max size of driver memory is            800000
 size of driver memory is                593474
 size of scratch memory is              2361544
 max col of scratch BK array               1296
 max len of scratch array in speh3          155
 max len of scratch index in speh4           18
 max int batch size is                      520
 min int batch size is                       52
 fixed nKL is                                52
 max L of basis functions is                  2
 order of int derivative is                   0
 number of shells is                        164
 number of basis is                         434
 number of cartesian basis is               434
 number of contracted shell pairs         10619
 number of primitive shell pairs          23613
 maxK2 (contraction) of shell pair           36
 max number of K2 of shell pair               1
 max number of CS2 of shell pair           2025
 max number of PS2 of shell pair           3324
 mem total for path MDJ                  117498
 -------------------------------------------------------
 Smallest overlap matrix eigenvalue = 5.56E-07
 Linear dependence detected in AO basis
 Number of orthogonalized atomic orbitals = 419
 Maximum deviation from orthogonality = 9.315E-11

 Scale SEOQF with 1.000000e-01/1.000000e-01/1.000000e-02

 Standard Electronic Orientation quadrupole field applied
 Nucleus-field energy     =     0.0000000169 hartrees
 Guess from superposition of atomic densities
 Warning:  Energy on first SCF cycle will be non-variational

 Q-Chem warning in module /opt/software/qchem/qchem-5.0.1/libgen/Atomic_PolEc.C, line 58:

 No atomic polarizability available.


 Q-Chem warning in module /opt/software/qchem/qchem-5.0.1/libgen/Atomic_PolEc.C, line 73:

 No atomic polarizability available.


 Q-Chem warning in module /opt/software/qchem/qchem-5.0.1/libgen/Atomic_PolEc.C, line 58:

 No atomic polarizability available.


 Q-Chem warning in module /opt/software/qchem/qchem-5.0.1/libgen/Atomic_PolEc.C, line 73:

 No atomic polarizability available.


 Q-Chem warning in module /opt/software/qchem/qchem-5.0.1/libgen/Atomic_PolEc.C, line 58:

 No atomic polarizability available.


 Q-Chem warning in module /opt/software/qchem/qchem-5.0.1/libgen/Atomic_PolEc.C, line 73:

 No atomic polarizability available.


 Q-Chem warning in module /opt/software/qchem/qchem-5.0.1/libgen/Atomic_PolEc.C, line 58:

 No atomic polarizability available.


 Q-Chem warning in module /opt/software/qchem/qchem-5.0.1/libgen/Atomic_PolEc.C, line 73:

 No atomic polarizability available.


 Q-Chem warning in module /opt/software/qchem/qchem-5.0.1/libgen/Atomic_PolEc.C, line 58:

 No atomic polarizability available.


 Q-Chem warning in module /opt/software/qchem/qchem-5.0.1/libgen/Atomic_PolEc.C, line 73:

 No atomic polarizability available.


 Q-Chem warning in module /opt/software/qchem/qchem-5.0.1/libgen/Atomic_PolEc.C, line 58:

 No atomic polarizability available.


 Q-Chem warning in module /opt/software/qchem/qchem-5.0.1/libgen/Atomic_PolEc.C, line 73:

 No atomic polarizability available.


 Q-Chem warning in module /opt/software/qchem/qchem-5.0.1/libgen/Atomic_PolEc.C, line 58:

 No atomic polarizability available.


 Q-Chem warning in module /opt/software/qchem/qchem-5.0.1/libgen/Atomic_PolEc.C, line 73:

 No atomic polarizability available.


 Q-Chem warning in module /opt/software/qchem/qchem-5.0.1/libgen/Atomic_PolEc.C, line 58:

 No atomic polarizability available.


 Q-Chem warning in module /opt/software/qchem/qchem-5.0.1/libgen/Atomic_PolEc.C, line 73:

 No atomic polarizability available.


 Q-Chem warning in module /opt/software/qchem/qchem-5.0.1/libgen/Atomic_PolEc.C, line 58:

 No atomic polarizability available.


 Q-Chem warning in module /opt/software/qchem/qchem-5.0.1/libgen/Atomic_PolEc.C, line 73:

 No atomic polarizability available.


 Q-Chem warning in module /opt/software/qchem/qchem-5.0.1/libgen/Atomic_PolEc.C, line 58:

 No atomic polarizability available.


 Q-Chem warning in module /opt/software/qchem/qchem-5.0.1/libgen/Atomic_PolEc.C, line 73:

 No atomic polarizability available.


 Q-Chem warning in module /opt/software/qchem/qchem-5.0.1/libgen/Atomic_PolEc.C, line 58:

 No atomic polarizability available.


 Q-Chem warning in module /opt/software/qchem/qchem-5.0.1/libgen/Atomic_PolEc.C, line 73:

 No atomic polarizability available.


 Q-Chem warning in module /opt/software/qchem/qchem-5.0.1/libgen/Atomic_PolEc.C, line 58:

 No atomic polarizability available.


 Q-Chem warning in module /opt/software/qchem/qchem-5.0.1/libgen/Atomic_PolEc.C, line 73:

 No atomic polarizability available.


 Q-Chem warning in module /opt/software/qchem/qchem-5.0.1/libgen/Atomic_PolEc.C, line 58:

 No atomic polarizability available.


 Q-Chem warning in module /opt/software/qchem/qchem-5.0.1/libgen/Atomic_PolEc.C, line 73:

 No atomic polarizability available.


 Q-Chem warning in module /opt/software/qchem/qchem-5.0.1/libgen/Atomic_PolEc.C, line 58:

 No atomic polarizability available.


 Q-Chem warning in module /opt/software/qchem/qchem-5.0.1/libgen/Atomic_PolEc.C, line 73:

 No atomic polarizability available.


 Q-Chem warning in module /opt/software/qchem/qchem-5.0.1/libgen/Atomic_PolEc.C, line 58:

 No atomic polarizability available.


 Q-Chem warning in module /opt/software/qchem/qchem-5.0.1/libgen/Atomic_PolEc.C, line 73:

 No atomic polarizability available.

 A restricted hybrid HF-DFT SCF calculation will be
 performed using Pulay DIIS extrapolation
 Exchange:     0.2000 Hartree-Fock + 0.0800 Slater + 0.7200 B88
 Correlation:  0.1900 VWN1RPA + 0.8100 LYP
 Using SG-1 standard quadrature grid
 Dispersion:   Grimme D3
 SCF converges when DIIS error is below 1.0E-08
 using 4 threads for integral computing
 -------------------------------------------------------
 OpenMP Integral computing Module                
 Release: version 1.0, May 2013, Q-Chem Inc. Pittsburgh 
 -------------------------------------------------------
 -------------------------------------------------------
 OpenMP BLAS3 based DFT computing Module                
 Release: version 1.0, May 2013, Q-Chem Inc. Pittsburgh 
 -------------------------------------------------------
 ---------------------------------------
  Cycle       Energy         DIIS Error
 ---------------------------------------
    1    -273.1501206646      2.19E-02
    2    -271.4965816995      2.44E-03
    3    -271.4748624178      2.65E-03
    4    -271.6428754437      1.97E-04
    5    -271.6434618801      1.01E-04
    6    -271.6436368131      4.34E-05
    7    -271.6436752268      1.58E-05
    8    -271.6436812774      1.31E-06
    9    -271.6436813066      8.00E-07
   10    -271.6436813206      1.84E-07
   11    -271.6436813213      8.03E-08
   12    -271.6436813214      9.69E-09 Convergence criterion met
 ---------------------------------------
 SCF time:  CPU 297.95 s  wall 74.66 s
 SCF   energy in the final basis set = -271.64368132
 Total energy in the final basis set = -271.64368132
 
 --------------------------------------------------------------
 
                    Orbital Energies (a.u.)
 --------------------------------------------------------------
 
 Alpha MOs
 -- Occupied --
-10.185 -10.174 -10.172 -10.171 -10.170 -10.169 -10.169  -0.858
 -0.776  -0.747  -0.691  -0.611  -0.591  -0.521  -0.465  -0.462
 -0.424  -0.423  -0.418  -0.390  -0.358  -0.350  -0.342  -0.255
 -0.247
 -- Virtual --
 -0.017  -0.013  -0.008   0.005   0.009   0.018   0.028   0.032
  0.035   0.040   0.046   0.051   0.055   0.061   0.063   0.068
  0.072   0.081   0.086   0.087   0.091   0.098   0.105   0.106
  0.111   0.113   0.115   0.121   0.123   0.125   0.126   0.129
  0.133   0.135   0.138   0.141   0.148   0.152   0.157   0.160
  0.163   0.166   0.169   0.174   0.176   0.180   0.182   0.185
  0.186   0.187   0.189   0.193   0.199   0.209   0.213   0.216
  0.217   0.225   0.230   0.234   0.238   0.243   0.247   0.249
  0.251   0.256   0.259   0.262   0.265   0.273   0.278   0.287
  0.290   0.291   0.300   0.303   0.304   0.309   0.312   0.315
  0.328   0.331   0.339   0.346   0.350   0.358   0.366   0.369
  0.373   0.378   0.383   0.397   0.411   0.417   0.428   0.437
  0.447   0.479   0.484   0.484   0.498   0.509   0.517   0.524
  0.535   0.544   0.550   0.562   0.564   0.577   0.580   0.582
  0.590   0.595   0.605   0.612   0.614   0.623   0.625   0.634
  0.640   0.649   0.653   0.656   0.662   0.667   0.668   0.686
  0.698   0.707   0.713   0.730   0.733   0.735   0.746   0.753
  0.767   0.773   0.785   0.799   0.812   0.827   0.838   0.850
  0.858   0.879   0.882   0.894   0.900   0.909   0.918   0.931
  0.935   0.949   0.957   0.969   1.003   1.015   1.018   1.031
  1.037   1.041   1.080   1.082   1.088   1.124   1.126   1.145
  1.148   1.173   1.197   1.206   1.218   1.287   1.325   1.357
  1.366   1.392   1.415   1.419   1.428   1.449   1.464   1.476
  1.500   1.528   1.530   1.534   1.537   1.547   1.555   1.560
  1.563   1.575   1.588   1.594   1.607   1.623   1.644   1.661
  1.676   1.687   1.698   1.714   1.720   1.721   1.739   1.745
  1.756   1.762   1.766   1.773   1.795   1.801   1.814   1.823
  1.844   1.850   1.858   1.867   1.884   1.893   1.895   1.900
  1.918   1.936   1.939   1.954   1.960   1.961   1.971   1.979
  2.017   2.024   2.034   2.036   2.044   2.056   2.067   2.098
  2.102   2.113   2.144   2.164   2.194   2.239   2.250   2.261
  2.308   2.310   2.320   2.324   2.335   2.394   2.403   2.413
  2.414   2.416   2.426   2.446   2.446   2.475   2.481   2.487
  2.494   2.503   2.539   2.554   2.555   2.562   2.570   2.589
  2.598   2.600   2.636   2.641   2.673   2.684   2.699   2.731
  2.735   2.745   2.753   2.755   2.762   2.771   2.789   2.833
  2.839   2.858   2.899   2.906   2.915   2.927   2.930   2.940
  2.953   2.991   2.997   3.001   3.008   3.009   3.050   3.091
  3.119   3.153   3.175   3.211   3.223   3.248   3.284   3.346
  3.352   3.358   3.387   3.396   3.400   3.452   3.477   3.483
  3.509   3.517   3.547   3.557   3.565   3.588   3.622   3.653
  3.668   3.715   3.723   3.792   3.799   3.859   4.020   4.034
  4.037   4.121   4.180   4.185   4.203   4.342   4.627   4.741
  4.838   4.839   4.862   4.913   4.981   5.122   5.232   5.674
  7.070   7.121   7.146   7.217   7.227   7.362   7.614   7.716
  7.720   7.744   7.764   7.781   7.821   7.839   7.861   7.981
  8.024   8.049   8.171   8.482   8.916   9.729  10.006  10.224
 10.240  10.280  10.294  10.359  23.653  23.939  24.000  24.010
 24.096  24.108  24.205  69.741  69.905  69.989  70.009  70.025
 70.042  70.064
 --------------------------------------------------------------
 
          Ground-State Mulliken Net Atomic Charges

     Atom                 Charge (a.u.)
  ----------------------------------------
      1 C                    -0.044036
      2 C                    -0.424111
      3 C                    -0.338544
      4 C                    -0.081802
      5 C                    -0.660648
      6 C                     0.944736
      7 H                     0.143803
      8 H                     0.170639
      9 C                    -0.628807
     10 H                     0.146966
     11 H                     0.158759
     12 H                     0.145584
     13 H                     0.149282
     14 H                     0.160656
     15 H                     0.164715
     16 GH                   -0.005972
     17 GH                    0.012730
     18 GH                    0.010522
     19 GH                   -0.009181
     20 GH                   -0.011226
     21 GH                   -0.001762
     22 GH                   -0.001000
     23 GH                   -0.000371
     24 GH                   -0.001539
     25 GH                   -0.000128
     26 GH                   -0.000184
     27 GH                    0.000929
     28 GH                    0.000834
     29 GH                   -0.000590
     30 GH                   -0.000254
  ----------------------------------------
  Sum of atomic charges =     0.000000

 -----------------------------------------------------------------
                    Cartesian Multipole Moments
 -----------------------------------------------------------------
    Charge (ESU x 10^10)
                 0.0000
    Dipole Moment (Debye)
         X       0.0621      Y       0.3875      Z       0.0373
       Tot       0.3942
    Quadrupole Moments (Debye-Ang)
        XX     -39.3557     XY      -0.6308     YY     -38.0727
        XZ      -0.0968     YZ       0.7299     ZZ     -46.4138
    Octopole Moments (Debye-Ang^2)
       XXX     208.5555    XXY     -19.5342    XYY      67.8545
       YYY     -62.7727    XXZ      -1.7215    XYZ      -1.2500
       YYZ      -2.0941    XZZ      82.7528    YZZ     -19.5935
       ZZZ      -4.8453
    Hexadecapole Moments (Debye-Ang^3)
      XXXX   -1027.3655   XXXY     110.3946   XXYY    -280.2231
      XYYY     117.0285   YYYY    -684.0917   XXXZ      10.7116
      XXYZ      -6.4285   XYYZ       3.9062   YYYZ     -25.4738
      XXZZ    -217.4762   XYZZ      38.0881   YYZZ    -130.4492
      XZZZ      10.4091   YZZZ     -27.3256   ZZZZ     -68.0831
 -----------------------------------------------------------------
Archival summary:
1\1\vega01.cac.cornell.edu\SP\ProcedureUnspecified\BasisUnspecified\78h15\jj585\TueApr1715:50:172018TueApr1715:50:172018\0\\#,ProcedureUnspecified,BasisUnspecified,\\0,1\C\C,1,1.39616\H,2,1.08475,1,118.991\C,2,1.38856,1,121.629,3,179.783,0\H,4,1.08495,2,119.453,1,179.671,0\C,4,1.3959,2,121.575,1,-0.129654,0\H,6,1.032,4,121.26,2,-179.84,0\C,6,1.40604,4,117.481,2,0.160349,0\H,8,1.032,6,119.504,4,179.742,0\C,1,1.40634,2,117.536,3,-179.6,0\H,10,1.032,1,119.607,2,179.72,0\C,1,1.50976,2,119.611,3,-0.341033,0\H,12,1.09144,1,110.135,2,-7.24194,0\H,12,1.09156,1,111.21,2,113.289,0\H,12,1.09291,1,111.796,2,-127.427,0\Gh,14,3.66764,12,151.176,1,-43.6098,0\Gh,16,1.09291,14,134.488,12,-19.1723,0\Gh,17,1.09144,16,108.09,14,-53.7107,0\Gh,17,1.09156,16,106.802,14,-170.48,0\Gh,17,1.50976,16,111.796,14,67.6647,0\Gh,20,1.39616,17,119.611,16,-127.427,0\Gh,21,1.08475,20,118.991,17,-0.341033,0\Gh,21,1.38856,20,121.629,17,179.442,0\Gh,23,1.08495,21,119.453,20,179.671,0\Gh,23,1.3959,21,121.575,20,-0.129654,0\Gh,25,1.032,23,121.26,21,-179.84,0\Gh,25,1.40604,23,117.481,21,0.160349,0\Gh,27,1.032,25,119.504,23,179.742,0\Gh,20,1.40634,17,122.848,16,51.7903,0\Gh,29,1.032,20,119.607,17,0.487832,0\\\@

 Total job time:  75.27s(wall), 299.94s(cpu) 
 Tue Apr 17 15:50:17 2018

        *************************************************************
        *                                                           *
        *  Thank you very much for using Q-Chem.  Have a nice day.  *
        *                                                           *
        *************************************************************


0 sent ACK to 0 
now end server 0 ... 
