mFile = /opt/software/qchem/qchem-5.0.1//bin/mpi/machines
Process 0 of 1 is on vega01.cac.cornell.edu - thread support 0
initial socket setup ...start
initial socket setup ...done 
now start server 0 ... 
localhost 127.0.0
Q-Chem Developer Version! Running on 127.0.0.*
                  Welcome to Q-Chem
     A Quantum Leap Into The Future Of Chemistry


 Q-Chem 5.0, Q-Chem, Inc., Pleasanton, CA (2017)

 Yihan Shao,  Zhengting Gan,  E. Epifanovsky,  A. T. B. Gilbert,  M. Wormit,  
 J. Kussmann,  A. W. Lange,  A. Behn,  Jia Deng,  Xintian Feng,  D. Ghosh,  
 M. Goldey,  P. R. Horn,  L. D. Jacobson,  I. Kaliman,  T. Kus,  A. Landau,  
 Jie Liu,  E. I. Proynov,  R. M. Richard,  R. P. Steele,  E. J. Sundstrom,  
 H. L. Woodcock III,  P. M. Zimmerman,  D. Zuev,  B. Albrecht,  E. Alguire,  
 S. A. Baeppler,  Z. Benda,  Y. A. Bernard,  E. J. Berquist,  K. B. Bravaya,  
 D. Casanova,  Chun-Min Chang,  Yunqing Chen,  A. Chien,  K. D. Closser,  
 M. P. Coons,  S. Dasgupta,  M. Diedenhofen,  Hainam Do,  R. G. Edgar,  
 Po-Tung Fang,  S. Fatehi,  Qingguo Feng,  Qinghui Ge,  A. Ghysels,  
 J. Gomes,  J. Gonthier,  A. Gunina,  M. W. D. Hanson-Heine,  
 P. H. P. Harbach,  A. W. Hauser,  J. E. Herr,  E. G. Hohenstein,  
 Z. C. Holden,  Kerwin Hui,  T.-C. Jagau,  Hyunjun Ji,  B. Kaduk,  
 K. Khistyaev,  Jaehoon Kim,  P. Klunzinger,  K. Koh,  D. Kosenkov,  
 T. Kowalczyk,  C. M. Krauter,  A. Kunitsa,  Ka Un Lao,  A. Laurent,  
 K. V. Lawler,  Joonho Lee,  D. Lefrancois,  S. Lehtola,  D. S. Levine,  
 Yi-Pei Li,  You-Sheng Lin,  Fenglai Liu,  E. Livshits,  A. Luenser,  
 P. Manohar,  E. Mansoor,  S. F. Manzer,  Shan-Ping Mao,  Yuezhi Mao,  
 N. Mardirossian,  A. V. Marenich,  L. A. Martinez-Martinez,  S. A. Maurer,  
 N. J. Mayhall,  S. C. McKenzie,  J.-M. Mewes,  A. F. Morrison,  K. Nanda,  
 T. S. Nguyen-Beck,  R. Olivares-Amaya,  J. A. Parkhill,  T. M. Perrine,  
 F. Plasser,  S. Prager,  A. Prociuk,  D. R. Rehn,  F. Rob,  M. Schneider,  
 N. Sergueev,  S. M. Sharada,  S. Sharma,  D. W. Small,  T. Stauch,  
 T. Stein,  Yu-Chuan Su,  A. J. W. Thom,  T. Tsuchimochi,  L. Vogt,  
 O. Vydrov,  M. A. Watson,  J. Wenzel,  M. de Wergifosse,  T. A. Wesolowski,  
 A. White,  J. Witte,  A. Yamada,  Jun Yang,  K. Yao,  S. Yeganeh,  
 S. R. Yost,  Zhi-Qiang You,  A. Zech,  Igor Ying Zhang,  Xing Zhang,  
 Yan Zhao,  Ying Zhu,  B. R. Brooks,  G. K. L. Chan,  C. J. Cramer,  
 M. S. Gordon,  W. J. Hehre,  A. Klamt,  M. W. Schmidt,  C. D. Sherrill,  
 D. G. Truhlar,  A. Aspuru-Guzik,  R. Baer,  A. T. Bell,  N. A. Besley,  
 Jeng-Da Chai,  A. Dreuw,  B. D. Dunietz,  T. R. Furlani,  Chao-Ping Hsu,  
 Yousung Jung,  Jing Kong,  D. S. Lambrecht,  WanZhen Liang,  C. Ochsenfeld,  
 V. A. Rassolov,  L. V. Slipchenko,  J. E. Subotnik,  T. Van Voorhis,  
 J. M. Herbert,  A. I. Krylov,  P. M. W. Gill,  M. Head-Gordon

 Contributors to earlier versions of Q-Chem not listed above: 
 R. D. Adamson,  B. Austin,  J. Baker,  G. J. O. Beran,  K. Brandhorst,  
 S. T. Brown,  E. F. C. Byrd,  A. K. Chakraborty,  C.-L. Cheng,  
 Siu Hung Chien,  D. M. Chipman,  D. L. Crittenden,  H. Dachsel,  
 R. A. DiStasio Jr.,  R. J. Doerksen,  A. D. Dutoi,  L. Fusti-Molnar,  
 W. A. Goddard III,  A. Golubeva-Zadorozhnaya,  S. R. Gwaltney,  G. Hawkins,  
 A. Heyden,  S. Hirata,  G. Kedziora,  F. J. Keil,  C. Kelley,  Jihan Kim,  
 R. A. King,  R. Z. Khaliullin,  P. P. Korambath,  W. Kurlancheek,  
 A. M. Lee,  M. S. Lee,  S. V. Levchenko,  Ching Yeh Lin,  D. Liotard,  
 R. C. Lochan,  I. Lotan,  P. E. Maslen,  N. Nair,  D. P. O'Neill,  
 D. Neuhauser,  E. Neuscamman,  C. M. Oana,  R. Olson,  B. Peters,  
 R. Peverati,  P. A. Pieniazek,  Y. M. Rhee,  J. Ritchie,  M. A. Rohrdanz,  
 E. Rosta,  N. J. Russ,  H. F. Schaefer III,  N. E. Schultz,  N. Shenvi,  
 A. C. Simmonett,  A. Sodt,  D. Stuck,  K. S. Thanthiriwatte,  V. Vanovschi,  
 Tao Wang,  A. Warshel,  C. F. Williams,  Q. Wu,  X. Xu,  W. Zhang

 Please cite Q-Chem as follows:
 Y. Shao et al., Mol. Phys. 113, 184-215 (2015)
 DOI: 10.1080/00268976.2014.952696

 Q-Chem 5.0.1 for Intel X86 EM64T Linux

 Parts of Q-Chem use Armadillo 5.200.1 (Boston Tea Smuggler).
 http://arma.sourceforge.net/

 Q-Chem begins on Tue Apr 17 15:45:48 2018  

Host: vega01.cac.cornell.edu
0

     Scratch files written to /scratch/jj585/vdw/01n00_distance_4.200_01.save//
 Parallel job on  1  processors

Checking the input file for inconsistencies... 	...done.

--------------------------------------------------------------
User input:
--------------------------------------------------------------
$molecule
0  1
C        -0.51554000        -1.04990000        +4.11701000
C        -0.52819000        +0.35258000        +4.23883000
C        -1.71430000        -1.78236000        +4.05838000
C        -2.91062000        -1.06676000        +4.13105000
C        -2.92423000        +0.31635000        +4.25324000
C        -1.74271000        +1.05784000        +4.31200000
H        -3.87464000        +0.83705000        +4.30100000
H        -3.85002000        -1.60831000        +4.09402000
C        -1.81070000        +2.56126000        +4.43229000
H        -1.21324000        +3.05732000        +3.66325000
H        -1.42613000        +2.89807000        +5.39674000
H        -2.84321000        +2.90003000        +4.33028000
H        -1.70988000        -2.81013000        +3.96515000
H        +0.38715000        -1.54786000        +4.07004000
H        +0.36441000        +0.86929000        +4.27487000
@C        -0.54444000        -0.68370000        -0.06689000
@C        -0.55709000        +0.71878000        +0.05493000
@C        -1.74320000        -1.41616000        -0.12552000
@C        -2.93952000        -0.70056000        -0.05285000
@C        -2.95313000        +0.68255000        +0.06934000
@C        -1.77161000        +1.42404000        +0.12810000
@H        -3.90354000        +1.20325000        +0.11710000
@H        -3.87892000        -1.24211000        -0.08988000
@C        -1.83960000        +2.92746000        +0.24839000
@H        -1.24214000        +3.42352000        -0.52065000
@H        -1.45503000        +3.26427000        +1.21284000
@H        -2.87211000        +3.26623000        +0.14638000
@H        -1.73878000        -2.44393000        -0.21875000
@H        +0.35825000        -1.18166000        -0.11386000
@H        +0.33551000        +1.23549000        +0.09097000
$end

$rem
JOBTYPE                   SP
METHOD                    B3LYP
DFT_D                     d3_op
BASIS                     6-311++G(d,p)
SYMMETRY                  False
THRESH                    12
SCF_CONVERGENCE           8
MAX_SUB_FILE_NUM          128
MEM_STATIC                400
MEM_TOTAL                 4000
$end
--------------------------------------------------------------
 Adding empirical dispersion correction 
 ----------------------------------------------------------------
 Doing -D3(op) with
 s6 =   1.00000
 s8 =   0.78311
 a1 =   0.30000
 a2 =   4.25000
 n  =  10.00000
 -D3 energy without 3body term =     -0.0113800034 hartrees
 ----------------------------------------------------------------
             Standard Nuclear Orientation (Angstroms)
    I     Atom           X                Y                Z
 ----------------------------------------------------------------
    1      C      -0.5155400000    -1.0499000000     4.1170100000
    2      C      -0.5281900000     0.3525800000     4.2388300000
    3      C      -1.7143000000    -1.7823600000     4.0583800000
    4      C      -2.9106200000    -1.0667600000     4.1310500000
    5      C      -2.9242300000     0.3163500000     4.2532400000
    6      C      -1.7427100000     1.0578400000     4.3120000000
    7      H      -3.8746400000     0.8370500000     4.3010000000
    8      H      -3.8500200000    -1.6083100000     4.0940200000
    9      C      -1.8107000000     2.5612600000     4.4322900000
   10      H      -1.2132400000     3.0573200000     3.6632500000
   11      H      -1.4261300000     2.8980700000     5.3967400000
   12      H      -2.8432100000     2.9000300000     4.3302800000
   13      H      -1.7098800000    -2.8101300000     3.9651500000
   14      H       0.3871500000    -1.5478600000     4.0700400000
   15      H       0.3644100000     0.8692900000     4.2748700000
   16      GH     -0.5444400000    -0.6837000000    -0.0668900000
   17      GH     -0.5570900000     0.7187800000     0.0549300000
   18      GH     -1.7432000000    -1.4161600000    -0.1255200000
   19      GH     -2.9395200000    -0.7005600000    -0.0528500000
   20      GH     -2.9531300000     0.6825500000     0.0693400000
   21      GH     -1.7716100000     1.4240400000     0.1281000000
   22      GH     -3.9035400000     1.2032500000     0.1171000000
   23      GH     -3.8789200000    -1.2421100000    -0.0898800000
   24      GH     -1.8396000000     2.9274600000     0.2483900000
   25      GH     -1.2421400000     3.4235200000    -0.5206500000
   26      GH     -1.4550300000     3.2642700000     1.2128400000
   27      GH     -2.8721100000     3.2662300000     0.1463800000
   28      GH     -1.7387800000    -2.4439300000    -0.2187500000
   29      GH      0.3582500000    -1.1816600000    -0.1138600000
   30      GH      0.3355100000     1.2354900000     0.0909700000
 ----------------------------------------------------------------
 Nuclear Repulsion Energy =   269.2168625664 hartrees
 There are       25 alpha and       25 beta electrons
 Requested basis set is 6-311++G(d,p)
 There are 164 shells and 420 basis functions

 Total QAlloc Memory Limit   4000 MB
 Mega-Array Size       392 MB
 MEM_STATIC part       400 MB
 A cutoff of  1.0D-12 yielded  11279 shell pairs
 There are     75527 function pairs (     80556 Cartesian)
 
 -------------------------------------------------------
 OpenMP Integral Computing Module                       
 Release: version 1.0, May 2013, Q-Chem Inc. Pittsburgh 
 -------------------------------------------------------
 Integral Job Info:
 Integral job number is                      11
 Integral operator is                         1
 short-range coefficients                     0
 long-range coefficients              100000000
 Omega coefficients                           0
 if combine SR and LR in K                    0
 Integral screening is                        0
 Integral computing path is                   2
 max size of driver memory is            800000
 size of driver memory is                593474
 size of scratch memory is              2361544
 max col of scratch BK array               1296
 max len of scratch array in speh3          155
 max len of scratch index in speh4           18
 max int batch size is                      520
 min int batch size is                       52
 fixed nKL is                                52
 max L of basis functions is                  2
 order of int derivative is                   0
 number of shells is                        164
 number of basis is                         434
 number of cartesian basis is               434
 number of contracted shell pairs         11279
 number of primitive shell pairs          24689
 maxK2 (contraction) of shell pair           36
 max number of K2 of shell pair               1
 max number of CS2 of shell pair           2104
 max number of PS2 of shell pair           3558
 mem total for path MDJ                  130616
 -------------------------------------------------------
 Smallest overlap matrix eigenvalue = 2.61E-07
 Linear dependence detected in AO basis
 Number of orthogonalized atomic orbitals = 418
 Maximum deviation from orthogonality = 8.980E-11

 Scale SEOQF with 1.000000e-01/1.000000e-01/1.000000e-02

 Standard Electronic Orientation quadrupole field applied
 Nucleus-field energy     =     0.0000000063 hartrees
 Guess from superposition of atomic densities
 Warning:  Energy on first SCF cycle will be non-variational

 Q-Chem warning in module /opt/software/qchem/qchem-5.0.1/libgen/Atomic_PolEc.C, line 58:

 No atomic polarizability available.


 Q-Chem warning in module /opt/software/qchem/qchem-5.0.1/libgen/Atomic_PolEc.C, line 73:

 No atomic polarizability available.


 Q-Chem warning in module /opt/software/qchem/qchem-5.0.1/libgen/Atomic_PolEc.C, line 58:

 No atomic polarizability available.


 Q-Chem warning in module /opt/software/qchem/qchem-5.0.1/libgen/Atomic_PolEc.C, line 73:

 No atomic polarizability available.


 Q-Chem warning in module /opt/software/qchem/qchem-5.0.1/libgen/Atomic_PolEc.C, line 58:

 No atomic polarizability available.


 Q-Chem warning in module /opt/software/qchem/qchem-5.0.1/libgen/Atomic_PolEc.C, line 73:

 No atomic polarizability available.


 Q-Chem warning in module /opt/software/qchem/qchem-5.0.1/libgen/Atomic_PolEc.C, line 58:

 No atomic polarizability available.


 Q-Chem warning in module /opt/software/qchem/qchem-5.0.1/libgen/Atomic_PolEc.C, line 73:

 No atomic polarizability available.


 Q-Chem warning in module /opt/software/qchem/qchem-5.0.1/libgen/Atomic_PolEc.C, line 58:

 No atomic polarizability available.


 Q-Chem warning in module /opt/software/qchem/qchem-5.0.1/libgen/Atomic_PolEc.C, line 73:

 No atomic polarizability available.


 Q-Chem warning in module /opt/software/qchem/qchem-5.0.1/libgen/Atomic_PolEc.C, line 58:

 No atomic polarizability available.


 Q-Chem warning in module /opt/software/qchem/qchem-5.0.1/libgen/Atomic_PolEc.C, line 73:

 No atomic polarizability available.


 Q-Chem warning in module /opt/software/qchem/qchem-5.0.1/libgen/Atomic_PolEc.C, line 58:

 No atomic polarizability available.


 Q-Chem warning in module /opt/software/qchem/qchem-5.0.1/libgen/Atomic_PolEc.C, line 73:

 No atomic polarizability available.


 Q-Chem warning in module /opt/software/qchem/qchem-5.0.1/libgen/Atomic_PolEc.C, line 58:

 No atomic polarizability available.


 Q-Chem warning in module /opt/software/qchem/qchem-5.0.1/libgen/Atomic_PolEc.C, line 73:

 No atomic polarizability available.


 Q-Chem warning in module /opt/software/qchem/qchem-5.0.1/libgen/Atomic_PolEc.C, line 58:

 No atomic polarizability available.


 Q-Chem warning in module /opt/software/qchem/qchem-5.0.1/libgen/Atomic_PolEc.C, line 73:

 No atomic polarizability available.


 Q-Chem warning in module /opt/software/qchem/qchem-5.0.1/libgen/Atomic_PolEc.C, line 58:

 No atomic polarizability available.


 Q-Chem warning in module /opt/software/qchem/qchem-5.0.1/libgen/Atomic_PolEc.C, line 73:

 No atomic polarizability available.


 Q-Chem warning in module /opt/software/qchem/qchem-5.0.1/libgen/Atomic_PolEc.C, line 58:

 No atomic polarizability available.


 Q-Chem warning in module /opt/software/qchem/qchem-5.0.1/libgen/Atomic_PolEc.C, line 73:

 No atomic polarizability available.


 Q-Chem warning in module /opt/software/qchem/qchem-5.0.1/libgen/Atomic_PolEc.C, line 58:

 No atomic polarizability available.


 Q-Chem warning in module /opt/software/qchem/qchem-5.0.1/libgen/Atomic_PolEc.C, line 73:

 No atomic polarizability available.


 Q-Chem warning in module /opt/software/qchem/qchem-5.0.1/libgen/Atomic_PolEc.C, line 58:

 No atomic polarizability available.


 Q-Chem warning in module /opt/software/qchem/qchem-5.0.1/libgen/Atomic_PolEc.C, line 73:

 No atomic polarizability available.


 Q-Chem warning in module /opt/software/qchem/qchem-5.0.1/libgen/Atomic_PolEc.C, line 58:

 No atomic polarizability available.


 Q-Chem warning in module /opt/software/qchem/qchem-5.0.1/libgen/Atomic_PolEc.C, line 73:

 No atomic polarizability available.


 Q-Chem warning in module /opt/software/qchem/qchem-5.0.1/libgen/Atomic_PolEc.C, line 58:

 No atomic polarizability available.


 Q-Chem warning in module /opt/software/qchem/qchem-5.0.1/libgen/Atomic_PolEc.C, line 73:

 No atomic polarizability available.

 A restricted hybrid HF-DFT SCF calculation will be
 performed using Pulay DIIS extrapolation
 Exchange:     0.2000 Hartree-Fock + 0.0800 Slater + 0.7200 B88
 Correlation:  0.1900 VWN1RPA + 0.8100 LYP
 Using SG-1 standard quadrature grid
 Dispersion:   Grimme D3
 SCF converges when DIIS error is below 1.0E-08
 using 4 threads for integral computing
 -------------------------------------------------------
 OpenMP Integral computing Module                
 Release: version 1.0, May 2013, Q-Chem Inc. Pittsburgh 
 -------------------------------------------------------
 -------------------------------------------------------
 OpenMP BLAS3 based DFT computing Module                
 Release: version 1.0, May 2013, Q-Chem Inc. Pittsburgh 
 -------------------------------------------------------
 ---------------------------------------
  Cycle       Energy         DIIS Error
 ---------------------------------------
    1    -273.1501175018      2.19E-02
    2    -271.4967871596      2.45E-03
    3    -271.4746559279      2.66E-03
    4    -271.6430264809      2.00E-04
    5    -271.6436319389      1.01E-04
    6    -271.6438085962      4.37E-05
    7    -271.6438471462      1.60E-05
    8    -271.6438533203      1.32E-06
    9    -271.6438533503      7.99E-07
   10    -271.6438533641      1.87E-07
   11    -271.6438533648      8.05E-08
   12    -271.6438533650      9.90E-09 Convergence criterion met
 ---------------------------------------
 SCF time:  CPU 347.66 s  wall 87.12 s
 SCF   energy in the final basis set = -271.64385336
 Total energy in the final basis set = -271.64385336
 
 --------------------------------------------------------------
 
                    Orbital Energies (a.u.)
 --------------------------------------------------------------
 
 Alpha MOs
 -- Occupied --
-10.185 -10.174 -10.172 -10.171 -10.170 -10.169 -10.169  -0.858
 -0.776  -0.747  -0.691  -0.611  -0.591  -0.521  -0.465  -0.462
 -0.424  -0.423  -0.418  -0.390  -0.358  -0.350  -0.342  -0.255
 -0.247
 -- Virtual --
 -0.017  -0.013  -0.008   0.005   0.009   0.019   0.028   0.031
  0.035   0.041   0.047   0.053   0.058   0.062   0.065   0.068
  0.079   0.083   0.090   0.093   0.093   0.102   0.105   0.108
  0.112   0.113   0.120   0.126   0.126   0.129   0.130   0.131
  0.136   0.139   0.141   0.145   0.153   0.160   0.162   0.164
  0.168   0.174   0.175   0.177   0.180   0.183   0.187   0.187
  0.193   0.195   0.200   0.207   0.213   0.214   0.217   0.222
  0.229   0.232   0.236   0.240   0.245   0.247   0.251   0.255
  0.264   0.265   0.270   0.276   0.278   0.280   0.283   0.293
  0.297   0.302   0.304   0.311   0.312   0.316   0.329   0.331
  0.335   0.341   0.358   0.365   0.374   0.375   0.381   0.395
  0.403   0.411   0.421   0.422   0.433   0.438   0.447   0.458
  0.473   0.479   0.485   0.501   0.512   0.522   0.531   0.539
  0.547   0.551   0.557   0.576   0.578   0.584   0.596   0.601
  0.607   0.612   0.613   0.619   0.631   0.634   0.635   0.639
  0.646   0.653   0.656   0.666   0.676   0.689   0.697   0.704
  0.708   0.730   0.732   0.740   0.746   0.750   0.752   0.767
  0.778   0.796   0.810   0.812   0.823   0.841   0.858   0.863
  0.881   0.896   0.899   0.914   0.926   0.927   0.938   0.943
  0.951   0.970   0.975   1.004   1.016   1.017   1.019   1.047
  1.060   1.078   1.095   1.109   1.124   1.130   1.150   1.153
  1.177   1.188   1.205   1.220   1.279   1.338   1.364   1.372
  1.416   1.429   1.439   1.449   1.460   1.480   1.497   1.502
  1.527   1.532   1.537   1.546   1.548   1.555   1.556   1.569
  1.580   1.590   1.605   1.617   1.630   1.657   1.667   1.674
  1.696   1.703   1.716   1.722   1.733   1.743   1.746   1.760
  1.769   1.772   1.790   1.796   1.807   1.817   1.830   1.850
  1.860   1.866   1.875   1.891   1.900   1.906   1.906   1.934
  1.941   1.949   1.958   1.962   1.967   1.968   1.988   2.010
  2.029   2.037   2.043   2.045   2.051   2.065   2.093   2.106
  2.118   2.151   2.167   2.205   2.241   2.252   2.259   2.307
  2.316   2.319   2.323   2.332   2.388   2.402   2.409   2.415
  2.420   2.425   2.443   2.451   2.483   2.489   2.496   2.508
  2.528   2.537   2.547   2.562   2.565   2.577   2.586   2.601
  2.611   2.634   2.646   2.676   2.691   2.713   2.729   2.737
  2.746   2.749   2.758   2.768   2.781   2.815   2.833   2.840
  2.868   2.899   2.908   2.915   2.923   2.931   2.947   2.954
  2.986   2.992   3.000   3.002   3.016   3.042   3.096   3.112
  3.160   3.169   3.204   3.226   3.246   3.280   3.338   3.357
  3.373   3.384   3.395   3.404   3.444   3.486   3.503   3.513
  3.523   3.543   3.556   3.565   3.592   3.624   3.654   3.665
  3.713   3.726   3.792   3.797   3.864   4.010   4.036   4.040
  4.122   4.180   4.189   4.206   4.344   4.634   4.731   4.838
  4.852   4.865   4.916   4.961   5.101   5.206   5.645   7.066
  7.117   7.152   7.212   7.232   7.365   7.611   7.722   7.727
  7.753   7.775   7.784   7.828   7.842   7.870   7.977   8.026
  8.048   8.165   8.482   8.907   9.708   9.999  10.185  10.206
 10.235  10.245  10.305  23.680  23.943  24.004  24.016  24.096
 24.108  24.205  69.900  69.971  70.113  70.125  70.141  70.146
 70.190
 --------------------------------------------------------------
 
          Ground-State Mulliken Net Atomic Charges

     Atom                 Charge (a.u.)
  ----------------------------------------
      1 C                    -0.234412
      2 C                    -0.184586
      3 C                    -0.296649
      4 C                    -0.248612
      5 C                    -0.239238
      6 C                     0.632946
      7 H                     0.156417
      8 H                     0.172666
      9 C                    -0.690673
     10 H                     0.153847
     11 H                     0.159176
     12 H                     0.138047
     13 H                     0.146127
     14 H                     0.162359
     15 H                     0.173051
     16 GH                   -0.002138
     17 GH                   -0.024199
     18 GH                    0.013882
     19 GH                   -0.023079
     20 GH                    0.004815
     21 GH                   -0.001534
     22 GH                    0.003266
     23 GH                    0.001139
     24 GH                    0.017856
     25 GH                   -0.000136
     26 GH                    0.001238
     27 GH                    0.001555
     28 GH                    0.003515
     29 GH                    0.002835
     30 GH                    0.000520
  ----------------------------------------
  Sum of atomic charges =     0.000000

 -----------------------------------------------------------------
                    Cartesian Multipole Moments
 -----------------------------------------------------------------
    Charge (ESU x 10^10)
                 0.0000
    Dipole Moment (Debye)
         X       0.0617      Y       0.3888      Z       0.0328
       Tot       0.3950
    Quadrupole Moments (Debye-Ang)
        XX     -39.3849     XY      -0.6428     YY     -38.3919
        XZ       0.1758     YZ       2.3339     ZZ     -46.1135
    Octopole Moments (Debye-Ang^2)
       XXX     205.3137    XXY      -5.1398    XYY      67.2872
       YYY     -20.7684    XXZ    -166.5857    XYZ      -3.8601
       YYZ    -163.2551    XZZ      81.7552    YZZ      10.1078
       ZZZ    -585.2662
    Hexadecapole Moments (Debye-Ang^3)
      XXXX   -1004.3921   XXXY      33.4744   XXYY    -267.5359
      XYYY      41.6310   YYYY    -623.3627   XXXZ     869.8915
      XXYZ     -27.4286   XYYZ     286.2960   YYYZ    -109.7547
      XXZZ    -917.2006   XYZZ     -13.3068   YYZZ    -816.3981
      XZZZ    1031.5506   YZZZ       7.2763   ZZZZ   -5010.0105
 -----------------------------------------------------------------
Archival summary:
1\1\vega01.cac.cornell.edu\SP\ProcedureUnspecified\BasisUnspecified\78h15\jj585\TueApr1715:47:162018TueApr1715:47:162018\0\\#,ProcedureUnspecified,BasisUnspecified,\\0,1\C\C,1,1.39616\H,2,1.08475,1,118.991\C,2,1.38856,1,121.629,3,179.783,0\H,4,1.08495,2,119.453,1,179.671,0\C,4,1.3959,2,121.575,1,-0.129654,0\H,6,1.032,4,121.26,2,-179.84,0\C,6,1.40604,4,117.481,2,0.160349,0\H,8,1.032,6,119.504,4,179.742,0\C,1,1.40634,2,117.536,3,-179.6,0\H,10,1.032,1,119.607,2,179.72,0\C,1,1.50976,2,119.611,3,-0.341033,0\H,12,1.09144,1,110.135,2,-7.24194,0\H,12,1.09156,1,111.21,2,113.289,0\H,12,1.09291,1,111.796,2,-127.427,0\Gh,15,2.47099,12,133.025,1,68.8829,0\Gh,16,1.09156,15,152.23,12,-22.5095,0\Gh,17,1.09144,16,108.669,15,80.6147,0\Gh,17,1.09291,16,106.802,15,-163.001,0\Gh,17,1.50976,16,111.21,15,-40.777,0\Gh,20,1.39616,17,119.611,16,113.289,0\Gh,21,1.08475,20,118.991,17,-0.341033,0\Gh,21,1.38856,20,121.629,17,179.442,0\Gh,23,1.08495,21,119.453,20,179.671,0\Gh,23,1.3959,21,121.575,20,-0.129654,0\Gh,25,1.032,23,121.26,21,-179.84,0\Gh,25,1.40604,23,117.481,21,0.160349,0\Gh,27,1.032,25,119.504,23,179.742,0\Gh,20,1.40634,17,122.848,16,-67.4939,0\Gh,29,1.032,20,119.607,17,0.487832,0\\\@

 Total job time:  87.75s(wall), 349.71s(cpu) 
 Tue Apr 17 15:47:16 2018

        *************************************************************
        *                                                           *
        *  Thank you very much for using Q-Chem.  Have a nice day.  *
        *                                                           *
        *************************************************************


0 sent ACK to 0 
now end server 0 ... 
