mFile = /opt/software/qchem/qchem-5.0.1//bin/mpi/machines
Process 0 of 1 is on vega01.cac.cornell.edu - thread support 0
initial socket setup ...start
initial socket setup ...done 
now start server 0 ... 
localhost 127.0.0
Q-Chem Developer Version! Running on 127.0.0.*
                  Welcome to Q-Chem
     A Quantum Leap Into The Future Of Chemistry


 Q-Chem 5.0, Q-Chem, Inc., Pleasanton, CA (2017)

 Yihan Shao,  Zhengting Gan,  E. Epifanovsky,  A. T. B. Gilbert,  M. Wormit,  
 J. Kussmann,  A. W. Lange,  A. Behn,  Jia Deng,  Xintian Feng,  D. Ghosh,  
 M. Goldey,  P. R. Horn,  L. D. Jacobson,  I. Kaliman,  T. Kus,  A. Landau,  
 Jie Liu,  E. I. Proynov,  R. M. Richard,  R. P. Steele,  E. J. Sundstrom,  
 H. L. Woodcock III,  P. M. Zimmerman,  D. Zuev,  B. Albrecht,  E. Alguire,  
 S. A. Baeppler,  Z. Benda,  Y. A. Bernard,  E. J. Berquist,  K. B. Bravaya,  
 D. Casanova,  Chun-Min Chang,  Yunqing Chen,  A. Chien,  K. D. Closser,  
 M. P. Coons,  S. Dasgupta,  M. Diedenhofen,  Hainam Do,  R. G. Edgar,  
 Po-Tung Fang,  S. Fatehi,  Qingguo Feng,  Qinghui Ge,  A. Ghysels,  
 J. Gomes,  J. Gonthier,  A. Gunina,  M. W. D. Hanson-Heine,  
 P. H. P. Harbach,  A. W. Hauser,  J. E. Herr,  E. G. Hohenstein,  
 Z. C. Holden,  Kerwin Hui,  T.-C. Jagau,  Hyunjun Ji,  B. Kaduk,  
 K. Khistyaev,  Jaehoon Kim,  P. Klunzinger,  K. Koh,  D. Kosenkov,  
 T. Kowalczyk,  C. M. Krauter,  A. Kunitsa,  Ka Un Lao,  A. Laurent,  
 K. V. Lawler,  Joonho Lee,  D. Lefrancois,  S. Lehtola,  D. S. Levine,  
 Yi-Pei Li,  You-Sheng Lin,  Fenglai Liu,  E. Livshits,  A. Luenser,  
 P. Manohar,  E. Mansoor,  S. F. Manzer,  Shan-Ping Mao,  Yuezhi Mao,  
 N. Mardirossian,  A. V. Marenich,  L. A. Martinez-Martinez,  S. A. Maurer,  
 N. J. Mayhall,  S. C. McKenzie,  J.-M. Mewes,  A. F. Morrison,  K. Nanda,  
 T. S. Nguyen-Beck,  R. Olivares-Amaya,  J. A. Parkhill,  T. M. Perrine,  
 F. Plasser,  S. Prager,  A. Prociuk,  D. R. Rehn,  F. Rob,  M. Schneider,  
 N. Sergueev,  S. M. Sharada,  S. Sharma,  D. W. Small,  T. Stauch,  
 T. Stein,  Yu-Chuan Su,  A. J. W. Thom,  T. Tsuchimochi,  L. Vogt,  
 O. Vydrov,  M. A. Watson,  J. Wenzel,  M. de Wergifosse,  T. A. Wesolowski,  
 A. White,  J. Witte,  A. Yamada,  Jun Yang,  K. Yao,  S. Yeganeh,  
 S. R. Yost,  Zhi-Qiang You,  A. Zech,  Igor Ying Zhang,  Xing Zhang,  
 Yan Zhao,  Ying Zhu,  B. R. Brooks,  G. K. L. Chan,  C. J. Cramer,  
 M. S. Gordon,  W. J. Hehre,  A. Klamt,  M. W. Schmidt,  C. D. Sherrill,  
 D. G. Truhlar,  A. Aspuru-Guzik,  R. Baer,  A. T. Bell,  N. A. Besley,  
 Jeng-Da Chai,  A. Dreuw,  B. D. Dunietz,  T. R. Furlani,  Chao-Ping Hsu,  
 Yousung Jung,  Jing Kong,  D. S. Lambrecht,  WanZhen Liang,  C. Ochsenfeld,  
 V. A. Rassolov,  L. V. Slipchenko,  J. E. Subotnik,  T. Van Voorhis,  
 J. M. Herbert,  A. I. Krylov,  P. M. W. Gill,  M. Head-Gordon

 Contributors to earlier versions of Q-Chem not listed above: 
 R. D. Adamson,  B. Austin,  J. Baker,  G. J. O. Beran,  K. Brandhorst,  
 S. T. Brown,  E. F. C. Byrd,  A. K. Chakraborty,  C.-L. Cheng,  
 Siu Hung Chien,  D. M. Chipman,  D. L. Crittenden,  H. Dachsel,  
 R. A. DiStasio Jr.,  R. J. Doerksen,  A. D. Dutoi,  L. Fusti-Molnar,  
 W. A. Goddard III,  A. Golubeva-Zadorozhnaya,  S. R. Gwaltney,  G. Hawkins,  
 A. Heyden,  S. Hirata,  G. Kedziora,  F. J. Keil,  C. Kelley,  Jihan Kim,  
 R. A. King,  R. Z. Khaliullin,  P. P. Korambath,  W. Kurlancheek,  
 A. M. Lee,  M. S. Lee,  S. V. Levchenko,  Ching Yeh Lin,  D. Liotard,  
 R. C. Lochan,  I. Lotan,  P. E. Maslen,  N. Nair,  D. P. O'Neill,  
 D. Neuhauser,  E. Neuscamman,  C. M. Oana,  R. Olson,  B. Peters,  
 R. Peverati,  P. A. Pieniazek,  Y. M. Rhee,  J. Ritchie,  M. A. Rohrdanz,  
 E. Rosta,  N. J. Russ,  H. F. Schaefer III,  N. E. Schultz,  N. Shenvi,  
 A. C. Simmonett,  A. Sodt,  D. Stuck,  K. S. Thanthiriwatte,  V. Vanovschi,  
 Tao Wang,  A. Warshel,  C. F. Williams,  Q. Wu,  X. Xu,  W. Zhang

 Please cite Q-Chem as follows:
 Y. Shao et al., Mol. Phys. 113, 184-215 (2015)
 DOI: 10.1080/00268976.2014.952696

 Q-Chem 5.0.1 for Intel X86 EM64T Linux

 Parts of Q-Chem use Armadillo 5.200.1 (Boston Tea Smuggler).
 http://arma.sourceforge.net/

 Q-Chem begins on Tue Apr 17 15:50:20 2018  

Host: vega01.cac.cornell.edu
0

     Scratch files written to /scratch/jj585/vdw/01n00_distance_5.400_01.save//
 Parallel job on  1  processors

Checking the input file for inconsistencies... 	...done.

--------------------------------------------------------------
User input:
--------------------------------------------------------------
$molecule
0  1
C        -0.50728000        -1.15453000        +5.31242000
C        -0.51993000        +0.24795000        +5.43424000
C        -1.70604000        -1.88699000        +5.25379000
C        -2.90236000        -1.17139000        +5.32646000
C        -2.91597000        +0.21172000        +5.44865000
C        -1.73445000        +0.95321000        +5.50741000
H        -3.86638000        +0.73242000        +5.49641000
H        -3.84176000        -1.71294000        +5.28943000
C        -1.80244000        +2.45663000        +5.62770000
H        -1.20498000        +2.95269000        +4.85866000
H        -1.41787000        +2.79344000        +6.59215000
H        -2.83495000        +2.79540000        +5.52569000
H        -1.70162000        -2.91476000        +5.16056000
H        +0.39541000        -1.65249000        +5.26545000
H        +0.37267000        +0.76466000        +5.47028000
@C        -0.54444000        -0.68370000        -0.06689000
@C        -0.55709000        +0.71878000        +0.05493000
@C        -1.74320000        -1.41616000        -0.12552000
@C        -2.93952000        -0.70056000        -0.05285000
@C        -2.95313000        +0.68255000        +0.06934000
@C        -1.77161000        +1.42404000        +0.12810000
@H        -3.90354000        +1.20325000        +0.11710000
@H        -3.87892000        -1.24211000        -0.08988000
@C        -1.83960000        +2.92746000        +0.24839000
@H        -1.24214000        +3.42352000        -0.52065000
@H        -1.45503000        +3.26427000        +1.21284000
@H        -2.87211000        +3.26623000        +0.14638000
@H        -1.73878000        -2.44393000        -0.21875000
@H        +0.35825000        -1.18166000        -0.11386000
@H        +0.33551000        +1.23549000        +0.09097000
$end

$rem
JOBTYPE                   SP
METHOD                    B3LYP
DFT_D                     d3_op
BASIS                     6-311++G(d,p)
SYMMETRY                  False
THRESH                    12
SCF_CONVERGENCE           8
MAX_SUB_FILE_NUM          128
MEM_STATIC                400
MEM_TOTAL                 4000
$end
--------------------------------------------------------------
 Adding empirical dispersion correction 
 ----------------------------------------------------------------
 Doing -D3(op) with
 s6 =   1.00000
 s8 =   0.78311
 a1 =   0.30000
 a2 =   4.25000
 n  =  10.00000
 -D3 energy without 3body term =     -0.0113800034 hartrees
 ----------------------------------------------------------------
             Standard Nuclear Orientation (Angstroms)
    I     Atom           X                Y                Z
 ----------------------------------------------------------------
    1      C      -0.5072800000    -1.1545300000     5.3124200000
    2      C      -0.5199300000     0.2479500000     5.4342400000
    3      C      -1.7060400000    -1.8869900000     5.2537900000
    4      C      -2.9023600000    -1.1713900000     5.3264600000
    5      C      -2.9159700000     0.2117200000     5.4486500000
    6      C      -1.7344500000     0.9532100000     5.5074100000
    7      H      -3.8663800000     0.7324200000     5.4964100000
    8      H      -3.8417600000    -1.7129400000     5.2894300000
    9      C      -1.8024400000     2.4566300000     5.6277000000
   10      H      -1.2049800000     2.9526900000     4.8586600000
   11      H      -1.4178700000     2.7934400000     6.5921500000
   12      H      -2.8349500000     2.7954000000     5.5256900000
   13      H      -1.7016200000    -2.9147600000     5.1605600000
   14      H       0.3954100000    -1.6524900000     5.2654500000
   15      H       0.3726700000     0.7646600000     5.4702800000
   16      GH     -0.5444400000    -0.6837000000    -0.0668900000
   17      GH     -0.5570900000     0.7187800000     0.0549300000
   18      GH     -1.7432000000    -1.4161600000    -0.1255200000
   19      GH     -2.9395200000    -0.7005600000    -0.0528500000
   20      GH     -2.9531300000     0.6825500000     0.0693400000
   21      GH     -1.7716100000     1.4240400000     0.1281000000
   22      GH     -3.9035400000     1.2032500000     0.1171000000
   23      GH     -3.8789200000    -1.2421100000    -0.0898800000
   24      GH     -1.8396000000     2.9274600000     0.2483900000
   25      GH     -1.2421400000     3.4235200000    -0.5206500000
   26      GH     -1.4550300000     3.2642700000     1.2128400000
   27      GH     -2.8721100000     3.2662300000     0.1463800000
   28      GH     -1.7387800000    -2.4439300000    -0.2187500000
   29      GH      0.3582500000    -1.1816600000    -0.1138600000
   30      GH      0.3355100000     1.2354900000     0.0909700000
 ----------------------------------------------------------------
 Nuclear Repulsion Energy =   269.2168625664 hartrees
 There are       25 alpha and       25 beta electrons
 Requested basis set is 6-311++G(d,p)
 There are 164 shells and 420 basis functions

 Total QAlloc Memory Limit   4000 MB
 Mega-Array Size       392 MB
 MEM_STATIC part       400 MB
 A cutoff of  1.0D-12 yielded  10619 shell pairs
 There are     69013 function pairs (     73072 Cartesian)
 
 -------------------------------------------------------
 OpenMP Integral Computing Module                       
 Release: version 1.0, May 2013, Q-Chem Inc. Pittsburgh 
 -------------------------------------------------------
 Integral Job Info:
 Integral job number is                      11
 Integral operator is                         1
 short-range coefficients                     0
 long-range coefficients              100000000
 Omega coefficients                           0
 if combine SR and LR in K                    0
 Integral screening is                        0
 Integral computing path is                   2
 max size of driver memory is            800000
 size of driver memory is                593474
 size of scratch memory is              2361544
 max col of scratch BK array               1296
 max len of scratch array in speh3          155
 max len of scratch index in speh4           18
 max int batch size is                      520
 min int batch size is                       52
 fixed nKL is                                52
 max L of basis functions is                  2
 order of int derivative is                   0
 number of shells is                        164
 number of basis is                         434
 number of cartesian basis is               434
 number of contracted shell pairs         10619
 number of primitive shell pairs          23613
 maxK2 (contraction) of shell pair           36
 max number of K2 of shell pair               1
 max number of CS2 of shell pair           2025
 max number of PS2 of shell pair           3324
 mem total for path MDJ                  117498
 -------------------------------------------------------
 Smallest overlap matrix eigenvalue = 5.56E-07
 Linear dependence detected in AO basis
 Number of orthogonalized atomic orbitals = 419
 Maximum deviation from orthogonality = 2.331E-10

 Scale SEOQF with 1.000000e-01/1.000000e-01/1.000000e-02

 Standard Electronic Orientation quadrupole field applied
 Guess from superposition of atomic densities
 Warning:  Energy on first SCF cycle will be non-variational

 Q-Chem warning in module /opt/software/qchem/qchem-5.0.1/libgen/Atomic_PolEc.C, line 58:

 No atomic polarizability available.


 Q-Chem warning in module /opt/software/qchem/qchem-5.0.1/libgen/Atomic_PolEc.C, line 73:

 No atomic polarizability available.


 Q-Chem warning in module /opt/software/qchem/qchem-5.0.1/libgen/Atomic_PolEc.C, line 58:

 No atomic polarizability available.


 Q-Chem warning in module /opt/software/qchem/qchem-5.0.1/libgen/Atomic_PolEc.C, line 73:

 No atomic polarizability available.


 Q-Chem warning in module /opt/software/qchem/qchem-5.0.1/libgen/Atomic_PolEc.C, line 58:

 No atomic polarizability available.


 Q-Chem warning in module /opt/software/qchem/qchem-5.0.1/libgen/Atomic_PolEc.C, line 73:

 No atomic polarizability available.


 Q-Chem warning in module /opt/software/qchem/qchem-5.0.1/libgen/Atomic_PolEc.C, line 58:

 No atomic polarizability available.


 Q-Chem warning in module /opt/software/qchem/qchem-5.0.1/libgen/Atomic_PolEc.C, line 73:

 No atomic polarizability available.


 Q-Chem warning in module /opt/software/qchem/qchem-5.0.1/libgen/Atomic_PolEc.C, line 58:

 No atomic polarizability available.


 Q-Chem warning in module /opt/software/qchem/qchem-5.0.1/libgen/Atomic_PolEc.C, line 73:

 No atomic polarizability available.


 Q-Chem warning in module /opt/software/qchem/qchem-5.0.1/libgen/Atomic_PolEc.C, line 58:

 No atomic polarizability available.


 Q-Chem warning in module /opt/software/qchem/qchem-5.0.1/libgen/Atomic_PolEc.C, line 73:

 No atomic polarizability available.


 Q-Chem warning in module /opt/software/qchem/qchem-5.0.1/libgen/Atomic_PolEc.C, line 58:

 No atomic polarizability available.


 Q-Chem warning in module /opt/software/qchem/qchem-5.0.1/libgen/Atomic_PolEc.C, line 73:

 No atomic polarizability available.


 Q-Chem warning in module /opt/software/qchem/qchem-5.0.1/libgen/Atomic_PolEc.C, line 58:

 No atomic polarizability available.


 Q-Chem warning in module /opt/software/qchem/qchem-5.0.1/libgen/Atomic_PolEc.C, line 73:

 No atomic polarizability available.


 Q-Chem warning in module /opt/software/qchem/qchem-5.0.1/libgen/Atomic_PolEc.C, line 58:

 No atomic polarizability available.


 Q-Chem warning in module /opt/software/qchem/qchem-5.0.1/libgen/Atomic_PolEc.C, line 73:

 No atomic polarizability available.


 Q-Chem warning in module /opt/software/qchem/qchem-5.0.1/libgen/Atomic_PolEc.C, line 58:

 No atomic polarizability available.


 Q-Chem warning in module /opt/software/qchem/qchem-5.0.1/libgen/Atomic_PolEc.C, line 73:

 No atomic polarizability available.


 Q-Chem warning in module /opt/software/qchem/qchem-5.0.1/libgen/Atomic_PolEc.C, line 58:

 No atomic polarizability available.


 Q-Chem warning in module /opt/software/qchem/qchem-5.0.1/libgen/Atomic_PolEc.C, line 73:

 No atomic polarizability available.


 Q-Chem warning in module /opt/software/qchem/qchem-5.0.1/libgen/Atomic_PolEc.C, line 58:

 No atomic polarizability available.


 Q-Chem warning in module /opt/software/qchem/qchem-5.0.1/libgen/Atomic_PolEc.C, line 73:

 No atomic polarizability available.


 Q-Chem warning in module /opt/software/qchem/qchem-5.0.1/libgen/Atomic_PolEc.C, line 58:

 No atomic polarizability available.


 Q-Chem warning in module /opt/software/qchem/qchem-5.0.1/libgen/Atomic_PolEc.C, line 73:

 No atomic polarizability available.


 Q-Chem warning in module /opt/software/qchem/qchem-5.0.1/libgen/Atomic_PolEc.C, line 58:

 No atomic polarizability available.


 Q-Chem warning in module /opt/software/qchem/qchem-5.0.1/libgen/Atomic_PolEc.C, line 73:

 No atomic polarizability available.


 Q-Chem warning in module /opt/software/qchem/qchem-5.0.1/libgen/Atomic_PolEc.C, line 58:

 No atomic polarizability available.


 Q-Chem warning in module /opt/software/qchem/qchem-5.0.1/libgen/Atomic_PolEc.C, line 73:

 No atomic polarizability available.

 A restricted hybrid HF-DFT SCF calculation will be
 performed using Pulay DIIS extrapolation
 Exchange:     0.2000 Hartree-Fock + 0.0800 Slater + 0.7200 B88
 Correlation:  0.1900 VWN1RPA + 0.8100 LYP
 Using SG-1 standard quadrature grid
 Dispersion:   Grimme D3
 SCF converges when DIIS error is below 1.0E-08
 using 4 threads for integral computing
 -------------------------------------------------------
 OpenMP Integral computing Module                
 Release: version 1.0, May 2013, Q-Chem Inc. Pittsburgh 
 -------------------------------------------------------
 -------------------------------------------------------
 OpenMP BLAS3 based DFT computing Module                
 Release: version 1.0, May 2013, Q-Chem Inc. Pittsburgh 
 -------------------------------------------------------
 ---------------------------------------
  Cycle       Energy         DIIS Error
 ---------------------------------------
    1    -273.1501271210      2.19E-02
    2    -271.4965975687      2.44E-03
    3    -271.4749105334      2.65E-03
    4    -271.6428853783      1.97E-04
    5    -271.6434709505      1.01E-04
    6    -271.6436456615      4.34E-05
    7    -271.6436840057      1.58E-05
    8    -271.6436900516      1.31E-06
    9    -271.6436900807      8.00E-07
   10    -271.6436900947      1.84E-07
   11    -271.6436900954      8.04E-08
   12    -271.6436900955      9.62E-09 Convergence criterion met
 ---------------------------------------
 SCF time:  CPU 295.91 s  wall 74.16 s
 SCF   energy in the final basis set = -271.64369010
 Total energy in the final basis set = -271.64369010
 
 --------------------------------------------------------------
 
                    Orbital Energies (a.u.)
 --------------------------------------------------------------
 
 Alpha MOs
 -- Occupied --
-10.185 -10.174 -10.172 -10.171 -10.170 -10.169 -10.169  -0.858
 -0.776  -0.747  -0.691  -0.611  -0.591  -0.521  -0.465  -0.462
 -0.424  -0.423  -0.418  -0.390  -0.358  -0.350  -0.342  -0.255
 -0.247
 -- Virtual --
 -0.017  -0.013  -0.008   0.005   0.009   0.018   0.028   0.031
  0.035   0.040   0.045   0.049   0.055   0.061   0.064   0.068
  0.073   0.083   0.085   0.088   0.090   0.099   0.104   0.107
  0.110   0.113   0.119   0.121   0.123   0.125   0.128   0.129
  0.132   0.134   0.138   0.141   0.148   0.152   0.156   0.161
  0.163   0.166   0.168   0.173   0.176   0.180   0.184   0.185
  0.185   0.187   0.189   0.190   0.202   0.207   0.214   0.215
  0.221   0.223   0.232   0.233   0.238   0.241   0.248   0.249
  0.251   0.256   0.258   0.262   0.268   0.274   0.278   0.286
  0.289   0.292   0.300   0.304   0.307   0.309   0.313   0.316
  0.326   0.330   0.336   0.342   0.347   0.356   0.366   0.371
  0.374   0.378   0.387   0.399   0.415   0.421   0.423   0.434
  0.447   0.476   0.483   0.487   0.499   0.516   0.518   0.523
  0.537   0.543   0.556   0.559   0.570   0.576   0.579   0.583
  0.587   0.595   0.604   0.608   0.614   0.622   0.623   0.636
  0.639   0.649   0.654   0.655   0.661   0.664   0.673   0.682
  0.697   0.705   0.712   0.729   0.734   0.738   0.745   0.752
  0.766   0.775   0.784   0.806   0.811   0.824   0.836   0.851
  0.858   0.877   0.884   0.894   0.901   0.910   0.919   0.933
  0.934   0.947   0.951   0.977   1.001   1.012   1.017   1.022
  1.036   1.040   1.078   1.081   1.088   1.124   1.125   1.145
  1.148   1.175   1.198   1.205   1.221   1.289   1.325   1.355
  1.368   1.391   1.415   1.419   1.429   1.451   1.464   1.477
  1.500   1.526   1.528   1.533   1.536   1.544   1.555   1.559
  1.563   1.576   1.589   1.599   1.611   1.620   1.647   1.661
  1.676   1.683   1.699   1.715   1.716   1.721   1.740   1.746
  1.756   1.759   1.766   1.780   1.791   1.801   1.811   1.823
  1.844   1.851   1.859   1.866   1.885   1.891   1.896   1.902
  1.917   1.937   1.939   1.954   1.960   1.962   1.971   1.978
  2.018   2.025   2.034   2.037   2.044   2.054   2.067   2.095
  2.102   2.113   2.146   2.164   2.196   2.238   2.249   2.262
  2.307   2.310   2.320   2.323   2.334   2.395   2.400   2.413
  2.414   2.415   2.427   2.445   2.447   2.475   2.481   2.493
  2.498   2.503   2.538   2.555   2.556   2.560   2.572   2.589
  2.599   2.602   2.635   2.640   2.673   2.678   2.702   2.731
  2.735   2.743   2.752   2.756   2.759   2.771   2.793   2.834
  2.837   2.860   2.899   2.906   2.915   2.925   2.931   2.940
  2.953   2.990   2.997   3.002   3.007   3.009   3.049   3.091
  3.118   3.154   3.174   3.211   3.222   3.249   3.284   3.347
  3.353   3.359   3.386   3.396   3.401   3.450   3.478   3.500
  3.503   3.514   3.545   3.547   3.564   3.589   3.623   3.652
  3.667   3.715   3.722   3.791   3.799   3.860   4.021   4.034
  4.038   4.121   4.180   4.185   4.203   4.343   4.629   4.740
  4.838   4.843   4.860   4.914   4.982   5.123   5.232   5.674
  7.068   7.120   7.148   7.216   7.228   7.362   7.615   7.717
  7.720   7.746   7.768   7.779   7.821   7.836   7.861   7.981
  8.023   8.049   8.170   8.480   8.916   9.728  10.025  10.223
 10.239  10.278  10.294  10.357  23.654  23.940  24.000  24.009
 24.095  24.108  24.205  69.747  69.894  69.989  70.001  70.026
 70.044  70.070
 --------------------------------------------------------------
 
          Ground-State Mulliken Net Atomic Charges

     Atom                 Charge (a.u.)
  ----------------------------------------
      1 C                    -0.100522
      2 C                    -0.391704
      3 C                    -0.314783
      4 C                    -0.152059
      5 C                    -0.538882
      6 C                     0.893640
      7 H                     0.144478
      8 H                     0.171433
      9 C                    -0.635383
     10 H                     0.151612
     11 H                     0.158714
     12 H                     0.145883
     13 H                     0.149694
     14 H                     0.161744
     15 H                     0.163847
     16 GH                   -0.007976
     17 GH                    0.008972
     18 GH                    0.010100
     19 GH                   -0.008402
     20 GH                   -0.007462
     21 GH                   -0.004834
     22 GH                   -0.000905
     23 GH                   -0.000384
     24 GH                    0.004535
     25 GH                   -0.000173
     26 GH                   -0.001529
     27 GH                    0.000527
     28 GH                    0.000963
     29 GH                   -0.000740
     30 GH                   -0.000403
  ----------------------------------------
  Sum of atomic charges =     0.000000

 -----------------------------------------------------------------
                    Cartesian Multipole Moments
 -----------------------------------------------------------------
    Charge (ESU x 10^10)
                 0.0000
    Dipole Moment (Debye)
         X       0.0619      Y       0.3870      Z       0.0325
       Tot       0.3933
    Quadrupole Moments (Debye-Ang)
        XX     -39.3488     XY      -0.6444     YY     -38.4366
        XZ       0.2493     YZ       2.7952     ZZ     -46.0660
    Octopole Moments (Debye-Ang^2)
       XXX     204.1583    XXY      -1.0525    XYY      67.0354
       YYY      -8.7325    XXZ    -213.4586    XYZ      -4.6435
       YYZ    -209.5363    XZZ      81.9216    YZZ      21.1209
       ZZZ    -751.0001
    Hexadecapole Moments (Debye-Ang^3)
      XXXX    -996.6440   XXXY      12.0780   XXYY    -265.5253
      XYYY      20.4422   YYYY    -616.6323   XXXZ    1108.9985
      XXYZ     -11.3670   XYYZ     365.5836   YYYZ     -68.9537
      XXZZ   -1369.2794   XYZZ     -32.0774   YYZZ   -1264.3743
      XZZZ    1320.1345   YZZZ     133.4488   ZZZZ   -8209.1970
 -----------------------------------------------------------------
Archival summary:
1\1\vega01.cac.cornell.edu\SP\ProcedureUnspecified\BasisUnspecified\78h15\jj585\TueApr1715:51:352018TueApr1715:51:352018\0\\#,ProcedureUnspecified,BasisUnspecified,\\0,1\C\C,1,1.39616\H,2,1.08475,1,118.991\C,2,1.38856,1,121.629,3,179.783,0\H,4,1.08495,2,119.453,1,179.671,0\C,4,1.3959,2,121.575,1,-0.129654,0\H,6,1.032,4,121.26,2,-179.84,0\C,6,1.40604,4,117.481,2,0.160349,0\H,8,1.032,6,119.504,4,179.742,0\C,1,1.40634,2,117.536,3,-179.6,0\H,10,1.032,1,119.607,2,179.72,0\C,1,1.50976,2,119.611,3,-0.341033,0\H,12,1.09144,1,110.135,2,-7.24194,0\H,12,1.09156,1,111.21,2,113.289,0\H,12,1.09291,1,111.796,2,-127.427,0\Gh,15,3.66764,12,134.488,1,67.6647,0\Gh,16,1.09156,15,151.176,12,-19.1723,0\Gh,17,1.09144,16,108.669,15,77.7818,0\Gh,17,1.09291,16,106.802,15,-165.834,0\Gh,17,1.50976,16,111.21,15,-43.6098,0\Gh,20,1.39616,17,119.611,16,113.289,0\Gh,21,1.08475,20,118.991,17,-0.341033,0\Gh,21,1.38856,20,121.629,17,179.442,0\Gh,23,1.08495,21,119.453,20,179.671,0\Gh,23,1.3959,21,121.575,20,-0.129654,0\Gh,25,1.032,23,121.26,21,-179.84,0\Gh,25,1.40604,23,117.481,21,0.160349,0\Gh,27,1.032,25,119.504,23,179.742,0\Gh,20,1.40634,17,122.848,16,-67.4939,0\Gh,29,1.032,20,119.607,17,0.487832,0\\\@

 Total job time:  74.76s(wall), 297.86s(cpu) 
 Tue Apr 17 15:51:35 2018

        *************************************************************
        *                                                           *
        *  Thank you very much for using Q-Chem.  Have a nice day.  *
        *                                                           *
        *************************************************************


0 sent ACK to 0 
now end server 0 ... 
