mFile = /opt/software/qchem/qchem-5.0.1//bin/mpi/machines
Process 0 of 1 is on vega03.cac.cornell.edu - thread support 0
initial socket setup ...start
initial socket setup ...done 
now start server 0 ... 
vega03 10.84.3
Q-Chem Developer Version! Running on 10.84.3.*
                  Welcome to Q-Chem
     A Quantum Leap Into The Future Of Chemistry


 Q-Chem 5.0, Q-Chem, Inc., Pleasanton, CA (2017)

 Yihan Shao,  Zhengting Gan,  E. Epifanovsky,  A. T. B. Gilbert,  M. Wormit,  
 J. Kussmann,  A. W. Lange,  A. Behn,  Jia Deng,  Xintian Feng,  D. Ghosh,  
 M. Goldey,  P. R. Horn,  L. D. Jacobson,  I. Kaliman,  T. Kus,  A. Landau,  
 Jie Liu,  E. I. Proynov,  R. M. Richard,  R. P. Steele,  E. J. Sundstrom,  
 H. L. Woodcock III,  P. M. Zimmerman,  D. Zuev,  B. Albrecht,  E. Alguire,  
 S. A. Baeppler,  Z. Benda,  Y. A. Bernard,  E. J. Berquist,  K. B. Bravaya,  
 D. Casanova,  Chun-Min Chang,  Yunqing Chen,  A. Chien,  K. D. Closser,  
 M. P. Coons,  S. Dasgupta,  M. Diedenhofen,  Hainam Do,  R. G. Edgar,  
 Po-Tung Fang,  S. Fatehi,  Qingguo Feng,  Qinghui Ge,  A. Ghysels,  
 J. Gomes,  J. Gonthier,  A. Gunina,  M. W. D. Hanson-Heine,  
 P. H. P. Harbach,  A. W. Hauser,  J. E. Herr,  E. G. Hohenstein,  
 Z. C. Holden,  Kerwin Hui,  T.-C. Jagau,  Hyunjun Ji,  B. Kaduk,  
 K. Khistyaev,  Jaehoon Kim,  P. Klunzinger,  K. Koh,  D. Kosenkov,  
 T. Kowalczyk,  C. M. Krauter,  A. Kunitsa,  Ka Un Lao,  A. Laurent,  
 K. V. Lawler,  Joonho Lee,  D. Lefrancois,  S. Lehtola,  D. S. Levine,  
 Yi-Pei Li,  You-Sheng Lin,  Fenglai Liu,  E. Livshits,  A. Luenser,  
 P. Manohar,  E. Mansoor,  S. F. Manzer,  Shan-Ping Mao,  Yuezhi Mao,  
 N. Mardirossian,  A. V. Marenich,  L. A. Martinez-Martinez,  S. A. Maurer,  
 N. J. Mayhall,  S. C. McKenzie,  J.-M. Mewes,  A. F. Morrison,  K. Nanda,  
 T. S. Nguyen-Beck,  R. Olivares-Amaya,  J. A. Parkhill,  T. M. Perrine,  
 F. Plasser,  S. Prager,  A. Prociuk,  D. R. Rehn,  F. Rob,  M. Schneider,  
 N. Sergueev,  S. M. Sharada,  S. Sharma,  D. W. Small,  T. Stauch,  
 T. Stein,  Yu-Chuan Su,  A. J. W. Thom,  T. Tsuchimochi,  L. Vogt,  
 O. Vydrov,  M. A. Watson,  J. Wenzel,  M. de Wergifosse,  T. A. Wesolowski,  
 A. White,  J. Witte,  A. Yamada,  Jun Yang,  K. Yao,  S. Yeganeh,  
 S. R. Yost,  Zhi-Qiang You,  A. Zech,  Igor Ying Zhang,  Xing Zhang,  
 Yan Zhao,  Ying Zhu,  B. R. Brooks,  G. K. L. Chan,  C. J. Cramer,  
 M. S. Gordon,  W. J. Hehre,  A. Klamt,  M. W. Schmidt,  C. D. Sherrill,  
 D. G. Truhlar,  A. Aspuru-Guzik,  R. Baer,  A. T. Bell,  N. A. Besley,  
 Jeng-Da Chai,  A. Dreuw,  B. D. Dunietz,  T. R. Furlani,  Chao-Ping Hsu,  
 Yousung Jung,  Jing Kong,  D. S. Lambrecht,  WanZhen Liang,  C. Ochsenfeld,  
 V. A. Rassolov,  L. V. Slipchenko,  J. E. Subotnik,  T. Van Voorhis,  
 J. M. Herbert,  A. I. Krylov,  P. M. W. Gill,  M. Head-Gordon

 Contributors to earlier versions of Q-Chem not listed above: 
 R. D. Adamson,  B. Austin,  J. Baker,  G. J. O. Beran,  K. Brandhorst,  
 S. T. Brown,  E. F. C. Byrd,  A. K. Chakraborty,  C.-L. Cheng,  
 Siu Hung Chien,  D. M. Chipman,  D. L. Crittenden,  H. Dachsel,  
 R. A. DiStasio Jr.,  R. J. Doerksen,  A. D. Dutoi,  L. Fusti-Molnar,  
 W. A. Goddard III,  A. Golubeva-Zadorozhnaya,  S. R. Gwaltney,  G. Hawkins,  
 A. Heyden,  S. Hirata,  G. Kedziora,  F. J. Keil,  C. Kelley,  Jihan Kim,  
 R. A. King,  R. Z. Khaliullin,  P. P. Korambath,  W. Kurlancheek,  
 A. M. Lee,  M. S. Lee,  S. V. Levchenko,  Ching Yeh Lin,  D. Liotard,  
 R. C. Lochan,  I. Lotan,  P. E. Maslen,  N. Nair,  D. P. O'Neill,  
 D. Neuhauser,  E. Neuscamman,  C. M. Oana,  R. Olson,  B. Peters,  
 R. Peverati,  P. A. Pieniazek,  Y. M. Rhee,  J. Ritchie,  M. A. Rohrdanz,  
 E. Rosta,  N. J. Russ,  H. F. Schaefer III,  N. E. Schultz,  N. Shenvi,  
 A. C. Simmonett,  A. Sodt,  D. Stuck,  K. S. Thanthiriwatte,  V. Vanovschi,  
 Tao Wang,  A. Warshel,  C. F. Williams,  Q. Wu,  X. Xu,  W. Zhang

 Please cite Q-Chem as follows:
 Y. Shao et al., Mol. Phys. 113, 184-215 (2015)
 DOI: 10.1080/00268976.2014.952696

 Q-Chem 5.0.1 for Intel X86 EM64T Linux

 Parts of Q-Chem use Armadillo 5.200.1 (Boston Tea Smuggler).
 http://arma.sourceforge.net/

 Q-Chem begins on Tue Apr 17 00:49:20 2018  

Host: vega03.cac.cornell.edu
0

     Scratch files written to /scratch/jj585/vdw/01n00_distance_4.200_01.save//
 Parallel job on  1  processors

Checking the input file for inconsistencies... 	...done.

--------------------------------------------------------------
User input:
--------------------------------------------------------------
$molecule
0  1
C        -0.68799000        -0.98399000        +4.11990000
C        -0.70064000        +0.41849000        +4.24172000
C        -1.88675000        -1.71645000        +4.06127000
C        -3.08307000        -1.00085000        +4.13394000
C        -3.09668000        +0.38226000        +4.25613000
C        -1.91516000        +1.12375000        +4.31489000
H        -4.04709000        +0.90296000        +4.30389000
H        -4.02247000        -1.54240000        +4.09691000
C        -1.98315000        +2.62717000        +4.43518000
H        -1.38569000        +3.12323000        +3.66614000
H        -1.59858000        +2.96398000        +5.39963000
H        -3.01566000        +2.96594000        +4.33317000
H        -1.88233000        -2.74422000        +3.96804000
H        +0.21470000        -1.48195000        +4.07293000
H        +0.19196000        +0.93520000        +4.27776000
@C        -0.54444000        -0.68370000        -0.06689000
@C        -0.55709000        +0.71878000        +0.05493000
@C        -1.74320000        -1.41616000        -0.12552000
@C        -2.93952000        -0.70056000        -0.05285000
@C        -2.95313000        +0.68255000        +0.06934000
@C        -1.77161000        +1.42404000        +0.12810000
@H        -3.90354000        +1.20325000        +0.11710000
@H        -3.87892000        -1.24211000        -0.08988000
@C        -1.83960000        +2.92746000        +0.24839000
@H        -1.24214000        +3.42352000        -0.52065000
@H        -1.45503000        +3.26427000        +1.21284000
@H        -2.87211000        +3.26623000        +0.14638000
@H        -1.73878000        -2.44393000        -0.21875000
@H        +0.35825000        -1.18166000        -0.11386000
@H        +0.33551000        +1.23549000        +0.09097000
$end

$rem
JOBTYPE                   SP
METHOD                    B3LYP
DFT_D                     d3_op
BASIS                     6-311++G(d,p)
SYMMETRY                  False
THRESH                    12
SCF_CONVERGENCE           8
MAX_SUB_FILE_NUM          128
MEM_STATIC                400
MEM_TOTAL                 4000
$end
--------------------------------------------------------------
 Adding empirical dispersion correction 
 ----------------------------------------------------------------
 Doing -D3(op) with
 s6 =   1.00000
 s8 =   0.78311
 a1 =   0.30000
 a2 =   4.25000
 n  =  10.00000
 -D3 energy without 3body term =     -0.0113800034 hartrees
 ----------------------------------------------------------------
             Standard Nuclear Orientation (Angstroms)
    I     Atom           X                Y                Z
 ----------------------------------------------------------------
    1      C      -0.6879900000    -0.9839900000     4.1199000000
    2      C      -0.7006400000     0.4184900000     4.2417200000
    3      C      -1.8867500000    -1.7164500000     4.0612700000
    4      C      -3.0830700000    -1.0008500000     4.1339400000
    5      C      -3.0966800000     0.3822600000     4.2561300000
    6      C      -1.9151600000     1.1237500000     4.3148900000
    7      H      -4.0470900000     0.9029600000     4.3038900000
    8      H      -4.0224700000    -1.5424000000     4.0969100000
    9      C      -1.9831500000     2.6271700000     4.4351800000
   10      H      -1.3856900000     3.1232300000     3.6661400000
   11      H      -1.5985800000     2.9639800000     5.3996300000
   12      H      -3.0156600000     2.9659400000     4.3331700000
   13      H      -1.8823300000    -2.7442200000     3.9680400000
   14      H       0.2147000000    -1.4819500000     4.0729300000
   15      H       0.1919600000     0.9352000000     4.2777600000
   16      GH     -0.5444400000    -0.6837000000    -0.0668900000
   17      GH     -0.5570900000     0.7187800000     0.0549300000
   18      GH     -1.7432000000    -1.4161600000    -0.1255200000
   19      GH     -2.9395200000    -0.7005600000    -0.0528500000
   20      GH     -2.9531300000     0.6825500000     0.0693400000
   21      GH     -1.7716100000     1.4240400000     0.1281000000
   22      GH     -3.9035400000     1.2032500000     0.1171000000
   23      GH     -3.8789200000    -1.2421100000    -0.0898800000
   24      GH     -1.8396000000     2.9274600000     0.2483900000
   25      GH     -1.2421400000     3.4235200000    -0.5206500000
   26      GH     -1.4550300000     3.2642700000     1.2128400000
   27      GH     -2.8721100000     3.2662300000     0.1463800000
   28      GH     -1.7387800000    -2.4439300000    -0.2187500000
   29      GH      0.3582500000    -1.1816600000    -0.1138600000
   30      GH      0.3355100000     1.2354900000     0.0909700000
 ----------------------------------------------------------------
 Nuclear Repulsion Energy =   269.2168625664 hartrees
 There are       25 alpha and       25 beta electrons
 Requested basis set is 6-311++G(d,p)
 There are 164 shells and 420 basis functions

 Total QAlloc Memory Limit   4000 MB
 Mega-Array Size       392 MB
 MEM_STATIC part       400 MB
 A cutoff of  1.0D-12 yielded  11284 shell pairs
 There are     75383 function pairs (     80351 Cartesian)
 
 -------------------------------------------------------
 OpenMP Integral Computing Module                       
 Release: version 1.0, May 2013, Q-Chem Inc. Pittsburgh 
 -------------------------------------------------------
 Integral Job Info:
 Integral job number is                      11
 Integral operator is                         1
 short-range coefficients                     0
 long-range coefficients              100000000
 Omega coefficients                           0
 if combine SR and LR in K                    0
 Integral screening is                        0
 Integral computing path is                   2
 max size of driver memory is            800000
 size of driver memory is                593474
 size of scratch memory is              2361544
 max col of scratch BK array               1296
 max len of scratch array in speh3          155
 max len of scratch index in speh4           18
 max int batch size is                      520
 min int batch size is                       52
 fixed nKL is                                52
 max L of basis functions is                  2
 order of int derivative is                   0
 number of shells is                        164
 number of basis is                         434
 number of cartesian basis is               434
 number of contracted shell pairs         11284
 number of primitive shell pairs          24690
 maxK2 (contraction) of shell pair           36
 max number of K2 of shell pair               1
 max number of CS2 of shell pair           2116
 max number of PS2 of shell pair           3516
 mem total for path MDJ                  130616
 -------------------------------------------------------
 Smallest overlap matrix eigenvalue = 2.80E-07
 Linear dependence detected in AO basis
 Number of orthogonalized atomic orbitals = 418
 Maximum deviation from orthogonality = 3.332E-11

 Scale SEOQF with 1.000000e-01/1.000000e-01/1.000000e-02

 Standard Electronic Orientation quadrupole field applied
 Nucleus-field energy     =     0.0000000075 hartrees
 Guess from superposition of atomic densities
 Warning:  Energy on first SCF cycle will be non-variational

 Q-Chem warning in module /opt/software/qchem/qchem-5.0.1/libgen/Atomic_PolEc.C, line 58:

 No atomic polarizability available.


 Q-Chem warning in module /opt/software/qchem/qchem-5.0.1/libgen/Atomic_PolEc.C, line 73:

 No atomic polarizability available.


 Q-Chem warning in module /opt/software/qchem/qchem-5.0.1/libgen/Atomic_PolEc.C, line 58:

 No atomic polarizability available.


 Q-Chem warning in module /opt/software/qchem/qchem-5.0.1/libgen/Atomic_PolEc.C, line 73:

 No atomic polarizability available.


 Q-Chem warning in module /opt/software/qchem/qchem-5.0.1/libgen/Atomic_PolEc.C, line 58:

 No atomic polarizability available.


 Q-Chem warning in module /opt/software/qchem/qchem-5.0.1/libgen/Atomic_PolEc.C, line 73:

 No atomic polarizability available.


 Q-Chem warning in module /opt/software/qchem/qchem-5.0.1/libgen/Atomic_PolEc.C, line 58:

 No atomic polarizability available.


 Q-Chem warning in module /opt/software/qchem/qchem-5.0.1/libgen/Atomic_PolEc.C, line 73:

 No atomic polarizability available.


 Q-Chem warning in module /opt/software/qchem/qchem-5.0.1/libgen/Atomic_PolEc.C, line 58:

 No atomic polarizability available.


 Q-Chem warning in module /opt/software/qchem/qchem-5.0.1/libgen/Atomic_PolEc.C, line 73:

 No atomic polarizability available.


 Q-Chem warning in module /opt/software/qchem/qchem-5.0.1/libgen/Atomic_PolEc.C, line 58:

 No atomic polarizability available.


 Q-Chem warning in module /opt/software/qchem/qchem-5.0.1/libgen/Atomic_PolEc.C, line 73:

 No atomic polarizability available.


 Q-Chem warning in module /opt/software/qchem/qchem-5.0.1/libgen/Atomic_PolEc.C, line 58:

 No atomic polarizability available.


 Q-Chem warning in module /opt/software/qchem/qchem-5.0.1/libgen/Atomic_PolEc.C, line 73:

 No atomic polarizability available.


 Q-Chem warning in module /opt/software/qchem/qchem-5.0.1/libgen/Atomic_PolEc.C, line 58:

 No atomic polarizability available.


 Q-Chem warning in module /opt/software/qchem/qchem-5.0.1/libgen/Atomic_PolEc.C, line 73:

 No atomic polarizability available.


 Q-Chem warning in module /opt/software/qchem/qchem-5.0.1/libgen/Atomic_PolEc.C, line 58:

 No atomic polarizability available.


 Q-Chem warning in module /opt/software/qchem/qchem-5.0.1/libgen/Atomic_PolEc.C, line 73:

 No atomic polarizability available.


 Q-Chem warning in module /opt/software/qchem/qchem-5.0.1/libgen/Atomic_PolEc.C, line 58:

 No atomic polarizability available.


 Q-Chem warning in module /opt/software/qchem/qchem-5.0.1/libgen/Atomic_PolEc.C, line 73:

 No atomic polarizability available.


 Q-Chem warning in module /opt/software/qchem/qchem-5.0.1/libgen/Atomic_PolEc.C, line 58:

 No atomic polarizability available.


 Q-Chem warning in module /opt/software/qchem/qchem-5.0.1/libgen/Atomic_PolEc.C, line 73:

 No atomic polarizability available.


 Q-Chem warning in module /opt/software/qchem/qchem-5.0.1/libgen/Atomic_PolEc.C, line 58:

 No atomic polarizability available.


 Q-Chem warning in module /opt/software/qchem/qchem-5.0.1/libgen/Atomic_PolEc.C, line 73:

 No atomic polarizability available.


 Q-Chem warning in module /opt/software/qchem/qchem-5.0.1/libgen/Atomic_PolEc.C, line 58:

 No atomic polarizability available.


 Q-Chem warning in module /opt/software/qchem/qchem-5.0.1/libgen/Atomic_PolEc.C, line 73:

 No atomic polarizability available.


 Q-Chem warning in module /opt/software/qchem/qchem-5.0.1/libgen/Atomic_PolEc.C, line 58:

 No atomic polarizability available.


 Q-Chem warning in module /opt/software/qchem/qchem-5.0.1/libgen/Atomic_PolEc.C, line 73:

 No atomic polarizability available.


 Q-Chem warning in module /opt/software/qchem/qchem-5.0.1/libgen/Atomic_PolEc.C, line 58:

 No atomic polarizability available.


 Q-Chem warning in module /opt/software/qchem/qchem-5.0.1/libgen/Atomic_PolEc.C, line 73:

 No atomic polarizability available.

 A restricted hybrid HF-DFT SCF calculation will be
 performed using Pulay DIIS extrapolation
 Exchange:     0.2000 Hartree-Fock + 0.0800 Slater + 0.7200 B88
 Correlation:  0.1900 VWN1RPA + 0.8100 LYP
 Using SG-1 standard quadrature grid
 Dispersion:   Grimme D3
 SCF converges when DIIS error is below 1.0E-08
 using 4 threads for integral computing
 -------------------------------------------------------
 OpenMP Integral computing Module                
 Release: version 1.0, May 2013, Q-Chem Inc. Pittsburgh 
 -------------------------------------------------------
 -------------------------------------------------------
 OpenMP BLAS3 based DFT computing Module                
 Release: version 1.0, May 2013, Q-Chem Inc. Pittsburgh 
 -------------------------------------------------------
 ---------------------------------------
  Cycle       Energy         DIIS Error
 ---------------------------------------
    1    -273.1501220017      2.19E-02
    2    -271.4967910423      2.45E-03
    3    -271.4746590661      2.66E-03
    4    -271.6430314302      2.00E-04
    5    -271.6436368880      1.01E-04
    6    -271.6438134704      4.37E-05
    7    -271.6438519586      1.60E-05
    8    -271.6438581355      1.32E-06
    9    -271.6438581654      7.98E-07
   10    -271.6438581793      1.86E-07
   11    -271.6438581800      8.05E-08
   12    -271.6438581801      9.90E-09 Convergence criterion met
 ---------------------------------------
 SCF time:  CPU 348.53 s  wall 87.41 s
 SCF   energy in the final basis set = -271.64385818
 Total energy in the final basis set = -271.64385818
 
 --------------------------------------------------------------
 
                    Orbital Energies (a.u.)
 --------------------------------------------------------------
 
 Alpha MOs
 -- Occupied --
-10.185 -10.174 -10.172 -10.171 -10.170 -10.169 -10.169  -0.858
 -0.776  -0.747  -0.691  -0.611  -0.591  -0.521  -0.465  -0.462
 -0.424  -0.423  -0.418  -0.390  -0.358  -0.350  -0.342  -0.255
 -0.247
 -- Virtual --
 -0.017  -0.013  -0.008   0.005   0.009   0.019   0.028   0.031
  0.036   0.041   0.047   0.053   0.058   0.062   0.065   0.068
  0.079   0.083   0.090   0.093   0.093   0.103   0.105   0.107
  0.112   0.114   0.120   0.125   0.126   0.129   0.130   0.131
  0.137   0.139   0.141   0.145   0.154   0.161   0.162   0.164
  0.167   0.174   0.175   0.177   0.180   0.181   0.186   0.187
  0.194   0.196   0.201   0.208   0.213   0.214   0.217   0.222
  0.229   0.233   0.236   0.240   0.245   0.246   0.251   0.256
  0.264   0.265   0.271   0.277   0.278   0.280   0.283   0.292
  0.296   0.302   0.304   0.310   0.313   0.317   0.329   0.331
  0.336   0.340   0.358   0.365   0.374   0.376   0.381   0.395
  0.405   0.410   0.418   0.420   0.433   0.439   0.446   0.458
  0.474   0.479   0.484   0.500   0.512   0.521   0.530   0.540
  0.547   0.550   0.557   0.573   0.579   0.584   0.595   0.601
  0.606   0.610   0.615   0.617   0.631   0.633   0.637   0.644
  0.645   0.654   0.660   0.668   0.676   0.690   0.698   0.705
  0.710   0.730   0.733   0.739   0.746   0.750   0.752   0.767
  0.777   0.796   0.809   0.813   0.823   0.841   0.857   0.864
  0.882   0.894   0.900   0.914   0.927   0.928   0.939   0.944
  0.953   0.969   0.976   1.007   1.015   1.016   1.019   1.045
  1.059   1.079   1.094   1.109   1.127   1.130   1.150   1.153
  1.176   1.189   1.203   1.221   1.279   1.336   1.365   1.373
  1.416   1.427   1.440   1.449   1.461   1.481   1.496   1.501
  1.526   1.531   1.536   1.544   1.550   1.555   1.557   1.569
  1.579   1.592   1.604   1.618   1.630   1.657   1.667   1.675
  1.696   1.703   1.717   1.723   1.731   1.743   1.746   1.758
  1.769   1.773   1.792   1.795   1.807   1.817   1.830   1.851
  1.858   1.866   1.875   1.892   1.896   1.906   1.908   1.934
  1.941   1.949   1.957   1.963   1.967   1.969   1.987   2.010
  2.029   2.037   2.043   2.045   2.051   2.065   2.093   2.106
  2.117   2.151   2.167   2.204   2.241   2.252   2.259   2.307
  2.315   2.319   2.323   2.331   2.387   2.402   2.408   2.414
  2.420   2.424   2.443   2.450   2.482   2.490   2.495   2.508
  2.529   2.537   2.547   2.562   2.566   2.576   2.586   2.601
  2.610   2.634   2.644   2.676   2.689   2.713   2.729   2.737
  2.744   2.747   2.759   2.770   2.782   2.814   2.833   2.842
  2.868   2.899   2.907   2.914   2.924   2.931   2.947   2.954
  2.987   2.992   3.000   3.002   3.015   3.042   3.096   3.112
  3.160   3.169   3.204   3.225   3.247   3.280   3.338   3.358
  3.369   3.384   3.394   3.406   3.444   3.484   3.505   3.512
  3.523   3.544   3.557   3.567   3.593   3.625   3.654   3.665
  3.711   3.728   3.792   3.796   3.864   4.010   4.036   4.040
  4.122   4.181   4.189   4.206   4.344   4.637   4.732   4.838
  4.854   4.864   4.916   4.962   5.101   5.206   5.646   7.064
  7.118   7.152   7.212   7.231   7.365   7.612   7.721   7.726
  7.752   7.775   7.784   7.828   7.843   7.870   7.978   8.026
  8.048   8.165   8.482   8.906   9.709   9.999  10.185  10.205
 10.235  10.245  10.305  23.680  23.943  24.004  24.016  24.096
 24.108  24.205  69.900  69.968  70.115  70.123  70.141  70.145
 70.187
 --------------------------------------------------------------
 
          Ground-State Mulliken Net Atomic Charges

     Atom                 Charge (a.u.)
  ----------------------------------------
      1 C                    -0.223260
      2 C                    -0.196695
      3 C                    -0.290097
      4 C                    -0.262298
      5 C                    -0.245410
      6 C                     0.643136
      7 H                     0.156334
      8 H                     0.173182
      9 C                    -0.689726
     10 H                     0.157669
     11 H                     0.159496
     12 H                     0.139124
     13 H                     0.145922
     14 H                     0.161767
     15 H                     0.172421
     16 GH                   -0.022661
     17 GH                   -0.009596
     18 GH                    0.010694
     19 GH                   -0.006541
     20 GH                   -0.000729
     21 GH                    0.002101
     22 GH                    0.003370
     23 GH                    0.002170
     24 GH                    0.015061
     25 GH                   -0.000085
     26 GH                   -0.002242
     27 GH                    0.002058
     28 GH                    0.003566
     29 GH                    0.001150
     30 GH                    0.000119
  ----------------------------------------
  Sum of atomic charges =     0.000000

 -----------------------------------------------------------------
                    Cartesian Multipole Moments
 -----------------------------------------------------------------
    Charge (ESU x 10^10)
                 0.0000
    Dipole Moment (Debye)
         X       0.0631      Y       0.3881      Z       0.0329
       Tot       0.3946
    Quadrupole Moments (Debye-Ang)
        XX     -39.4130     XY      -0.7070     YY     -38.3388
        XZ       0.1756     YZ       2.3349     ZZ     -46.1119
    Octopole Moments (Debye-Ang^2)
       XXX     225.7402    XXY      -7.4996    XYY      73.8164
       YYY     -28.3625    XXZ    -166.7847    XYZ      -4.2582
       YYZ    -163.0509    XZZ      89.7246    YZZ       7.0741
       ZZZ    -585.6545
    Hexadecapole Moments (Debye-Ang^3)
      XXXX   -1153.3039   XXXY      50.9227   XXYY    -292.7120
      XYYY      59.8132   YYYY    -629.8132   XXXZ     956.9255
      XXYZ     -37.0172   XYYZ     314.1094   YYYZ    -142.1264
      XXZZ    -947.8190   XYZZ      -9.1861   YYZZ    -816.1819
      XZZZ    1133.2852   YZZZ     -31.2615   ZZZZ   -5016.6953
 -----------------------------------------------------------------
Archival summary:
1\1\vega03.cac.cornell.edu\SP\ProcedureUnspecified\BasisUnspecified\78h15\jj585\TueApr1700:50:482018TueApr1700:50:482018\0\\#,ProcedureUnspecified,BasisUnspecified,\\0,1\C\C,1,1.39616\H,2,1.08475,1,118.991\C,2,1.38856,1,121.629,3,179.783,0\H,4,1.08495,2,119.453,1,179.671,0\C,4,1.3959,2,121.575,1,-0.129654,0\H,6,1.032,4,121.26,2,-179.84,0\C,6,1.40604,4,117.481,2,0.160349,0\H,8,1.032,6,119.504,4,179.742,0\C,1,1.40634,2,117.536,3,-179.6,0\H,10,1.032,1,119.607,2,179.72,0\C,1,1.50976,2,119.611,3,-0.341033,0\H,12,1.09144,1,110.135,2,-7.24194,0\H,12,1.09156,1,111.21,2,113.289,0\H,12,1.09291,1,111.796,2,-127.427,0\Gh,15,2.45833,12,135.467,1,63.9679,0\Gh,16,1.09156,15,150.925,12,-11.5297,0\Gh,17,1.09144,16,108.669,15,72.0358,0\Gh,17,1.09291,16,106.802,15,-171.58,0\Gh,17,1.50976,16,111.21,15,-49.3559,0\Gh,20,1.39616,17,119.611,16,113.289,0\Gh,21,1.08475,20,118.991,17,-0.341033,0\Gh,21,1.38856,20,121.629,17,179.442,0\Gh,23,1.08495,21,119.453,20,179.671,0\Gh,23,1.3959,21,121.575,20,-0.129654,0\Gh,25,1.032,23,121.26,21,-179.84,0\Gh,25,1.40604,23,117.481,21,0.160349,0\Gh,27,1.032,25,119.504,23,179.742,0\Gh,20,1.40634,17,122.848,16,-67.4939,0\Gh,29,1.032,20,119.607,17,0.487832,0\\\@

 Total job time:  88.16s(wall), 350.72s(cpu) 
 Tue Apr 17 00:50:48 2018

        *************************************************************
        *                                                           *
        *  Thank you very much for using Q-Chem.  Have a nice day.  *
        *                                                           *
        *************************************************************


0 sent ACK to 0 
now end server 0 ... 
