mFile = /opt/software/qchem/qchem-5.0.1//bin/mpi/machines
Process 0 of 1 is on vega03.cac.cornell.edu - thread support 0
initial socket setup ...start
initial socket setup ...done 
now start server 0 ... 
vega03 10.84.3
Q-Chem Developer Version! Running on 10.84.3.*
                  Welcome to Q-Chem
     A Quantum Leap Into The Future Of Chemistry


 Q-Chem 5.0, Q-Chem, Inc., Pleasanton, CA (2017)

 Yihan Shao,  Zhengting Gan,  E. Epifanovsky,  A. T. B. Gilbert,  M. Wormit,  
 J. Kussmann,  A. W. Lange,  A. Behn,  Jia Deng,  Xintian Feng,  D. Ghosh,  
 M. Goldey,  P. R. Horn,  L. D. Jacobson,  I. Kaliman,  T. Kus,  A. Landau,  
 Jie Liu,  E. I. Proynov,  R. M. Richard,  R. P. Steele,  E. J. Sundstrom,  
 H. L. Woodcock III,  P. M. Zimmerman,  D. Zuev,  B. Albrecht,  E. Alguire,  
 S. A. Baeppler,  Z. Benda,  Y. A. Bernard,  E. J. Berquist,  K. B. Bravaya,  
 D. Casanova,  Chun-Min Chang,  Yunqing Chen,  A. Chien,  K. D. Closser,  
 M. P. Coons,  S. Dasgupta,  M. Diedenhofen,  Hainam Do,  R. G. Edgar,  
 Po-Tung Fang,  S. Fatehi,  Qingguo Feng,  Qinghui Ge,  A. Ghysels,  
 J. Gomes,  J. Gonthier,  A. Gunina,  M. W. D. Hanson-Heine,  
 P. H. P. Harbach,  A. W. Hauser,  J. E. Herr,  E. G. Hohenstein,  
 Z. C. Holden,  Kerwin Hui,  T.-C. Jagau,  Hyunjun Ji,  B. Kaduk,  
 K. Khistyaev,  Jaehoon Kim,  P. Klunzinger,  K. Koh,  D. Kosenkov,  
 T. Kowalczyk,  C. M. Krauter,  A. Kunitsa,  Ka Un Lao,  A. Laurent,  
 K. V. Lawler,  Joonho Lee,  D. Lefrancois,  S. Lehtola,  D. S. Levine,  
 Yi-Pei Li,  You-Sheng Lin,  Fenglai Liu,  E. Livshits,  A. Luenser,  
 P. Manohar,  E. Mansoor,  S. F. Manzer,  Shan-Ping Mao,  Yuezhi Mao,  
 N. Mardirossian,  A. V. Marenich,  L. A. Martinez-Martinez,  S. A. Maurer,  
 N. J. Mayhall,  S. C. McKenzie,  J.-M. Mewes,  A. F. Morrison,  K. Nanda,  
 T. S. Nguyen-Beck,  R. Olivares-Amaya,  J. A. Parkhill,  T. M. Perrine,  
 F. Plasser,  S. Prager,  A. Prociuk,  D. R. Rehn,  F. Rob,  M. Schneider,  
 N. Sergueev,  S. M. Sharada,  S. Sharma,  D. W. Small,  T. Stauch,  
 T. Stein,  Yu-Chuan Su,  A. J. W. Thom,  T. Tsuchimochi,  L. Vogt,  
 O. Vydrov,  M. A. Watson,  J. Wenzel,  M. de Wergifosse,  T. A. Wesolowski,  
 A. White,  J. Witte,  A. Yamada,  Jun Yang,  K. Yao,  S. Yeganeh,  
 S. R. Yost,  Zhi-Qiang You,  A. Zech,  Igor Ying Zhang,  Xing Zhang,  
 Yan Zhao,  Ying Zhu,  B. R. Brooks,  G. K. L. Chan,  C. J. Cramer,  
 M. S. Gordon,  W. J. Hehre,  A. Klamt,  M. W. Schmidt,  C. D. Sherrill,  
 D. G. Truhlar,  A. Aspuru-Guzik,  R. Baer,  A. T. Bell,  N. A. Besley,  
 Jeng-Da Chai,  A. Dreuw,  B. D. Dunietz,  T. R. Furlani,  Chao-Ping Hsu,  
 Yousung Jung,  Jing Kong,  D. S. Lambrecht,  WanZhen Liang,  C. Ochsenfeld,  
 V. A. Rassolov,  L. V. Slipchenko,  J. E. Subotnik,  T. Van Voorhis,  
 J. M. Herbert,  A. I. Krylov,  P. M. W. Gill,  M. Head-Gordon

 Contributors to earlier versions of Q-Chem not listed above: 
 R. D. Adamson,  B. Austin,  J. Baker,  G. J. O. Beran,  K. Brandhorst,  
 S. T. Brown,  E. F. C. Byrd,  A. K. Chakraborty,  C.-L. Cheng,  
 Siu Hung Chien,  D. M. Chipman,  D. L. Crittenden,  H. Dachsel,  
 R. A. DiStasio Jr.,  R. J. Doerksen,  A. D. Dutoi,  L. Fusti-Molnar,  
 W. A. Goddard III,  A. Golubeva-Zadorozhnaya,  S. R. Gwaltney,  G. Hawkins,  
 A. Heyden,  S. Hirata,  G. Kedziora,  F. J. Keil,  C. Kelley,  Jihan Kim,  
 R. A. King,  R. Z. Khaliullin,  P. P. Korambath,  W. Kurlancheek,  
 A. M. Lee,  M. S. Lee,  S. V. Levchenko,  Ching Yeh Lin,  D. Liotard,  
 R. C. Lochan,  I. Lotan,  P. E. Maslen,  N. Nair,  D. P. O'Neill,  
 D. Neuhauser,  E. Neuscamman,  C. M. Oana,  R. Olson,  B. Peters,  
 R. Peverati,  P. A. Pieniazek,  Y. M. Rhee,  J. Ritchie,  M. A. Rohrdanz,  
 E. Rosta,  N. J. Russ,  H. F. Schaefer III,  N. E. Schultz,  N. Shenvi,  
 A. C. Simmonett,  A. Sodt,  D. Stuck,  K. S. Thanthiriwatte,  V. Vanovschi,  
 Tao Wang,  A. Warshel,  C. F. Williams,  Q. Wu,  X. Xu,  W. Zhang

 Please cite Q-Chem as follows:
 Y. Shao et al., Mol. Phys. 113, 184-215 (2015)
 DOI: 10.1080/00268976.2014.952696

 Q-Chem 5.0.1 for Intel X86 EM64T Linux

 Parts of Q-Chem use Armadillo 5.200.1 (Boston Tea Smuggler).
 http://arma.sourceforge.net/

 Q-Chem begins on Tue Apr 17 00:55:10 2018  

Host: vega03.cac.cornell.edu
0

     Scratch files written to /scratch/jj585/vdw/01n00_distance_5.400_11.save//
 Parallel job on  1  processors

Checking the input file for inconsistencies... 	...done.

--------------------------------------------------------------
User input:
--------------------------------------------------------------
$molecule
0  1
--
0  1
C        -0.54444000        -0.68370000        -0.06689000
C        -0.55709000        +0.71878000        +0.05493000
C        -1.74320000        -1.41616000        -0.12552000
C        -2.93952000        -0.70056000        -0.05285000
C        -2.95313000        +0.68255000        +0.06934000
C        -1.77161000        +1.42404000        +0.12810000
H        -3.90354000        +1.20325000        +0.11710000
H        -3.87892000        -1.24211000        -0.08988000
C        -1.83960000        +2.92746000        +0.24839000
H        -1.24214000        +3.42352000        -0.52065000
H        -1.45503000        +3.26427000        +1.21284000
H        -2.87211000        +3.26623000        +0.14638000
H        -1.73878000        -2.44393000        -0.21875000
H        +0.35825000        -1.18166000        -0.11386000
H        +0.33551000        +1.23549000        +0.09097000
--
0  1
C        -0.72900000        -1.06979000        +5.31613000
C        -0.74165000        +0.33269000        +5.43795000
C        -1.92776000        -1.80225000        +5.25750000
C        -3.12408000        -1.08665000        +5.33017000
C        -3.13769000        +0.29646000        +5.45236000
C        -1.95617000        +1.03795000        +5.51112000
H        -4.08810000        +0.81716000        +5.50012000
H        -4.06348000        -1.62820000        +5.29314000
C        -2.02416000        +2.54137000        +5.63141000
H        -1.42670000        +3.03743000        +4.86237000
H        -1.63959000        +2.87818000        +6.59586000
H        -3.05667000        +2.88014000        +5.52940000
H        -1.92334000        -2.83002000        +5.16427000
H        +0.17369000        -1.56775000        +5.26916000
H        +0.15095000        +0.84940000        +5.47399000
$end

$rem
JOBTYPE                   SP
METHOD                    B3LYP
DFT_D                     d3_op
BASIS                     6-311++G(d,p)
SYMMETRY                  False
THRESH                    12
SCF_CONVERGENCE           8
MAX_SUB_FILE_NUM          128
MEM_STATIC                400
MEM_TOTAL                 4000
$end
--------------------------------------------------------------
 Adding empirical dispersion correction 
 ----------------------------------------------------------------
 Doing -D3(op) with
 s6 =   1.00000
 s8 =   0.78311
 a1 =   0.30000
 a2 =   4.25000
 n  =  10.00000
 -D3 energy without 3body term =     -0.0242195123 hartrees
 ----------------------------------------------------------------
             Standard Nuclear Orientation (Angstroms)
    I     Atom           X                Y                Z
 ----------------------------------------------------------------
    1      C       2.7835533533    -1.2066136434     1.1711338699
    2      C       2.7517792797     0.2005744970     1.1987424040
    3      C       2.7455700051    -1.9078814357    -0.0469553775
    4      C       2.6699130227    -1.1563077659    -1.2208203064
    5      C       2.6364846017     0.2316064798    -1.1946384883
    6      C       2.6742097393     0.9423677564     0.0064630435
    7      H       2.5832475919     0.7803691005    -2.1288301617
    8      H       2.6333451057    -1.6729279510    -2.1741756206
    9      C       2.6481766715     2.4516890784    -0.0187450312
   10      H       3.4714644364     2.8814281717     0.5574303454
   11      H       1.7240318270     2.8380289576     0.4150713674
   12      H       2.7291918384     2.8117580603    -1.0458939611
   13      H       2.7726011144    -2.9392177070    -0.0722013042
   14      H       2.8355016956    -1.7313207810     2.0582659729
   15      H       2.7858107328     0.6936455988     2.1046925210
   16      C      -2.6161792220    -1.2463885734     1.2077162762
   17      C      -2.6479532956     0.1607995670     1.2353248103
   18      C      -2.6541625702    -1.9476563657    -0.0103729713
   19      C      -2.7298195526    -1.1960826959    -1.1842379001
   20      C      -2.7632479736     0.1918315498    -1.1580560820
   21      C      -2.7255228360     0.9025928264     0.0430454498
   22      H      -2.8164849833     0.7405941705    -2.0922477554
   23      H      -2.7663874696    -1.7127028810    -2.1375932143
   24      C      -2.7515559038     2.4119141484     0.0178373751
   25      H      -1.9282681389     2.8416532417     0.5940127517
   26      H      -3.6757007482     2.7982540276     0.4516537737
   27      H      -2.6705407369     2.7719831303    -1.0093115548
   28      H      -2.6271314608    -2.9789926370    -0.0356188979
   29      H      -2.5642308797    -1.7710957110     2.0948483792
   30      H      -2.6139218425     0.6538706688     2.1412749273
 ----------------------------------------------------------------
 Molecular Point Group                 C1    NOp =  1
 Largest Abelian Subgroup              C1    NOp =  1
 Nuclear Repulsion Energy =   760.9485441196 hartrees
 There are       50 alpha and       50 beta electrons
 Requested basis set is 6-311++G(d,p)
 There are 164 shells and 420 basis functions

 Total QAlloc Memory Limit   4000 MB
 Mega-Array Size       392 MB
 MEM_STATIC part       400 MB
 A cutoff of  1.0D-12 yielded  10614 shell pairs
 There are     69006 function pairs (     73058 Cartesian)
 
 -------------------------------------------------------
 OpenMP Integral Computing Module                       
 Release: version 1.0, May 2013, Q-Chem Inc. Pittsburgh 
 -------------------------------------------------------
 Integral Job Info:
 Integral job number is                      11
 Integral operator is                         1
 short-range coefficients                     0
 long-range coefficients              100000000
 Omega coefficients                           0
 if combine SR and LR in K                    0
 Integral screening is                        0
 Integral computing path is                   2
 max size of driver memory is            800000
 size of driver memory is                593474
 size of scratch memory is              2361544
 max col of scratch BK array               1296
 max len of scratch array in speh3          155
 max len of scratch index in speh4           18
 max int batch size is                      520
 min int batch size is                       52
 fixed nKL is                                52
 max L of basis functions is                  2
 order of int derivative is                   0
 number of shells is                        164
 number of basis is                         434
 number of cartesian basis is               434
 number of contracted shell pairs         10614
 number of primitive shell pairs          23604
 maxK2 (contraction) of shell pair           36
 max number of K2 of shell pair               1
 max number of CS2 of shell pair           2028
 max number of PS2 of shell pair           3324
 mem total for path MDJ                  117498
 -------------------------------------------------------
 Smallest overlap matrix eigenvalue = 5.68E-07
 Linear dependence detected in AO basis
 Number of orthogonalized atomic orbitals = 419
 Maximum deviation from orthogonality = 7.128E-11

 Scale SEOQF with 1.000000e-01/1.000000e-01/1.000000e-01

 Standard Electronic Orientation quadrupole field applied
 Nucleus-field energy     =     0.0000000318 hartrees
 Guess from superposition of atomic densities
 Warning:  Energy on first SCF cycle will be non-variational
 A restricted hybrid HF-DFT SCF calculation will be
 performed using Pulay DIIS extrapolation
 Exchange:     0.2000 Hartree-Fock + 0.0800 Slater + 0.7200 B88
 Correlation:  0.1900 VWN1RPA + 0.8100 LYP
 Using SG-1 standard quadrature grid
 Dispersion:   Grimme D3
 SCF converges when DIIS error is below 1.0E-08
 using 4 threads for integral computing
 -------------------------------------------------------
 OpenMP Integral computing Module                
 Release: version 1.0, May 2013, Q-Chem Inc. Pittsburgh 
 -------------------------------------------------------
 -------------------------------------------------------
 OpenMP BLAS3 based DFT computing Module                
 Release: version 1.0, May 2013, Q-Chem Inc. Pittsburgh 
 -------------------------------------------------------
 ---------------------------------------
  Cycle       Energy         DIIS Error
 ---------------------------------------
    1    -546.3013452244      3.10E-02
    2    -542.9916430249      3.47E-03
    3    -542.9421793084      3.79E-03
    4    -543.2859460038      2.90E-04
    5    -543.2872235885      1.47E-04
    6    -543.2875913545      6.38E-05
    7    -543.2876734087      2.43E-05
    8    -543.2876878450      2.02E-06
    9    -543.2876879149      1.23E-06
   10    -543.2876879476      3.21E-07
   11    -543.2876879498      1.21E-07
   12    -543.2876879501      2.35E-08
   13    -543.2876879501      5.77E-09 Convergence criterion met
 ---------------------------------------
 SCF time:  CPU 335.94 s  wall 84.26 s
 SCF   energy in the final basis set = -543.28768795
 Total energy in the final basis set = -543.28768795
 
 --------------------------------------------------------------
 
                    Orbital Energies (a.u.)
 --------------------------------------------------------------
 
 Alpha MOs
 -- Occupied --
-10.182 -10.182 -10.171 -10.171 -10.169 -10.169 -10.168 -10.168
-10.168 -10.168 -10.167 -10.166 -10.166 -10.166  -0.855  -0.855
 -0.773  -0.773  -0.745  -0.744  -0.689  -0.689  -0.608  -0.608
 -0.588  -0.588  -0.518  -0.518  -0.463  -0.462  -0.460  -0.460
 -0.423  -0.421  -0.420  -0.420  -0.416  -0.415  -0.388  -0.388
 -0.355  -0.354  -0.348  -0.348  -0.340  -0.340  -0.252  -0.251
 -0.245  -0.244
 -- Virtual --
 -0.017  -0.013  -0.012  -0.010  -0.008   0.001   0.005   0.006
  0.017   0.021   0.024   0.027   0.038   0.039   0.043   0.048
  0.052   0.059   0.063   0.067   0.070   0.077   0.084   0.086
  0.088   0.103   0.104   0.107   0.109   0.111   0.117   0.118
  0.120   0.122   0.125   0.127   0.129   0.130   0.131   0.133
  0.134   0.134   0.138   0.143   0.148   0.149   0.152   0.153
  0.158   0.166   0.167   0.173   0.175   0.178   0.180   0.182
  0.182   0.188   0.189   0.193   0.195   0.211   0.212   0.213
  0.217   0.219   0.228   0.229   0.236   0.237   0.245   0.250
  0.254   0.260   0.260   0.262   0.271   0.271   0.273   0.282
  0.287   0.288   0.292   0.296   0.301   0.302   0.304   0.309
  0.312   0.319   0.324   0.327   0.346   0.351   0.353   0.360
  0.366   0.374   0.376   0.378   0.379   0.387   0.389   0.468
  0.476   0.479   0.498   0.517   0.528   0.534   0.538   0.540
  0.545   0.550   0.558   0.567   0.570   0.583   0.585   0.590
  0.594   0.605   0.609   0.615   0.619   0.624   0.629   0.636
  0.648   0.656   0.660   0.664   0.666   0.668   0.672   0.679
  0.683   0.689   0.696   0.705   0.710   0.730   0.731   0.734
  0.738   0.741   0.757   0.769   0.779   0.785   0.795   0.802
  0.807   0.829   0.839   0.854   0.855   0.868   0.873   0.889
  0.895   0.897   0.906   0.909   0.921   0.922   0.928   0.931
  0.935   0.945   0.947   0.962   0.973   1.002   1.014   1.018
  1.020   1.036   1.040   1.046   1.056   1.080   1.087   1.094
  1.103   1.127   1.129   1.147   1.151   1.323   1.330   1.359
  1.366   1.372   1.374   1.415   1.422   1.463   1.465   1.476
  1.485   1.530   1.537   1.540   1.546   1.551   1.555   1.562
  1.564   1.577   1.580   1.590   1.592   1.606   1.615   1.617
  1.628   1.642   1.656   1.659   1.668   1.677   1.683   1.714
  1.721   1.759   1.763   1.767   1.770   1.802   1.805   1.820
  1.825   1.841   1.852   1.857   1.866   1.898   1.901   1.918
  1.922   1.937   1.940   1.941   1.944   1.962   1.962   1.964
  1.965   2.025   2.028   2.032   2.036   2.040   2.044   2.102
  2.107   2.111   2.120   2.192   2.201   2.239   2.242   2.250
  2.255   2.322   2.326   2.401   2.405   2.413   2.420   2.445
  2.452   2.457   2.474   2.487   2.493   2.504   2.532   2.552
  2.556   2.563   2.566   2.587   2.615   2.633   2.641   2.673
  2.677   2.679   2.685   2.703   2.706   2.726   2.730   2.737
  2.743   2.747   2.755   2.761   2.768   2.770   2.784   2.791
  2.820   2.832   2.845   2.856   2.871   2.899   2.909   2.913
  2.923   2.940   2.945   2.953   2.958   2.996   3.004   3.005
  3.016   3.092   3.097   3.153   3.161   3.224   3.229   3.351
  3.361   3.385   3.397   3.511   3.520   3.544   3.554   3.654
  3.656   3.707   3.727   3.792   3.794   3.858   3.864   4.035
  4.038   4.122   4.125   4.185   4.191   4.203   4.209   4.344
  4.346   4.840   4.842  23.639  23.674  23.939  23.944  24.000
 24.006  24.007  24.016  24.098  24.099  24.111  24.111  24.207
 24.210
 --------------------------------------------------------------
 
          Ground-State Mulliken Net Atomic Charges

     Atom                 Charge (a.u.)
  ----------------------------------------
      1 C                    -0.042910
      2 C                    -0.427113
      3 C                    -0.329595
      4 C                    -0.086136
      5 C                    -0.668189
      6 C                     0.969179
      7 H                     0.140282
      8 H                     0.167873
      9 C                    -0.637252
     10 H                     0.145950
     11 H                     0.153582
     12 H                     0.145586
     13 H                     0.148165
     14 H                     0.157916
     15 H                     0.161895
     16 C                    -0.106266
     17 C                    -0.364830
     18 C                    -0.300503
     19 C                    -0.159740
     20 C                    -0.559286
     21 C                     0.898940
     22 H                     0.141309
     23 H                     0.169283
     24 C                    -0.638955
     25 H                     0.148176
     26 H                     0.158012
     27 H                     0.146295
     28 H                     0.148467
     29 H                     0.158510
     30 H                     0.161355
  ----------------------------------------
  Sum of atomic charges =    -0.000000

 -----------------------------------------------------------------
                    Cartesian Multipole Moments
 -----------------------------------------------------------------
    Charge (ESU x 10^10)
                -0.0000
    Dipole Moment (Debye)
         X      -0.0189      Y       0.6709      Z       0.1320
       Tot       0.6840
    Quadrupole Moments (Debye-Ang)
        XX     -93.8548     XY      -0.3532     YY     -77.1142
        XZ       0.6358     YZ       0.0743     ZZ     -78.4162
    Octopole Moments (Debye-Ang^2)
       XXX      -1.1936    XXY      13.3130    XYY       0.8126
       YYY     -10.8999    XXZ       2.5017    XYZ      -0.5307
       YYZ       0.6028    XZZ       0.2997    YZZ      -1.6543
       ZZZ       0.1723
    Hexadecapole Moments (Debye-Ang^3)
      XXXX   -4208.5955   XXXY      -9.8907   XXYY    -809.6110
      XYYY      -0.8870   YYYY   -1243.3946   XXXZ      14.1184
      XXYZ       3.9874   XYYZ       1.2128   YYYZ       0.4468
      XXZZ    -711.4292   XYZZ       0.4428   YYZZ    -298.6189
      XZZZ       3.7685   YZZZ      -3.5858   ZZZZ    -578.8307
 -----------------------------------------------------------------
Archival summary:
1\1\vega03.cac.cornell.edu\SP\ProcedureUnspecified\BasisUnspecified\1416\jj585\TueApr1700:56:352018TueApr1700:56:352018\0\\#,ProcedureUnspecified,BasisUnspecified,\\0,1\C\C,1,1.39616\H,2,1.08475,1,118.991\C,2,1.38856,1,121.629,3,179.783,0\H,4,1.08495,2,119.453,1,179.671,0\C,4,1.3959,2,121.575,1,-0.129654,0\H,6,1.032,4,121.26,2,-179.84,0\C,6,1.40604,4,117.481,2,0.160349,0\H,8,1.032,6,119.504,4,179.742,0\C,1,1.40634,2,117.536,3,-179.6,0\H,10,1.032,1,119.607,2,179.72,0\C,1,1.50976,2,119.611,3,-0.341033,0\H,12,1.09144,1,110.135,2,-7.24194,0\H,12,1.09156,1,111.21,2,113.289,0\H,12,1.09291,1,111.796,2,-127.427,0\H,14,3.65668,12,149.93,1,-50.7247,0\C,16,1.09291,14,136.569,12,-9.84243,0\H,17,1.09144,16,108.09,14,-58.0979,0\H,17,1.09156,16,106.802,14,-174.867,0\C,17,1.50976,16,111.796,14,63.2776,0\C,20,1.39616,17,119.611,16,-127.427,0\H,21,1.08475,20,118.991,17,-0.341033,0\C,21,1.38856,20,121.629,17,179.442,0\H,23,1.08495,21,119.453,20,179.671,0\C,23,1.3959,21,121.575,20,-0.129654,0\H,25,1.032,23,121.26,21,-179.84,0\C,25,1.40604,23,117.481,21,0.160349,0\H,27,1.032,25,119.504,23,179.742,0\C,20,1.40634,17,122.848,16,51.7903,0\H,29,1.032,20,119.607,17,0.487832,0\\\@

 Total job time:  84.95s(wall), 337.98s(cpu) 
 Tue Apr 17 00:56:35 2018

        *************************************************************
        *                                                           *
        *  Thank you very much for using Q-Chem.  Have a nice day.  *
        *                                                           *
        *************************************************************


0 sent ACK to 0 
now end server 0 ... 
