mFile = /opt/software/qchem/qchem-5.0.1//bin/mpi/machines
Process 0 of 1 is on vega02.cac.cornell.edu - thread support 0
initial socket setup ...start
initial socket setup ...done 
now start server 0 ... 
vega02.cac.cornell.edu 10.84.3
Q-Chem Developer Version! Running on 10.84.3.*
                  Welcome to Q-Chem
     A Quantum Leap Into The Future Of Chemistry


 Q-Chem 5.0, Q-Chem, Inc., Pleasanton, CA (2017)

 Yihan Shao,  Zhengting Gan,  E. Epifanovsky,  A. T. B. Gilbert,  M. Wormit,  
 J. Kussmann,  A. W. Lange,  A. Behn,  Jia Deng,  Xintian Feng,  D. Ghosh,  
 M. Goldey,  P. R. Horn,  L. D. Jacobson,  I. Kaliman,  T. Kus,  A. Landau,  
 Jie Liu,  E. I. Proynov,  R. M. Richard,  R. P. Steele,  E. J. Sundstrom,  
 H. L. Woodcock III,  P. M. Zimmerman,  D. Zuev,  B. Albrecht,  E. Alguire,  
 S. A. Baeppler,  Z. Benda,  Y. A. Bernard,  E. J. Berquist,  K. B. Bravaya,  
 D. Casanova,  Chun-Min Chang,  Yunqing Chen,  A. Chien,  K. D. Closser,  
 M. P. Coons,  S. Dasgupta,  M. Diedenhofen,  Hainam Do,  R. G. Edgar,  
 Po-Tung Fang,  S. Fatehi,  Qingguo Feng,  Qinghui Ge,  A. Ghysels,  
 J. Gomes,  J. Gonthier,  A. Gunina,  M. W. D. Hanson-Heine,  
 P. H. P. Harbach,  A. W. Hauser,  J. E. Herr,  E. G. Hohenstein,  
 Z. C. Holden,  Kerwin Hui,  T.-C. Jagau,  Hyunjun Ji,  B. Kaduk,  
 K. Khistyaev,  Jaehoon Kim,  P. Klunzinger,  K. Koh,  D. Kosenkov,  
 T. Kowalczyk,  C. M. Krauter,  A. Kunitsa,  Ka Un Lao,  A. Laurent,  
 K. V. Lawler,  Joonho Lee,  D. Lefrancois,  S. Lehtola,  D. S. Levine,  
 Yi-Pei Li,  You-Sheng Lin,  Fenglai Liu,  E. Livshits,  A. Luenser,  
 P. Manohar,  E. Mansoor,  S. F. Manzer,  Shan-Ping Mao,  Yuezhi Mao,  
 N. Mardirossian,  A. V. Marenich,  L. A. Martinez-Martinez,  S. A. Maurer,  
 N. J. Mayhall,  S. C. McKenzie,  J.-M. Mewes,  A. F. Morrison,  K. Nanda,  
 T. S. Nguyen-Beck,  R. Olivares-Amaya,  J. A. Parkhill,  T. M. Perrine,  
 F. Plasser,  S. Prager,  A. Prociuk,  D. R. Rehn,  F. Rob,  M. Schneider,  
 N. Sergueev,  S. M. Sharada,  S. Sharma,  D. W. Small,  T. Stauch,  
 T. Stein,  Yu-Chuan Su,  A. J. W. Thom,  T. Tsuchimochi,  L. Vogt,  
 O. Vydrov,  M. A. Watson,  J. Wenzel,  M. de Wergifosse,  T. A. Wesolowski,  
 A. White,  J. Witte,  A. Yamada,  Jun Yang,  K. Yao,  S. Yeganeh,  
 S. R. Yost,  Zhi-Qiang You,  A. Zech,  Igor Ying Zhang,  Xing Zhang,  
 Yan Zhao,  Ying Zhu,  B. R. Brooks,  G. K. L. Chan,  C. J. Cramer,  
 M. S. Gordon,  W. J. Hehre,  A. Klamt,  M. W. Schmidt,  C. D. Sherrill,  
 D. G. Truhlar,  A. Aspuru-Guzik,  R. Baer,  A. T. Bell,  N. A. Besley,  
 Jeng-Da Chai,  A. Dreuw,  B. D. Dunietz,  T. R. Furlani,  Chao-Ping Hsu,  
 Yousung Jung,  Jing Kong,  D. S. Lambrecht,  WanZhen Liang,  C. Ochsenfeld,  
 V. A. Rassolov,  L. V. Slipchenko,  J. E. Subotnik,  T. Van Voorhis,  
 J. M. Herbert,  A. I. Krylov,  P. M. W. Gill,  M. Head-Gordon

 Contributors to earlier versions of Q-Chem not listed above: 
 R. D. Adamson,  B. Austin,  J. Baker,  G. J. O. Beran,  K. Brandhorst,  
 S. T. Brown,  E. F. C. Byrd,  A. K. Chakraborty,  C.-L. Cheng,  
 Siu Hung Chien,  D. M. Chipman,  D. L. Crittenden,  H. Dachsel,  
 R. A. DiStasio Jr.,  R. J. Doerksen,  A. D. Dutoi,  L. Fusti-Molnar,  
 W. A. Goddard III,  A. Golubeva-Zadorozhnaya,  S. R. Gwaltney,  G. Hawkins,  
 A. Heyden,  S. Hirata,  G. Kedziora,  F. J. Keil,  C. Kelley,  Jihan Kim,  
 R. A. King,  R. Z. Khaliullin,  P. P. Korambath,  W. Kurlancheek,  
 A. M. Lee,  M. S. Lee,  S. V. Levchenko,  Ching Yeh Lin,  D. Liotard,  
 R. C. Lochan,  I. Lotan,  P. E. Maslen,  N. Nair,  D. P. O'Neill,  
 D. Neuhauser,  E. Neuscamman,  C. M. Oana,  R. Olson,  B. Peters,  
 R. Peverati,  P. A. Pieniazek,  Y. M. Rhee,  J. Ritchie,  M. A. Rohrdanz,  
 E. Rosta,  N. J. Russ,  H. F. Schaefer III,  N. E. Schultz,  N. Shenvi,  
 A. C. Simmonett,  A. Sodt,  D. Stuck,  K. S. Thanthiriwatte,  V. Vanovschi,  
 Tao Wang,  A. Warshel,  C. F. Williams,  Q. Wu,  X. Xu,  W. Zhang

 Please cite Q-Chem as follows:
 Y. Shao et al., Mol. Phys. 113, 184-215 (2015)
 DOI: 10.1080/00268976.2014.952696

 Q-Chem 5.0.1 for Intel X86 EM64T Linux

 Parts of Q-Chem use Armadillo 5.200.1 (Boston Tea Smuggler).
 http://arma.sourceforge.net/

 Q-Chem begins on Wed Apr 18 00:40:44 2018  

Host: vega02.cac.cornell.edu
0

     Scratch files written to /scratch/jj585/vdw/01n10_distance_4.200_10.save//
 Parallel job on  1  processors

Checking the input file for inconsistencies... 	...done.

--------------------------------------------------------------
User input:
--------------------------------------------------------------
$molecule
0  1
C        -0.58454000        -0.67556000        -0.07544000
C        -0.59851000        +0.70920000        +0.05808000
C        -1.77633000        -1.40990000        -0.13252000
C        -2.97828000        -0.70388000        -0.05611000
C        -2.99244000        +0.68477000        +0.07719000
C        -1.80513000        +1.41687000        +0.13452000
H        -3.94378000        +1.20441000        +0.13594000
H        -3.91864000        -1.24474000        -0.10022000
C        -1.81546000        +2.92210000        +0.24949000
C        -1.75732000        -2.91589000        -0.24640000
H        -1.03160000        -3.25185000        -0.99235000
H        -2.73712000        -3.30600000        -0.53105000
H        -1.48213000        -3.37940000        +0.70725000
H        -1.54006000        +3.39064000        -0.70147000
H        -1.10219000        +3.26991000        +1.00208000
H        -2.80465000        +3.29345000        +0.52612000
H        +0.36601000        -1.19708000        -0.13515000
H        +0.34176000        +1.25035000        +0.10232000
@C        -0.54655000        -1.07737000        +4.10512000
@C        -0.56052000        +0.30739000        +4.23864000
@C        -1.73834000        -1.81171000        +4.04804000
@C        -2.94029000        -1.10569000        +4.12445000
@C        -2.95445000        +0.28296000        +4.25775000
@C        -1.76714000        +1.01506000        +4.31508000
@H        -3.90579000        +0.80260000        +4.31650000
@H        -3.88065000        -1.64655000        +4.08034000
@C        -1.77747000        +2.52029000        +4.43005000
@C        -1.71933000        -3.31770000        +3.93416000
@H        -0.99361000        -3.65366000        +3.18821000
@H        -2.69913000        -3.70781000        +3.64951000
@H        -1.44414000        -3.78121000        +4.88781000
@H        -1.50207000        +2.98883000        +3.47909000
@H        -1.06420000        +2.86810000        +5.18264000
@H        -2.76666000        +2.89164000        +4.70668000
@H        +0.40400000        -1.59889000        +4.04541000
@H        +0.37975000        +0.84854000        +4.28288000
$end

$rem
JOBTYPE                   SP
METHOD                    B3LYP
DFT_D                     d3_op
BASIS                     6-311++G(d,p)
SYMMETRY                  False
THRESH                    12
SCF_CONVERGENCE           8
MAX_SUB_FILE_NUM          128
MEM_STATIC                400
MEM_TOTAL                 4000
$end
--------------------------------------------------------------
 Adding empirical dispersion correction 
 ----------------------------------------------------------------
 Doing -D3(op) with
 s6 =   1.00000
 s8 =   0.78311
 a1 =   0.30000
 a2 =   4.25000
 n  =  10.00000
 -D3 energy without 3body term =     -0.0145405323 hartrees
 ----------------------------------------------------------------
             Standard Nuclear Orientation (Angstroms)
    I     Atom           X                Y                Z
 ----------------------------------------------------------------
    1      C      -0.5845400000    -0.6755600000    -0.0754400000
    2      C      -0.5985100000     0.7092000000     0.0580800000
    3      C      -1.7763300000    -1.4099000000    -0.1325200000
    4      C      -2.9782800000    -0.7038800000    -0.0561100000
    5      C      -2.9924400000     0.6847700000     0.0771900000
    6      C      -1.8051300000     1.4168700000     0.1345200000
    7      H      -3.9437800000     1.2044100000     0.1359400000
    8      H      -3.9186400000    -1.2447400000    -0.1002200000
    9      C      -1.8154600000     2.9221000000     0.2494900000
   10      C      -1.7573200000    -2.9158900000    -0.2464000000
   11      H      -1.0316000000    -3.2518500000    -0.9923500000
   12      H      -2.7371200000    -3.3060000000    -0.5310500000
   13      H      -1.4821300000    -3.3794000000     0.7072500000
   14      H      -1.5400600000     3.3906400000    -0.7014700000
   15      H      -1.1021900000     3.2699100000     1.0020800000
   16      H      -2.8046500000     3.2934500000     0.5261200000
   17      H       0.3660100000    -1.1970800000    -0.1351500000
   18      H       0.3417600000     1.2503500000     0.1023200000
   19      GH     -0.5465500000    -1.0773700000     4.1051200000
   20      GH     -0.5605200000     0.3073900000     4.2386400000
   21      GH     -1.7383400000    -1.8117100000     4.0480400000
   22      GH     -2.9402900000    -1.1056900000     4.1244500000
   23      GH     -2.9544500000     0.2829600000     4.2577500000
   24      GH     -1.7671400000     1.0150600000     4.3150800000
   25      GH     -3.9057900000     0.8026000000     4.3165000000
   26      GH     -3.8806500000    -1.6465500000     4.0803400000
   27      GH     -1.7774700000     2.5202900000     4.4300500000
   28      GH     -1.7193300000    -3.3177000000     3.9341600000
   29      GH     -0.9936100000    -3.6536600000     3.1882100000
   30      GH     -2.6991300000    -3.7078100000     3.6495100000
   31      GH     -1.4441400000    -3.7812100000     4.8878100000
   32      GH     -1.5020700000     2.9888300000     3.4790900000
   33      GH     -1.0642000000     2.8681000000     5.1826400000
   34      GH     -2.7666600000     2.8916400000     4.7066800000
   35      GH      0.4040000000    -1.5988900000     4.0454100000
   36      GH      0.3797500000     0.8485400000     4.2828800000
 ----------------------------------------------------------------
 Nuclear Repulsion Energy =   339.7884744113 hartrees
 There are       29 alpha and       29 beta electrons
 Requested basis set is 6-311++G(d,p)
 There are 196 shells and 492 basis functions

 Total QAlloc Memory Limit   4000 MB
 Mega-Array Size       392 MB
 MEM_STATIC part       400 MB
 A cutoff of  1.0D-12 yielded  15638 shell pairs
 There are    100034 function pairs (    106398 Cartesian)
 
 -------------------------------------------------------
 OpenMP Integral Computing Module                       
 Release: version 1.0, May 2013, Q-Chem Inc. Pittsburgh 
 -------------------------------------------------------
 Integral Job Info:
 Integral job number is                      11
 Integral operator is                         1
 short-range coefficients                     0
 long-range coefficients              100000000
 Omega coefficients                           0
 if combine SR and LR in K                    0
 Integral screening is                        0
 Integral computing path is                   2
 max size of driver memory is            800000
 size of driver memory is                593474
 size of scratch memory is              2361544
 max col of scratch BK array               1296
 max len of scratch array in speh3          155
 max len of scratch index in speh4           18
 max int batch size is                      520
 min int batch size is                       52
 fixed nKL is                                52
 max L of basis functions is                  2
 order of int derivative is                   0
 number of shells is                        196
 number of basis is                         508
 number of cartesian basis is               508
 number of contracted shell pairs         15638
 number of primitive shell pairs          33367
 maxK2 (contraction) of shell pair           36
 max number of K2 of shell pair               1
 max number of CS2 of shell pair           2976
 max number of PS2 of shell pair           4920
 mem total for path MDJ                  165976
 -------------------------------------------------------
 Smallest overlap matrix eigenvalue = 2.04E-07
 Linear dependence detected in AO basis
 Number of orthogonalized atomic orbitals = 489
 Maximum deviation from orthogonality = 1.392E-10

 Scale SEOQF with 1.000000e-01/1.000000e-01/1.000000e-02

 Standard Electronic Orientation quadrupole field applied
 Nucleus-field energy     =     0.0000000235 hartrees
 Guess from superposition of atomic densities
 Warning:  Energy on first SCF cycle will be non-variational

 Q-Chem warning in module /opt/software/qchem/qchem-5.0.1/libgen/Atomic_PolEc.C, line 58:

 No atomic polarizability available.


 Q-Chem warning in module /opt/software/qchem/qchem-5.0.1/libgen/Atomic_PolEc.C, line 73:

 No atomic polarizability available.


 Q-Chem warning in module /opt/software/qchem/qchem-5.0.1/libgen/Atomic_PolEc.C, line 58:

 No atomic polarizability available.


 Q-Chem warning in module /opt/software/qchem/qchem-5.0.1/libgen/Atomic_PolEc.C, line 73:

 No atomic polarizability available.


 Q-Chem warning in module /opt/software/qchem/qchem-5.0.1/libgen/Atomic_PolEc.C, line 58:

 No atomic polarizability available.


 Q-Chem warning in module /opt/software/qchem/qchem-5.0.1/libgen/Atomic_PolEc.C, line 73:

 No atomic polarizability available.


 Q-Chem warning in module /opt/software/qchem/qchem-5.0.1/libgen/Atomic_PolEc.C, line 58:

 No atomic polarizability available.


 Q-Chem warning in module /opt/software/qchem/qchem-5.0.1/libgen/Atomic_PolEc.C, line 73:

 No atomic polarizability available.


 Q-Chem warning in module /opt/software/qchem/qchem-5.0.1/libgen/Atomic_PolEc.C, line 58:

 No atomic polarizability available.


 Q-Chem warning in module /opt/software/qchem/qchem-5.0.1/libgen/Atomic_PolEc.C, line 73:

 No atomic polarizability available.


 Q-Chem warning in module /opt/software/qchem/qchem-5.0.1/libgen/Atomic_PolEc.C, line 58:

 No atomic polarizability available.


 Q-Chem warning in module /opt/software/qchem/qchem-5.0.1/libgen/Atomic_PolEc.C, line 73:

 No atomic polarizability available.


 Q-Chem warning in module /opt/software/qchem/qchem-5.0.1/libgen/Atomic_PolEc.C, line 58:

 No atomic polarizability available.


 Q-Chem warning in module /opt/software/qchem/qchem-5.0.1/libgen/Atomic_PolEc.C, line 73:

 No atomic polarizability available.


 Q-Chem warning in module /opt/software/qchem/qchem-5.0.1/libgen/Atomic_PolEc.C, line 58:

 No atomic polarizability available.


 Q-Chem warning in module /opt/software/qchem/qchem-5.0.1/libgen/Atomic_PolEc.C, line 73:

 No atomic polarizability available.


 Q-Chem warning in module /opt/software/qchem/qchem-5.0.1/libgen/Atomic_PolEc.C, line 58:

 No atomic polarizability available.


 Q-Chem warning in module /opt/software/qchem/qchem-5.0.1/libgen/Atomic_PolEc.C, line 73:

 No atomic polarizability available.


 Q-Chem warning in module /opt/software/qchem/qchem-5.0.1/libgen/Atomic_PolEc.C, line 58:

 No atomic polarizability available.


 Q-Chem warning in module /opt/software/qchem/qchem-5.0.1/libgen/Atomic_PolEc.C, line 73:

 No atomic polarizability available.


 Q-Chem warning in module /opt/software/qchem/qchem-5.0.1/libgen/Atomic_PolEc.C, line 58:

 No atomic polarizability available.


 Q-Chem warning in module /opt/software/qchem/qchem-5.0.1/libgen/Atomic_PolEc.C, line 73:

 No atomic polarizability available.


 Q-Chem warning in module /opt/software/qchem/qchem-5.0.1/libgen/Atomic_PolEc.C, line 58:

 No atomic polarizability available.


 Q-Chem warning in module /opt/software/qchem/qchem-5.0.1/libgen/Atomic_PolEc.C, line 73:

 No atomic polarizability available.


 Q-Chem warning in module /opt/software/qchem/qchem-5.0.1/libgen/Atomic_PolEc.C, line 58:

 No atomic polarizability available.


 Q-Chem warning in module /opt/software/qchem/qchem-5.0.1/libgen/Atomic_PolEc.C, line 73:

 No atomic polarizability available.


 Q-Chem warning in module /opt/software/qchem/qchem-5.0.1/libgen/Atomic_PolEc.C, line 58:

 No atomic polarizability available.


 Q-Chem warning in module /opt/software/qchem/qchem-5.0.1/libgen/Atomic_PolEc.C, line 73:

 No atomic polarizability available.


 Q-Chem warning in module /opt/software/qchem/qchem-5.0.1/libgen/Atomic_PolEc.C, line 58:

 No atomic polarizability available.


 Q-Chem warning in module /opt/software/qchem/qchem-5.0.1/libgen/Atomic_PolEc.C, line 73:

 No atomic polarizability available.


 Q-Chem warning in module /opt/software/qchem/qchem-5.0.1/libgen/Atomic_PolEc.C, line 58:

 No atomic polarizability available.


 Q-Chem warning in module /opt/software/qchem/qchem-5.0.1/libgen/Atomic_PolEc.C, line 73:

 No atomic polarizability available.


 Q-Chem warning in module /opt/software/qchem/qchem-5.0.1/libgen/Atomic_PolEc.C, line 58:

 No atomic polarizability available.


 Q-Chem warning in module /opt/software/qchem/qchem-5.0.1/libgen/Atomic_PolEc.C, line 73:

 No atomic polarizability available.


 Q-Chem warning in module /opt/software/qchem/qchem-5.0.1/libgen/Atomic_PolEc.C, line 58:

 No atomic polarizability available.


 Q-Chem warning in module /opt/software/qchem/qchem-5.0.1/libgen/Atomic_PolEc.C, line 73:

 No atomic polarizability available.

 A restricted hybrid HF-DFT SCF calculation will be
 performed using Pulay DIIS extrapolation
 Exchange:     0.2000 Hartree-Fock + 0.0800 Slater + 0.7200 B88
 Correlation:  0.1900 VWN1RPA + 0.8100 LYP
 Using SG-1 standard quadrature grid
 Dispersion:   Grimme D3
 SCF converges when DIIS error is below 1.0E-08
 using 4 threads for integral computing
 -------------------------------------------------------
 OpenMP Integral computing Module                
 Release: version 1.0, May 2013, Q-Chem Inc. Pittsburgh 
 -------------------------------------------------------
 -------------------------------------------------------
 OpenMP BLAS3 based DFT computing Module                
 Release: version 1.0, May 2013, Q-Chem Inc. Pittsburgh 
 -------------------------------------------------------
 ---------------------------------------
  Cycle       Energy         DIIS Error
 ---------------------------------------
    1    -312.6314097896      2.00E-02
    2    -310.8028126171      2.31E-03
    3    -310.7711040601      2.51E-03
    4    -310.9801317790      1.90E-04
    5    -310.9808666364      1.12E-04
    6    -310.9812036296      1.80E-05
    7    -310.9812106819      6.94E-06
    8    -310.9812120447      1.01E-06
    9    -310.9812120690      5.11E-07
   10    -310.9812120770      1.60E-07
   11    -310.9812120779      1.40E-08
   12    -310.9812120778      1.35E-08
   13    -310.9812120779      9.61E-10 Convergence criterion met
 ---------------------------------------
 SCF time:  CPU 649.65 s  wall 163.05 s
 SCF   energy in the final basis set = -310.98121208
 Total energy in the final basis set = -310.98121208
 
 --------------------------------------------------------------
 
                    Orbital Energies (a.u.)
 --------------------------------------------------------------
 
 Alpha MOs
 -- Occupied --
-10.180 -10.180 -10.171 -10.170 -10.170 -10.170 -10.167 -10.167
 -0.860  -0.787  -0.744  -0.721  -0.657  -0.608  -0.575  -0.494
 -0.473  -0.453  -0.425  -0.419  -0.417  -0.402  -0.398  -0.375
 -0.346  -0.342  -0.337  -0.254  -0.237
 -- Virtual --
 -0.015  -0.011  -0.008   0.001   0.008   0.019   0.021   0.029
  0.030   0.039   0.043   0.051   0.052   0.056   0.057   0.059
  0.064   0.073   0.078   0.081   0.086   0.089   0.092   0.095
  0.099   0.103   0.107   0.111   0.115   0.116   0.121   0.123
  0.127   0.128   0.130   0.134   0.142   0.145   0.147   0.148
  0.149   0.152   0.157   0.157   0.160   0.162   0.166   0.169
  0.176   0.177   0.182   0.182   0.187   0.191   0.196   0.197
  0.202   0.205   0.207   0.210   0.212   0.216   0.217   0.223
  0.226   0.232   0.235   0.237   0.241   0.250   0.252   0.258
  0.259   0.260   0.265   0.268   0.271   0.273   0.278   0.281
  0.286   0.288   0.295   0.297   0.299   0.307   0.314   0.319
  0.324   0.325   0.329   0.330   0.339   0.345   0.351   0.356
  0.370   0.372   0.380   0.383   0.387   0.401   0.411   0.413
  0.425   0.429   0.435   0.440   0.448   0.451   0.461   0.470
  0.479   0.481   0.492   0.498   0.513   0.519   0.526   0.534
  0.536   0.550   0.558   0.561   0.567   0.574   0.581   0.585
  0.590   0.597   0.601   0.609   0.613   0.619   0.621   0.632
  0.636   0.638   0.645   0.651   0.654   0.664   0.666   0.672
  0.677   0.687   0.689   0.699   0.705   0.707   0.712   0.727
  0.732   0.737   0.755   0.769   0.770   0.773   0.780   0.787
  0.800   0.805   0.812   0.818   0.838   0.843   0.870   0.884
  0.893   0.909   0.918   0.922   0.933   0.939   0.947   0.958
  0.961   0.973   0.984   1.002   1.014   1.020   1.029   1.037
  1.040   1.051   1.059   1.076   1.104   1.109   1.113   1.128
  1.140   1.152   1.157   1.189   1.210   1.215   1.230   1.238
  1.316   1.332   1.350   1.377   1.388   1.421   1.431   1.432
  1.453   1.468   1.481   1.486   1.499   1.504   1.517   1.524
  1.532   1.545   1.551   1.556   1.558   1.561   1.567   1.586
  1.589   1.606   1.617   1.620   1.626   1.630   1.645   1.668
  1.675   1.685   1.700   1.705   1.711   1.724   1.730   1.737
  1.744   1.746   1.758   1.765   1.784   1.785   1.792   1.804
  1.824   1.828   1.830   1.840   1.844   1.848   1.860   1.877
  1.892   1.896   1.903   1.920   1.926   1.932   1.936   1.949
  1.960   1.965   1.978   1.992   1.993   1.998   2.023   2.044
  2.050   2.053   2.066   2.084   2.090   2.105   2.114   2.119
  2.127   2.143   2.153   2.162   2.195   2.211   2.222   2.225
  2.268   2.299   2.303   2.306   2.315   2.322   2.337   2.338
  2.394   2.406   2.409   2.409   2.414   2.422   2.433   2.438
  2.455   2.470   2.481   2.484   2.497   2.502   2.523   2.533
  2.553   2.563   2.567   2.572   2.581   2.588   2.602   2.610
  2.630   2.631   2.652   2.668   2.673   2.683   2.688   2.733
  2.749   2.766   2.771   2.783   2.793   2.802   2.811   2.839
  2.842   2.847   2.857   2.870   2.913   2.918   2.929   2.938
  2.942   2.952   2.969   2.975   2.992   2.998   3.002   3.027
  3.060   3.063   3.091   3.117   3.134   3.181   3.189   3.203
  3.236   3.246   3.282   3.291   3.348   3.364   3.366   3.404
  3.404   3.447   3.457   3.476   3.488   3.516   3.521   3.565
  3.574   3.575   3.590   3.597   3.621   3.651   3.682   3.688
  3.706   3.761   3.779   3.808   3.810   3.829   3.848   3.998
  4.009   4.052   4.083   4.164   4.172   4.287   4.291   4.382
  4.630   4.678   4.800   4.836   4.853   4.855   4.861   4.867
  4.899   4.934   5.085   5.401   7.104   7.124   7.204   7.225
  7.254   7.391   7.607   7.659   7.725   7.770   7.777   7.794
  7.796   7.800   7.855   7.859   7.872   7.917   7.980   8.035
  8.139   8.390   8.534   8.935   9.681   9.989  10.003  10.176
 10.219  10.248  10.253  10.311  23.643  23.940  23.951  23.981
 24.025  24.085  24.109  24.194  69.866  69.960  69.966  70.103
 70.107  70.125  70.146  70.180
 --------------------------------------------------------------
 
          Ground-State Mulliken Net Atomic Charges

     Atom                 Charge (a.u.)
  ----------------------------------------
      1 C                    -0.381046
      2 C                    -0.326037
      3 C                     0.614648
      4 C                    -0.459975
      5 C                    -0.354680
      6 C                     0.630435
      7 H                     0.160080
      8 H                     0.168678
      9 C                    -0.596510
     10 C                    -0.697119
     11 H                     0.142084
     12 H                     0.138282
     13 H                     0.178515
     14 H                     0.162871
     15 H                     0.141169
     16 H                     0.136891
     17 H                     0.177015
     18 H                     0.175652
     19 GH                    0.009406
     20 GH                   -0.013138
     21 GH                   -0.023921
     22 GH                   -0.005926
     23 GH                    0.024451
     24 GH                   -0.053516
     25 GH                    0.003815
     26 GH                    0.002030
     27 GH                    0.016303
     28 GH                    0.018247
     29 GH                   -0.001838
     30 GH                    0.000674
     31 GH                   -0.000737
     32 GH                    0.009152
     33 GH                   -0.000404
     34 GH                   -0.000287
     35 GH                    0.003046
     36 GH                    0.001691
  ----------------------------------------
  Sum of atomic charges =     0.000000

 -----------------------------------------------------------------
                    Cartesian Multipole Moments
 -----------------------------------------------------------------
    Charge (ESU x 10^10)
                 0.0000
    Dipole Moment (Debye)
         X       0.0597      Y       0.0013      Z       0.0080
       Tot       0.0603
    Quadrupole Moments (Debye-Ang)
        XX     -46.3160     XY      -0.0015     YY     -44.8252
        XZ      -0.0771     YZ       0.6169     ZZ     -52.7378
    Octopole Moments (Debye-Ang^2)
       XXX     247.1654    XXY      -0.1583    XYY      80.3222
       YYY      -0.4581    XXZ       0.2280    XYZ      -1.1408
       YYZ      -0.0504    XZZ      95.1974    YZZ      -0.1527
       ZZZ      -0.2419
    Hexadecapole Moments (Debye-Ang^3)
      XXXX   -1189.8427   XXXY       4.4742   XXYY    -371.8644
      XYYY       4.8901   YYYY   -1097.8887   XXXZ       0.4558
      XXYZ      -8.2345   XYYZ       0.5292   YYYZ     -44.1580
      XXZZ    -247.2370   XYZZ       1.4445   YYZZ    -195.6979
      XZZZ       2.0796   YZZZ     -46.8889   ZZZZ     -85.5494
 -----------------------------------------------------------------
Archival summary:
1\1\vega02.cac.cornell.edu\SP\ProcedureUnspecified\BasisUnspecified\810h18\jj585\WedApr1800:43:282018WedApr1800:43:282018\0\\#,ProcedureUnspecified,BasisUnspecified,\\0,1\C\C,1,1.39605\H,2,1.0856,1,119.476\C,2,1.39511,1,121.149,3,179.917,0\H,4,1.0857,2,119.403,1,-179.853,0\C,4,1.39606,2,121.155,1,0.205671,0\C,1,1.40092,2,117.735,3,179.877,0\H,7,1.08578,1,119.465,2,-179.854,0\C,7,1.39125,1,121.109,2,0.234778,0\H,9,1.08586,7,119.479,1,179.822,0\C,1,1.50965,2,121.344,3,-1.22008,0\H,11,1.09221,1,111.376,2,14.1543,0\H,11,1.09367,1,111.41,2,134.753,0\H,11,1.09531,1,111.019,2,-105.715,0\C,6,1.51041,4,121.279,2,178.643,0\H,15,1.09235,6,111.373,4,15.5869,0\H,15,1.09361,6,111.474,4,136.192,0\H,15,1.09545,6,111.064,4,-104.227,0\Gh,13,2.52477,11,122.44,1,-72.9016,0\Gh,19,1.09531,13,159.923,11,44.5683,0\Gh,20,1.09221,19,107.588,13,-102.399,0\Gh,20,1.09367,19,107.303,13,141.66,0\Gh,20,1.50965,19,111.019,13,19.7027,0\Gh,23,1.39605,20,121.344,19,-105.715,0\Gh,24,1.0856,23,119.476,20,-1.22008,0\Gh,24,1.39511,23,121.149,20,178.696,0\Gh,26,1.0857,24,119.403,23,-179.853,0\Gh,26,1.39606,24,121.155,23,0.205671,0\Gh,23,1.40092,20,120.912,19,73.1528,0\Gh,29,1.08578,23,119.465,20,1.23831,0\Gh,29,1.39125,23,121.109,20,-178.673,0\Gh,31,1.08586,29,119.479,23,179.822,0\Gh,28,1.51041,26,121.279,24,178.643,0\Gh,33,1.09235,28,111.373,26,15.5869,0\Gh,33,1.09361,28,111.474,26,136.192,0\Gh,33,1.09545,28,111.064,26,-104.227,0\\\@

 Total job time:  163.93s(wall), 652.20s(cpu) 
 Wed Apr 18 00:43:28 2018

        *************************************************************
        *                                                           *
        *  Thank you very much for using Q-Chem.  Have a nice day.  *
        *                                                           *
        *************************************************************


0 sent ACK to 0 
now end server 0 ... 
