mFile = /opt/software/qchem/qchem-5.0.1//bin/mpi/machines
Process 0 of 1 is on vega03.cac.cornell.edu - thread support 0
initial socket setup ...start
initial socket setup ...done 
now start server 0 ... 
vega03 10.84.3
Q-Chem Developer Version! Running on 10.84.3.*
                  Welcome to Q-Chem
     A Quantum Leap Into The Future Of Chemistry


 Q-Chem 5.0, Q-Chem, Inc., Pleasanton, CA (2017)

 Yihan Shao,  Zhengting Gan,  E. Epifanovsky,  A. T. B. Gilbert,  M. Wormit,  
 J. Kussmann,  A. W. Lange,  A. Behn,  Jia Deng,  Xintian Feng,  D. Ghosh,  
 M. Goldey,  P. R. Horn,  L. D. Jacobson,  I. Kaliman,  T. Kus,  A. Landau,  
 Jie Liu,  E. I. Proynov,  R. M. Richard,  R. P. Steele,  E. J. Sundstrom,  
 H. L. Woodcock III,  P. M. Zimmerman,  D. Zuev,  B. Albrecht,  E. Alguire,  
 S. A. Baeppler,  Z. Benda,  Y. A. Bernard,  E. J. Berquist,  K. B. Bravaya,  
 D. Casanova,  Chun-Min Chang,  Yunqing Chen,  A. Chien,  K. D. Closser,  
 M. P. Coons,  S. Dasgupta,  M. Diedenhofen,  Hainam Do,  R. G. Edgar,  
 Po-Tung Fang,  S. Fatehi,  Qingguo Feng,  Qinghui Ge,  A. Ghysels,  
 J. Gomes,  J. Gonthier,  A. Gunina,  M. W. D. Hanson-Heine,  
 P. H. P. Harbach,  A. W. Hauser,  J. E. Herr,  E. G. Hohenstein,  
 Z. C. Holden,  Kerwin Hui,  T.-C. Jagau,  Hyunjun Ji,  B. Kaduk,  
 K. Khistyaev,  Jaehoon Kim,  P. Klunzinger,  K. Koh,  D. Kosenkov,  
 T. Kowalczyk,  C. M. Krauter,  A. Kunitsa,  Ka Un Lao,  A. Laurent,  
 K. V. Lawler,  Joonho Lee,  D. Lefrancois,  S. Lehtola,  D. S. Levine,  
 Yi-Pei Li,  You-Sheng Lin,  Fenglai Liu,  E. Livshits,  A. Luenser,  
 P. Manohar,  E. Mansoor,  S. F. Manzer,  Shan-Ping Mao,  Yuezhi Mao,  
 N. Mardirossian,  A. V. Marenich,  L. A. Martinez-Martinez,  S. A. Maurer,  
 N. J. Mayhall,  S. C. McKenzie,  J.-M. Mewes,  A. F. Morrison,  K. Nanda,  
 T. S. Nguyen-Beck,  R. Olivares-Amaya,  J. A. Parkhill,  T. M. Perrine,  
 F. Plasser,  S. Prager,  A. Prociuk,  D. R. Rehn,  F. Rob,  M. Schneider,  
 N. Sergueev,  S. M. Sharada,  S. Sharma,  D. W. Small,  T. Stauch,  
 T. Stein,  Yu-Chuan Su,  A. J. W. Thom,  T. Tsuchimochi,  L. Vogt,  
 O. Vydrov,  M. A. Watson,  J. Wenzel,  M. de Wergifosse,  T. A. Wesolowski,  
 A. White,  J. Witte,  A. Yamada,  Jun Yang,  K. Yao,  S. Yeganeh,  
 S. R. Yost,  Zhi-Qiang You,  A. Zech,  Igor Ying Zhang,  Xing Zhang,  
 Yan Zhao,  Ying Zhu,  B. R. Brooks,  G. K. L. Chan,  C. J. Cramer,  
 M. S. Gordon,  W. J. Hehre,  A. Klamt,  M. W. Schmidt,  C. D. Sherrill,  
 D. G. Truhlar,  A. Aspuru-Guzik,  R. Baer,  A. T. Bell,  N. A. Besley,  
 Jeng-Da Chai,  A. Dreuw,  B. D. Dunietz,  T. R. Furlani,  Chao-Ping Hsu,  
 Yousung Jung,  Jing Kong,  D. S. Lambrecht,  WanZhen Liang,  C. Ochsenfeld,  
 V. A. Rassolov,  L. V. Slipchenko,  J. E. Subotnik,  T. Van Voorhis,  
 J. M. Herbert,  A. I. Krylov,  P. M. W. Gill,  M. Head-Gordon

 Contributors to earlier versions of Q-Chem not listed above: 
 R. D. Adamson,  B. Austin,  J. Baker,  G. J. O. Beran,  K. Brandhorst,  
 S. T. Brown,  E. F. C. Byrd,  A. K. Chakraborty,  C.-L. Cheng,  
 Siu Hung Chien,  D. M. Chipman,  D. L. Crittenden,  H. Dachsel,  
 R. A. DiStasio Jr.,  R. J. Doerksen,  A. D. Dutoi,  L. Fusti-Molnar,  
 W. A. Goddard III,  A. Golubeva-Zadorozhnaya,  S. R. Gwaltney,  G. Hawkins,  
 A. Heyden,  S. Hirata,  G. Kedziora,  F. J. Keil,  C. Kelley,  Jihan Kim,  
 R. A. King,  R. Z. Khaliullin,  P. P. Korambath,  W. Kurlancheek,  
 A. M. Lee,  M. S. Lee,  S. V. Levchenko,  Ching Yeh Lin,  D. Liotard,  
 R. C. Lochan,  I. Lotan,  P. E. Maslen,  N. Nair,  D. P. O'Neill,  
 D. Neuhauser,  E. Neuscamman,  C. M. Oana,  R. Olson,  B. Peters,  
 R. Peverati,  P. A. Pieniazek,  Y. M. Rhee,  J. Ritchie,  M. A. Rohrdanz,  
 E. Rosta,  N. J. Russ,  H. F. Schaefer III,  N. E. Schultz,  N. Shenvi,  
 A. C. Simmonett,  A. Sodt,  D. Stuck,  K. S. Thanthiriwatte,  V. Vanovschi,  
 Tao Wang,  A. Warshel,  C. F. Williams,  Q. Wu,  X. Xu,  W. Zhang

 Please cite Q-Chem as follows:
 Y. Shao et al., Mol. Phys. 113, 184-215 (2015)
 DOI: 10.1080/00268976.2014.952696

 Q-Chem 5.0.1 for Intel X86 EM64T Linux

 Parts of Q-Chem use Armadillo 5.200.1 (Boston Tea Smuggler).
 http://arma.sourceforge.net/

 Q-Chem begins on Mon Apr  2 17:14:51 2018  

Host: vega03.cac.cornell.edu
0

     Scratch files written to /scratch/jj585/vdw/11n01_distance_4.600_11.save//
 Parallel job on  1  processors

Checking the input file for inconsistencies... 	...done.

--------------------------------------------------------------
User input:
--------------------------------------------------------------
$molecule
0  1
--
0  1
C        -0.54444000        -0.68370000        -0.06689000
C        -0.55709000        +0.71878000        +0.05493000
C        +0.74969000        -1.43776000        -0.09374000
C        +0.72843000        +1.48436000        +0.06598000
O        +1.53645000        -1.09176000        +0.94813000
O        +1.04702000        -2.28405000        -0.90088000
O        +1.53784000        +1.08301000        -0.93877000
O        +1.01035000        +2.37097000        +0.83478000
C        +2.83449000        +1.70121000        -0.99358000
C        +2.82316000        -1.73208000        +1.00475000
C        -1.74320000        -1.41616000        -0.12552000
C        -2.93952000        -0.70056000        -0.05285000
C        -2.95313000        +0.68255000        +0.06934000
C        -1.77161000        +1.42404000        +0.12810000
H        +2.73835000        +2.77989000        -1.12464000
H        +2.70778000        -2.81319000        +1.09555000
H        -3.90354000        +1.20325000        +0.11710000
H        +3.38998000        +1.50093000        -0.07544000
H        +3.33184000        +1.25269000        -1.85067000
H        +3.31095000        -1.32281000        +1.88650000
H        +3.39889000        -1.50934000        +0.10459000
H        -3.87892000        -1.24211000        -0.08988000
C        -1.83960000        +2.92746000        +0.24839000
H        -1.24214000        +3.42352000        -0.52065000
H        -1.45503000        +3.26427000        +1.21284000
H        -2.87211000        +3.26623000        +0.14638000
H        -1.73878000        -2.44393000        -0.21875000
--
0  1
C        -0.51278000        -1.08478000        +4.51548000
C        -0.52543000        +0.31770000        +4.63730000
C        +0.78135000        -1.83884000        +4.48863000
C        +0.76009000        +1.08328000        +4.64835000
O        +1.56811000        -1.49284000        +5.53050000
O        +1.07868000        -2.68513000        +3.68149000
O        +1.56950000        +0.68193000        +3.64360000
O        +1.04201000        +1.96989000        +5.41715000
C        +2.86615000        +1.30013000        +3.58879000
C        +2.85482000        -2.13316000        +5.58712000
C        -1.71154000        -1.81724000        +4.45685000
C        -2.90786000        -1.10164000        +4.52952000
C        -2.92147000        +0.28147000        +4.65171000
C        -1.73995000        +1.02296000        +4.71047000
H        +2.77001000        +2.37881000        +3.45773000
H        +2.73944000        -3.21427000        +5.67792000
H        -3.87188000        +0.80217000        +4.69947000
H        +3.42164000        +1.09985000        +4.50693000
H        +3.36350000        +0.85161000        +2.73170000
H        +3.34261000        -1.72389000        +6.46887000
H        +3.43055000        -1.91042000        +4.68696000
H        -3.84726000        -1.64319000        +4.49249000
C        -1.80794000        +2.52638000        +4.83076000
H        -1.21048000        +3.02244000        +4.06172000
H        -1.42337000        +2.86319000        +5.79521000
H        -2.84045000        +2.86515000        +4.72875000
H        -1.70712000        -2.84501000        +4.36362000
$end

$rem
JOBTYPE                   SP
METHOD                    B3LYP
DFT_D                     d3_op
BASIS                     6-311++G(d,p)
SYMMETRY                  False
THRESH                    12
SCF_CONVERGENCE           8
MAX_SUB_FILE_NUM          128
MEM_STATIC                400
MEM_TOTAL                 4000
$end
--------------------------------------------------------------
 Adding empirical dispersion correction 
 ----------------------------------------------------------------
 Doing -D3(op) with
 s6 =   1.00000
 s8 =   0.78311
 a1 =   0.30000
 a2 =   4.25000
 n  =  10.00000
 -D3 energy without 3body term =     -0.0698603798 hartrees
 ----------------------------------------------------------------
             Standard Nuclear Orientation (Angstroms)
    I     Atom           X                Y                Z
 ----------------------------------------------------------------
    1      C      -2.2356262642     0.1771194467     1.2589361782
    2      C      -2.3598789216     0.6711917073    -0.0534677854
    3      C      -2.0840586749    -1.2914988682     1.5124857278
    4      C      -2.4353611663    -0.2756874295    -1.2095468659
    5      O      -1.0902919551    -1.8150117624     0.7624441617
    6      O      -2.7205477078    -1.9300046945     2.3145324180
    7      O      -3.3250426101    -1.2633464908    -0.9671722794
    8      O      -1.8225832797    -0.1701702699    -2.2439447629
    9      C      -3.4393279728    -2.2763102105    -1.9807402135
   10      C      -0.8766113077    -3.2306626701     0.9006875679
   11      C      -2.2095738355     1.0493322615     2.3614454719
   12      C      -2.3058163284     2.4176634771     2.1026928909
   13      C      -2.4263741947     2.9061681347     0.8084989716
   14      C      -2.4544934154     2.0531575999    -0.2964136970
   15      H      -3.7592157951    -1.8364059119    -2.9263226556
   16      H      -0.6035997264    -3.4769047750     1.9279098022
   17      H      -2.5043414825     3.9762487242     0.6486949990
   18      H      -2.4808057104    -2.7780414486    -2.1262156940
   19      H      -4.1868255477    -2.9734565847    -1.6087660353
   20      H      -0.0622671009    -3.4677402779     0.2198338389
   21      H      -1.7802804919    -3.7799868462     0.6305188780
   22      H      -2.2822630159     3.1128921011     2.9352926659
   23      C      -2.5997987017     2.6328394952    -1.6828549307
   24      H      -3.4211302028     2.1671997879    -2.2333553621
   25      H      -1.6952245449     2.4759458743    -2.2733029388
   26      H      -2.7965277290     3.7047476109    -1.6231998020
   27      H      -2.1225892741     0.6914393137     3.3254832649
   28      C       2.3448159129     0.4428003650     0.9288673209
   29      C       2.2205632555     0.9368726256    -0.3835366428
   30      C       2.4963835023    -1.0258179499     1.1824168704
   31      C       2.1450810109    -0.0100065112    -1.5396157233
   32      O       3.4901502220    -1.5493308440     0.4323753043
   33      O       1.8598944693    -1.6643237762     1.9844635606
   34      O       1.2553995670    -0.9976655725    -1.2972411367
   35      O       2.7578588974     0.0955106485    -2.5740136203
   36      C       1.1411142044    -2.0106292921    -2.3108090709
   37      C       3.7038308694    -2.9649817517     0.5706187105
   38      C       2.3708683417     1.3150131798     2.0313766146
   39      C       2.2746258487     2.6833443954     1.7726240336
   40      C       2.1540679825     3.1718490530     0.4784301143
   41      C       2.1259487617     2.3188385183    -0.6264825543
   42      H       0.8212263821    -1.5707249936    -3.2563915130
   43      H       3.9768424507    -3.2112238566     1.5978409449
   44      H       2.0761006946     4.2419296425     0.3186261416
   45      H       2.0996364667    -2.5123605303    -2.4562845514
   46      H       0.3936166294    -2.7077756664    -1.9388348926
   47      H       4.5181750762    -3.2020593596    -0.1102350184
   48      H       2.8001616852    -3.5143059279     0.3004500206
   49      H       2.2981791612     3.3785730194     2.6052238085
   50      C       1.9806434755     2.8985204135    -2.0129237881
   51      H       1.1593119743     2.4328807062    -2.5634242195
   52      H       2.8852176322     2.7416267926    -2.6033717961
   53      H       1.7839144481     3.9704285292    -1.9532686593
   54      H       2.4578529030     0.9571202320     2.9954144075
 ----------------------------------------------------------------
 Molecular Point Group                 C1    NOp =  1
 Largest Abelian Subgroup              C1    NOp =  1
 Nuclear Repulsion Energy =  3190.0949988538 hartrees
 There are      110 alpha and      110 beta electrons
 Requested basis set is 6-311++G(d,p)
 There are 300 shells and 828 basis functions

 Total QAlloc Memory Limit   4000 MB
 Mega-Array Size       392 MB
 MEM_STATIC part       400 MB
 A cutoff of  1.0D-12 yielded  32415 shell pairs
 There are    249788 function pairs (    265680 Cartesian)
 
 -------------------------------------------------------
 OpenMP Integral Computing Module                       
 Release: version 1.0, May 2013, Q-Chem Inc. Pittsburgh 
 -------------------------------------------------------
 Integral Job Info:
 Integral job number is                      11
 Integral operator is                         1
 short-range coefficients                     0
 long-range coefficients              100000000
 Omega coefficients                           0
 if combine SR and LR in K                    0
 Integral screening is                        0
 Integral computing path is                   2
 max size of driver memory is            800000
 size of driver memory is                593474
 size of scratch memory is              2361544
 max col of scratch BK array               1296
 max len of scratch array in speh3          155
 max len of scratch index in speh4           18
 max int batch size is                      520
 min int batch size is                       52
 fixed nKL is                                52
 max L of basis functions is                  2
 order of int derivative is                   0
 number of shells is                        300
 number of basis is                         858
 number of cartesian basis is               858
 number of contracted shell pairs         32415
 number of primitive shell pairs          70240
 maxK2 (contraction) of shell pair           36
 max number of K2 of shell pair               1
 max number of CS2 of shell pair           6394
 max number of PS2 of shell pair          11742
 mem total for path MDJ                  490040
 -------------------------------------------------------
 Smallest overlap matrix eigenvalue = 5.76E-08
 Linear dependence detected in AO basis
 Number of orthogonalized atomic orbitals = 820
 Maximum deviation from orthogonality = 1.890E-10

 Scale SEOQF with 1.000000e-01/1.000000e-01/1.000000e-01

 Standard Electronic Orientation quadrupole field applied
 Nucleus-field energy     =     0.0000000469 hartrees
 Guess from superposition of atomic densities
 Warning:  Energy on first SCF cycle will be non-variational
 A restricted hybrid HF-DFT SCF calculation will be
 performed using Pulay DIIS extrapolation
 Exchange:     0.2000 Hartree-Fock + 0.0800 Slater + 0.7200 B88
 Correlation:  0.1900 VWN1RPA + 0.8100 LYP
 Using SG-1 standard quadrature grid
 Dispersion:   Grimme D3
 SCF converges when DIIS error is below 1.0E-08
 using 2 threads for integral computing
 -------------------------------------------------------
 OpenMP Integral computing Module                
 Release: version 1.0, May 2013, Q-Chem Inc. Pittsburgh 
 -------------------------------------------------------
 -------------------------------------------------------
 OpenMP BLAS3 based DFT computing Module                
 Release: version 1.0, May 2013, Q-Chem Inc. Pittsburgh 
 -------------------------------------------------------
 ---------------------------------------
  Cycle       Energy         DIIS Error
 ---------------------------------------
    1   -1461.3796812090      2.26E-02
    2   -1454.5001655213      2.91E-03
    3   -1453.4777745992      5.05E-03
    4   -1454.9872739001      1.23E-03
    5   -1455.0904701695      3.05E-04
    6   -1455.0954557807      1.28E-04
    7   -1455.0964495886      3.44E-05
    8   -1455.0965064723      1.83E-05
    9   -1455.0965261438      3.60E-06
   10   -1455.0965269644      9.16E-07
   11   -1455.0965270229      3.06E-07
   12   -1455.0965270291      1.35E-07
   13   -1455.0965270303      4.11E-08
   14   -1455.0965270304      1.19E-08
   15   -1455.0965270303      7.64E-09 Convergence criterion met
 ---------------------------------------
 SCF time:  CPU 3628.96 s  wall 1822.02 s
 SCF   energy in the final basis set = -1455.09652703
 Total energy in the final basis set = -1455.09652703
 
 --------------------------------------------------------------
 
                    Orbital Energies (a.u.)
 --------------------------------------------------------------
 
 Alpha MOs
 -- Occupied --
-19.177 -19.176 -19.169 -19.166 -19.121 -19.119 -19.115 -19.111
-10.312 -10.311 -10.307 -10.304 -10.234 -10.233 -10.226 -10.223
-10.208 -10.207 -10.205 -10.204 -10.204 -10.203 -10.191 -10.190
-10.188 -10.187 -10.187 -10.187 -10.173 -10.170  -1.120  -1.119
 -1.110  -1.107  -1.032  -1.030  -1.025  -1.022  -0.883  -0.882
 -0.798  -0.797  -0.792  -0.791  -0.744  -0.744  -0.729  -0.726
 -0.702  -0.700  -0.652  -0.651  -0.624  -0.623  -0.579  -0.576
 -0.574  -0.568  -0.547  -0.545  -0.519  -0.516  -0.511  -0.509
 -0.490  -0.490  -0.485  -0.485  -0.481  -0.477  -0.476  -0.471
 -0.469  -0.467  -0.446  -0.443  -0.434  -0.431  -0.430  -0.429
 -0.426  -0.422  -0.411  -0.409  -0.404  -0.401  -0.393  -0.392
 -0.382  -0.380  -0.376  -0.373  -0.369  -0.365  -0.363  -0.362
 -0.360  -0.355  -0.320  -0.319  -0.309  -0.306  -0.295  -0.294
 -0.290  -0.287  -0.267  -0.264  -0.262  -0.258
 -- Virtual --
 -0.058  -0.054  -0.038  -0.033  -0.016  -0.012  -0.004   0.002
  0.007   0.010   0.011   0.012   0.014   0.019   0.022   0.023
  0.028   0.029   0.029   0.036   0.037   0.043   0.043   0.047
  0.048   0.051   0.053   0.056   0.061   0.064   0.067   0.068
  0.072   0.074   0.078   0.085   0.087   0.090   0.094   0.095
  0.099   0.100   0.103   0.106   0.110   0.111   0.112   0.113
  0.116   0.117   0.119   0.121   0.122   0.124   0.126   0.128
  0.129   0.131   0.133   0.136   0.137   0.139   0.141   0.142
  0.145   0.145   0.148   0.149   0.153   0.155   0.156   0.157
  0.160   0.163   0.163   0.166   0.166   0.168   0.171   0.175
  0.175   0.178   0.181   0.183   0.185   0.186   0.192   0.194
  0.195   0.196   0.200   0.201   0.206   0.208   0.211   0.213
  0.216   0.219   0.222   0.223   0.225   0.227   0.230   0.232
  0.234   0.239   0.241   0.242   0.242   0.246   0.248   0.249
  0.253   0.258   0.259   0.261   0.262   0.266   0.269   0.270
  0.272   0.276   0.280   0.280   0.283   0.286   0.287   0.288
  0.292   0.295   0.296   0.300   0.302   0.305   0.306   0.309
  0.312   0.313   0.317   0.319   0.324   0.325   0.328   0.332
  0.333   0.339   0.341   0.345   0.347   0.348   0.355   0.355
  0.361   0.362   0.364   0.366   0.370   0.371   0.374   0.375
  0.378   0.380   0.384   0.386   0.390   0.392   0.396   0.396
  0.402   0.405   0.406   0.411   0.416   0.418   0.421   0.424
  0.427   0.429   0.435   0.439   0.447   0.449   0.453   0.464
  0.474   0.475   0.476   0.486   0.489   0.495   0.504   0.508
  0.513   0.518   0.523   0.527   0.530   0.534   0.535   0.544
  0.547   0.551   0.556   0.563   0.568   0.570   0.572   0.574
  0.579   0.580   0.585   0.589   0.595   0.601   0.605   0.608
  0.610   0.613   0.621   0.624   0.627   0.628   0.632   0.636
  0.643   0.645   0.652   0.657   0.658   0.663   0.669   0.672
  0.675   0.679   0.681   0.684   0.688   0.690   0.693   0.696
  0.701   0.708   0.711   0.716   0.723   0.727   0.730   0.732
  0.738   0.740   0.744   0.747   0.751   0.752   0.761   0.764
  0.766   0.773   0.774   0.783   0.784   0.791   0.793   0.798
  0.804   0.806   0.813   0.815   0.818   0.820   0.825   0.830
  0.834   0.841   0.848   0.850   0.854   0.863   0.865   0.879
  0.884   0.893   0.901   0.910   0.912   0.929   0.930   0.941
  0.947   0.952   0.964   0.973   0.981   0.990   0.996   1.002
  1.012   1.016   1.024   1.029   1.038   1.048   1.050   1.055
  1.063   1.071   1.080   1.086   1.087   1.089   1.093   1.101
  1.105   1.115   1.127   1.134   1.150   1.155   1.163   1.170
  1.176   1.180   1.188   1.200   1.210   1.216   1.220   1.230
  1.236   1.243   1.251   1.260   1.261   1.266   1.273   1.283
  1.287   1.294   1.298   1.307   1.314   1.323   1.327   1.331
  1.338   1.346   1.353   1.356   1.368   1.374   1.383   1.386
  1.399   1.408   1.416   1.422   1.423   1.427   1.433   1.441
  1.454   1.462   1.471   1.474   1.483   1.486   1.489   1.489
  1.496   1.502   1.508   1.517   1.530   1.533   1.536   1.540
  1.542   1.551   1.554   1.560   1.565   1.575   1.580   1.585
  1.592   1.594   1.598   1.600   1.604   1.612   1.620   1.621
  1.626   1.632   1.632   1.642   1.648   1.655   1.661   1.667
  1.676   1.680   1.689   1.698   1.705   1.717   1.719   1.722
  1.726   1.730   1.732   1.735   1.736   1.747   1.750   1.755
  1.764   1.771   1.781   1.786   1.790   1.794   1.803   1.805
  1.807   1.813   1.819   1.823   1.833   1.838   1.859   1.864
  1.869   1.877   1.879   1.887   1.899   1.902   1.915   1.917
  1.926   1.930   1.934   1.946   1.955   1.959   1.966   1.973
  1.979   1.988   1.994   2.010   2.012   2.016   2.017   2.034
  2.046   2.061   2.076   2.076   2.079   2.094   2.097   2.106
  2.109   2.116   2.125   2.135   2.142   2.145   2.160   2.163
  2.174   2.180   2.195   2.207   2.211   2.232   2.239   2.251
  2.256   2.257   2.282   2.306   2.320   2.328   2.348   2.349
  2.386   2.394   2.416   2.428   2.449   2.459   2.461   2.477
  2.492   2.498   2.506   2.508   2.513   2.515   2.520   2.529
  2.536   2.539   2.554   2.558   2.570   2.577   2.578   2.583
  2.591   2.595   2.598   2.606   2.621   2.626   2.630   2.642
  2.659   2.666   2.667   2.677   2.685   2.692   2.702   2.711
  2.714   2.722   2.729   2.746   2.752   2.764   2.767   2.771
  2.781   2.783   2.790   2.794   2.798   2.806   2.818   2.835
  2.839   2.842   2.846   2.856   2.862   2.866   2.879   2.886
  2.889   2.895   2.898   2.903   2.911   2.915   2.918   2.922
  2.926   2.933   2.940   2.953   2.961   2.967   2.978   2.983
  3.016   3.028   3.047   3.050   3.062   3.071   3.077   3.089
  3.092   3.096   3.111   3.114   3.132   3.138   3.145   3.161
  3.194   3.205   3.221   3.230   3.235   3.236   3.251   3.258
  3.263   3.266   3.268   3.280   3.294   3.296   3.324   3.331
  3.377   3.384   3.390   3.396   3.419   3.427   3.462   3.471
  3.526   3.540   3.569   3.588   3.599   3.603   3.631   3.635
  3.667   3.679   3.718   3.725   3.769   3.771   3.781   3.783
  3.796   3.802   3.804   3.805   3.840   3.843   3.868   3.873
  3.890   3.892   3.944   3.952   4.045   4.046   4.055   4.059
  4.083   4.093   4.124   4.132   4.159   4.163   4.169   4.189
  4.281   4.289   4.355   4.359   4.368   4.374   4.843   4.849
  5.072   5.081   5.127   5.162   5.175   5.198   5.209   5.250
  5.266   5.278   5.281   5.297   5.414   5.417   5.442   5.487
  5.626   5.632   5.638   5.645   5.897   5.898   5.914   5.927
 23.598  23.678  23.858  23.864  23.876  23.885  23.932  23.935
 23.943  23.947  23.949  23.958  23.968  23.991  23.997  24.044
 24.063  24.071  24.083  24.087  24.175  24.180  49.898  49.911
 49.942  49.949  50.018  50.034  50.037  50.047
 --------------------------------------------------------------
 
          Ground-State Mulliken Net Atomic Charges

     Atom                 Charge (a.u.)
  ----------------------------------------
      1 C                     0.671048
      2 C                     0.092752
      3 C                    -0.490076
      4 C                    -0.688641
      5 O                     0.106190
      6 O                    -0.166639
      7 O                     0.118014
      8 O                    -0.106121
      9 C                    -0.149401
     10 C                    -0.350703
     11 C                    -0.339313
     12 C                    -0.281623
     13 C                    -0.267157
     14 C                     0.314339
     15 H                     0.165091
     16 H                     0.219856
     17 H                     0.153080
     18 H                     0.185823
     19 H                     0.171608
     20 H                     0.081685
     21 H                     0.187877
     22 H                     0.180390
     23 C                    -0.524381
     24 H                     0.176882
     25 H                     0.188951
     26 H                     0.144343
     27 H                     0.200301
     28 C                     0.394464
     29 C                     0.634230
     30 C                    -0.707772
     31 C                    -0.819191
     32 O                     0.106522
     33 O                    -0.107100
     34 O                     0.117537
     35 O                    -0.135533
     36 C                    -0.328021
     37 C                    -0.146196
     38 C                    -0.437070
     39 C                    -0.289652
     40 C                    -0.410772
     41 C                     0.469946
     42 H                     0.211833
     43 H                     0.169425
     44 H                     0.155347
     45 H                     0.194980
     46 H                     0.084227
     47 H                     0.172479
     48 H                     0.177882
     49 H                     0.184647
     50 C                    -0.431196
     51 H                     0.210863
     52 H                     0.214857
     53 H                     0.131894
     54 H                     0.187196
  ----------------------------------------
  Sum of atomic charges =    -0.000000

 -----------------------------------------------------------------
                    Cartesian Multipole Moments
 -----------------------------------------------------------------
    Charge (ESU x 10^10)
                -0.0000
    Dipole Moment (Debye)
         X       0.2186      Y       0.4015      Z      -0.7638
       Tot       0.8902
    Quadrupole Moments (Debye-Ang)
        XX    -181.4607     XY      -7.9368     YY    -145.7129
        XZ      16.6205     YZ      14.5667     ZZ    -181.3289
    Octopole Moments (Debye-Ang^2)
       XXX       8.2505    XXY     -41.4400    XYY      18.4968
       YYY     -53.6830    XXZ     -22.1603    XYZ     -23.5360
       YYZ     -28.0157    XZZ      -6.6798    YZZ       9.9315
       ZZZ      11.2728
    Hexadecapole Moments (Debye-Ang^3)
      XXXX   -6399.5407   XXXY    -138.6948   XXYY   -1608.3201
      XYYY     -56.9032   YYYY   -4051.4677   XXXZ     284.1113
      XXYZ      82.4408   XYYZ      55.6281   YYYZ      48.3950
      XXZZ   -1588.1073   XYZZ     -21.5681   YYZZ   -1170.7482
      XZZZ     114.4171   YZZZ     117.8970   ZZZZ   -2918.0322
 -----------------------------------------------------------------
Archival summary:
1\1\vega03.cac.cornell.edu\SP\ProcedureUnspecified\BasisUnspecified\82224\jj585\MonApr217:45:152018MonApr217:45:152018\0\\#,ProcedureUnspecified,BasisUnspecified,\\0,1\O\C,1,1.3512\O,2,1.2069,1,123.501\C,1,1.43752,2,116.164,3,4.8931,0\H,4,1.08772,1,105.376,2,179.706,0\H,4,1.09086,1,110.507,2,-60.681,0\H,4,1.09163,1,110.367,2,60.0909,0\C,2,1.49626,1,110.928,3,178.057,0\C,8,1.40634,2,119.012,1,-130.615,0\C,9,1.39616,8,117.536,2,177.857,0\H,10,1.08475,9,118.991,8,-179.6,0\C,10,1.38856,9,121.629,8,0.183585,0\H,12,1.08495,10,119.453,9,179.671,0\C,12,1.3959,10,121.575,9,-0.129654,0\H,14,1.032,12,121.26,10,-179.84,0\C,14,1.40604,12,117.481,10,0.160349,0\C,16,1.49803,14,118.266,12,177.84,0\O,17,1.20668,16,125.302,14,50.5403,0\O,17,1.35063,16,111.128,14,-126.75,0\C,19,1.43835,17,115.94,16,-178.519,0\H,20,1.08762,19,105.403,17,179.104,0\H,20,1.09103,19,110.475,17,-61.3232,0\H,20,1.0915,19,110.399,17,59.3962,0\C,9,1.50976,8,122.848,2,-1.37569,0\H,24,1.09144,9,110.135,8,171.975,0\H,24,1.09156,9,111.21,8,-67.4939,0\H,24,1.09291,9,111.796,8,51.7903,0\H,5,2.3335,4,131.25,1,-36.5909,0\C,28,1.08762,5,130.873,4,106.078,0\H,29,1.09103,28,110.661,5,-159.962,0\H,29,1.0915,28,110.808,5,78.9241,0\O,29,1.43835,28,105.403,5,-40.5125,0\C,32,1.35063,29,115.94,28,179.104,0\O,33,1.20668,32,123.512,29,4.13325,0\C,33,1.49803,32,111.128,29,-178.519,0\C,35,1.40604,33,118.266,32,-126.75,0\H,36,1.032,35,121.26,33,-2.16035,0\C,36,1.3959,35,117.481,33,177.84,0\H,38,1.08495,36,118.972,35,-179.641,0\C,38,1.38856,36,121.575,35,0.160349,0\H,40,1.08475,38,119.38,36,179.653,0\C,40,1.39616,38,121.629,36,-0.129654,0\C,42,1.40634,40,117.536,38,0.183585,0\C,43,1.49626,42,119.012,40,177.857,0\O,44,1.2069,43,125.54,42,47.3939,0\O,44,1.3512,43,110.928,42,-130.615,0\C,46,1.43752,44,116.164,43,-177.05,0\H,47,1.08772,46,105.376,44,179.706,0\H,47,1.09086,46,110.507,44,-60.681,0\H,47,1.09163,46,110.367,44,60.0909,0\C,42,1.50976,40,119.611,38,179.442,0\H,51,1.09144,42,110.135,40,-7.24194,0\H,51,1.09156,42,111.21,40,113.289,0\H,51,1.09291,42,111.796,40,-127.427,0\\\@

 Total job time:  1824.11s(wall), 3631.62s(cpu) 
 Mon Apr  2 17:45:15 2018

        *************************************************************
        *                                                           *
        *  Thank you very much for using Q-Chem.  Have a nice day.  *
        *                                                           *
        *************************************************************


0 sent ACK to 0 
now end server 0 ... 
