r0178.ten.osc.edu 10.25.155
Q-Chem Developer Version! Running on 10.25.155.*
                  Welcome to Q-Chem
     A Quantum Leap Into The Future Of Chemistry


 Q-Chem 5.0, Q-Chem, Inc., Pleasanton, CA (2017)

 Yihan Shao,  Zhengting Gan,  E. Epifanovsky,  A. T. B. Gilbert,  M. Wormit,  
 J. Kussmann,  A. W. Lange,  A. Behn,  Jia Deng,  Xintian Feng,  D. Ghosh,  
 M. Goldey,  P. R. Horn,  L. D. Jacobson,  I. Kaliman,  T. Kus,  A. Landau,  
 Jie Liu,  E. I. Proynov,  R. M. Richard,  R. P. Steele,  E. J. Sundstrom,  
 H. L. Woodcock III,  P. M. Zimmerman,  D. Zuev,  B. Albrecht,  E. Alguire,  
 S. A. Baeppler,  Z. Benda,  Y. A. Bernard,  E. J. Berquist,  K. B. Bravaya,  
 D. Casanova,  Chun-Min Chang,  Yunqing Chen,  A. Chien,  K. D. Closser,  
 M. P. Coons,  S. Dasgupta,  M. Diedenhofen,  Hainam Do,  R. G. Edgar,  
 Po-Tung Fang,  S. Fatehi,  Qingguo Feng,  Qinghui Ge,  A. Ghysels,  
 J. Gomes,  J. Gonthier,  A. Gunina,  M. W. D. Hanson-Heine,  
 P. H. P. Harbach,  A. W. Hauser,  J. E. Herr,  E. G. Hohenstein,  
 Z. C. Holden,  Kerwin Hui,  T.-C. Jagau,  Hyunjun Ji,  B. Kaduk,  
 K. Khistyaev,  Jaehoon Kim,  P. Klunzinger,  K. Koh,  D. Kosenkov,  
 T. Kowalczyk,  C. M. Krauter,  A. Kunitsa,  Ka Un Lao,  A. Laurent,  
 K. V. Lawler,  Joonho Lee,  D. Lefrancois,  S. Lehtola,  D. S. Levine,  
 Yi-Pei Li,  You-Sheng Lin,  Fenglai Liu,  E. Livshits,  A. Luenser,  
 P. Manohar,  E. Mansoor,  S. F. Manzer,  Shan-Ping Mao,  Yuezhi Mao,  
 N. Mardirossian,  A. V. Marenich,  L. A. Martinez-Martinez,  S. A. Maurer,  
 N. J. Mayhall,  S. C. McKenzie,  J.-M. Mewes,  A. F. Morrison,  K. Nanda,  
 T. S. Nguyen-Beck,  R. Olivares-Amaya,  J. A. Parkhill,  T. M. Perrine,  
 F. Plasser,  S. Prager,  A. Prociuk,  D. R. Rehn,  F. Rob,  M. Schneider,  
 N. Sergueev,  S. M. Sharada,  S. Sharma,  D. W. Small,  T. Stauch,  
 T. Stein,  Yu-Chuan Su,  A. J. W. Thom,  T. Tsuchimochi,  L. Vogt,  
 O. Vydrov,  M. A. Watson,  J. Wenzel,  M. de Wergifosse,  T. A. Wesolowski,  
 A. White,  J. Witte,  A. Yamada,  Jun Yang,  K. Yao,  S. Yeganeh,  
 S. R. Yost,  Zhi-Qiang You,  A. Zech,  Igor Ying Zhang,  Xing Zhang,  
 Yan Zhao,  Ying Zhu,  B. R. Brooks,  G. K. L. Chan,  C. J. Cramer,  
 M. S. Gordon,  W. J. Hehre,  A. Klamt,  M. W. Schmidt,  C. D. Sherrill,  
 D. G. Truhlar,  A. Aspuru-Guzik,  R. Baer,  A. T. Bell,  N. A. Besley,  
 Jeng-Da Chai,  A. Dreuw,  B. D. Dunietz,  T. R. Furlani,  Chao-Ping Hsu,  
 Yousung Jung,  Jing Kong,  D. S. Lambrecht,  WanZhen Liang,  C. Ochsenfeld,  
 V. A. Rassolov,  L. V. Slipchenko,  J. E. Subotnik,  T. Van Voorhis,  
 J. M. Herbert,  A. I. Krylov,  P. M. W. Gill,  M. Head-Gordon

 Contributors to earlier versions of Q-Chem not listed above: 
 R. D. Adamson,  B. Austin,  J. Baker,  G. J. O. Beran,  K. Brandhorst,  
 S. T. Brown,  E. F. C. Byrd,  A. K. Chakraborty,  C.-L. Cheng,  
 Siu Hung Chien,  D. M. Chipman,  D. L. Crittenden,  H. Dachsel,  
 R. A. DiStasio Jr.,  R. J. Doerksen,  A. D. Dutoi,  L. Fusti-Molnar,  
 W. A. Goddard III,  A. Golubeva-Zadorozhnaya,  S. R. Gwaltney,  G. Hawkins,  
 A. Heyden,  S. Hirata,  G. Kedziora,  F. J. Keil,  C. Kelley,  Jihan Kim,  
 R. A. King,  R. Z. Khaliullin,  P. P. Korambath,  W. Kurlancheek,  
 A. M. Lee,  M. S. Lee,  S. V. Levchenko,  Ching Yeh Lin,  D. Liotard,  
 R. C. Lochan,  I. Lotan,  P. E. Maslen,  N. Nair,  D. P. O'Neill,  
 D. Neuhauser,  E. Neuscamman,  C. M. Oana,  R. Olson,  B. Peters,  
 R. Peverati,  P. A. Pieniazek,  Y. M. Rhee,  J. Ritchie,  M. A. Rohrdanz,  
 E. Rosta,  N. J. Russ,  H. F. Schaefer III,  N. E. Schultz,  N. Shenvi,  
 A. C. Simmonett,  A. Sodt,  D. Stuck,  K. S. Thanthiriwatte,  V. Vanovschi,  
 Tao Wang,  A. Warshel,  C. F. Williams,  Q. Wu,  X. Xu,  W. Zhang

 Please cite Q-Chem as follows:
 Y. Shao et al., Mol. Phys. 113, 184-215 (2015)
 DOI: 10.1080/00268976.2014.952696

 Q-Chem 5.0.1 for Intel X86 EM64T Linux

 Parts of Q-Chem use Armadillo 5.200.1 (Boston Tea Smuggler).
 http://arma.sourceforge.net/

 Q-Chem begins on Sat Oct 14 17:16:09 2017  

Host: r0178.ten.osc.edu
0

     Scratch files written to /tmp/pbstmp.1310453/00//
Processing $rem in /users/PAS0291/osu6415/.qchemrc.
molden_format             true

Checking the input file for inconsistencies... 	...done.

--------------------------------------------------------------
User input:
--------------------------------------------------------------
$molecule
0 1
C -0.08846163 0.81634174 0.63601901
C 0.68776002 -0.53999962 0.60330942
C -1.36915082 0.85466030 -0.17038682
C -0.14409372 -1.73383529 0.16038306
O -2.14048374 1.88786425 0.24001374
O -1.66773034 0.12848500 -1.08418485
O -1.20383860 -1.85900593 0.99835125
O 0.09210173 -2.51489578 -0.72232871
C -2.15010064 -2.88718001 0.65576575
C -3.36169867 2.09084383 -0.49663977
C 0.95625976 1.75415414 -0.04041133
C 2.14946814 1.97103333 0.91439985
C 2.89717673 0.61661485 0.75905073
C 1.96985562 -0.15673369 -0.22142825
O 1.49128838 0.91850657 -1.06328934
H -0.31893993 1.13991348 1.65025552
H 0.97998850 -0.78647307 1.62780059
H -1.66755340 -3.86543555 0.64192802
H -3.14589459 2.28035190 -1.54917614
H 2.76058324 2.80702204 0.57136511
H 1.83098296 2.18154276 1.93743517
H 3.87549682 0.75742661 0.29623542
H 3.04297478 0.08809593 1.70302069
H -2.91526075 -2.84804071 1.42841437
H -2.58127485 -2.68103353 -0.32510750
H -3.83621805 2.95598373 -0.03897087
H -4.00427700 1.21281386 -0.41567681
H 0.53201970 2.65616761 -0.47705169
C 2.66280698 -1.21109048 -1.05377692
H 3.53681302 -0.76593642 -1.53553017
H 2.99787360 -2.03648442 -0.42059363
H 1.99433878 -1.61602674 -1.80880899
$end

$rem
sym_ignore      true
jobtype         opt
method          b3lyp
basis           6-311++G(d,p)
dft_d           d3_op
mem_total       62000
MEM_STATIC      4000
ao2mo_disk      350000
max_scf_cycles  200
geom_opt_max_cycles 1000
geom_opt_tol_displacement 1
GEOM_OPT_TOL_GRADIENT       1
GEOM_OPT_TOL_ENERGY         1
$end

--------------------------------------------------------------
 Adding empirical dispersion correction 
 ----------------------------------------------------------------
 Doing -D3(op) with
 s6 =   1.00000
 s8 =   0.78311
 a1 =   0.30000
 a2 =   4.25000
 n  =  10.00000
 -D3 energy without 3body term =     -0.0356366367 hartrees
 ----------------------------------------------------------------
             Standard Nuclear Orientation (Angstroms)
    I     Atom           X                Y                Z
 ----------------------------------------------------------------
    1      C      -0.0884616300     0.8163417400     0.6360190100
    2      C       0.6877600200    -0.5399996200     0.6033094200
    3      C      -1.3691508200     0.8546603000    -0.1703868200
    4      C      -0.1440937200    -1.7338352900     0.1603830600
    5      O      -2.1404837400     1.8878642500     0.2400137400
    6      O      -1.6677303400     0.1284850000    -1.0841848500
    7      O      -1.2038386000    -1.8590059300     0.9983512500
    8      O       0.0921017300    -2.5148957800    -0.7223287100
    9      C      -2.1501006400    -2.8871800100     0.6557657500
   10      C      -3.3616986700     2.0908438300    -0.4966397700
   11      C       0.9562597600     1.7541541400    -0.0404113300
   12      C       2.1494681400     1.9710333300     0.9143998500
   13      C       2.8971767300     0.6166148500     0.7590507300
   14      C       1.9698556200    -0.1567336900    -0.2214282500
   15      O       1.4912883800     0.9185065700    -1.0632893400
   16      H      -0.3189399300     1.1399134800     1.6502555200
   17      H       0.9799885000    -0.7864730700     1.6278005900
   18      H      -1.6675534000    -3.8654355500     0.6419280200
   19      H      -3.1458945900     2.2803519000    -1.5491761400
   20      H       2.7605832400     2.8070220400     0.5713651100
   21      H       1.8309829600     2.1815427600     1.9374351700
   22      H       3.8754968200     0.7574266100     0.2962354200
   23      H       3.0429747800     0.0880959300     1.7030206900
   24      H      -2.9152607500    -2.8480407100     1.4284143700
   25      H      -2.5812748500    -2.6810335300    -0.3251075000
   26      H      -3.8362180500     2.9559837300    -0.0389708700
   27      H      -4.0042770000     1.2128138600    -0.4156768100
   28      H       0.5320197000     2.6561676100    -0.4770516900
   29      C       2.6628069800    -1.2110904800    -1.0537769200
   30      H       3.5368130200    -0.7659364200    -1.5355301700
   31      H       2.9978736000    -2.0364844200    -0.4205936300
   32      H       1.9943387800    -1.6160267400    -1.8088089900
 ----------------------------------------------------------------
 Nuclear Repulsion Energy =  1249.1468147336 hartrees
 There are       61 alpha and       61 beta electrons
 Requested basis set is 6-311++G(d,p)
 There are 176 shells and 464 basis functions

 Total QAlloc Memory Limit  62000 MB
 Mega-Array Size      3911 MB
 MEM_STATIC part      4000 MB
 A cutoff of  1.0D-11 yielded  12656 shell pairs
 There are     89620 function pairs (     95564 Cartesian)
 
 -------------------------------------------------------
 OpenMP Integral Computing Module                       
 Release: version 1.0, May 2013, Q-Chem Inc. Pittsburgh 
 -------------------------------------------------------
 Integral Job Info:
 Integral job number is                      11
 Integral operator is                         1
 short-range coefficients                     0
 long-range coefficients              100000000
 Omega coefficients                           0
 if combine SR and LR in K                    0
 Integral screening is                        0
 Integral computing path is                   2
 max size of driver memory is            800000
 size of driver memory is                593474
 size of scratch memory is              2361544
 max col of scratch BK array               1296
 max len of scratch array in speh3          155
 max len of scratch index in speh4           18
 max int batch size is                      520
 min int batch size is                       52
 fixed nKL is                                52
 max L of basis functions is                  2
 order of int derivative is                   0
 number of shells is                        176
 number of basis is                         480
 number of cartesian basis is               480
 number of contracted shell pairs         12656
 number of primitive shell pairs          28242
 maxK2 (contraction) of shell pair           36
 max number of K2 of shell pair               1
 max number of CS2 of shell pair           2374
 max number of PS2 of shell pair           4074
 mem total for path MDJ                  159528
 -------------------------------------------------------
 Smallest overlap matrix eigenvalue = 6.19E-07

 Q-Chem warning in module /fs/scratch/osu6415/qchem-kaunlao-vdw/stvman/mkSTV.C, line 281:

 Overlap eigenvalue is smaller than square root of threshold

 Linear dependence detected in AO basis
 Number of orthogonalized atomic orbitals = 463
 Maximum deviation from orthogonality = 1.382E-10

 Scale SEOQF with 1.000000e-01/1.000000e-01/1.000000e-01

 Standard Electronic Orientation quadrupole field applied
 Nucleus-field energy     =     0.0000000330 hartrees
 Guess from superposition of atomic densities
 Warning:  Energy on first SCF cycle will be non-variational
 A restricted hybrid HF-DFT SCF calculation will be
 performed using Pulay DIIS extrapolation
 Exchange:     0.2000 Hartree-Fock + 0.0800 Slater + 0.7200 B88
 Correlation:  0.1900 VWN1RPA + 0.8100 LYP
 Using SG-1 standard quadrature grid
 Dispersion:   Grimme D3
 SCF converges when DIIS error is below 1.0E-08
 using 20 threads for integral computing
 -------------------------------------------------------
 OpenMP Integral computing Module                
 Release: version 1.0, May 2013, Q-Chem Inc. Pittsburgh 
 -------------------------------------------------------
 -------------------------------------------------------
 OpenMP BLAS3 based DFT computing Module                
 Release: version 1.0, May 2013, Q-Chem Inc. Pittsburgh 
 -------------------------------------------------------
 ---------------------------------------
  Cycle       Energy         DIIS Error
 ---------------------------------------
    1    -808.4363250908      2.94E-02
    2    -804.8668584326      3.83E-03
    3    -804.3435846408      6.45E-03
    4    -805.1451255485      1.50E-03
    5    -805.1912725662      3.85E-04
    6    -805.1936189543      1.55E-04
    7    -805.1940757527      3.62E-05
    8    -805.1941006977      1.10E-05
    9    -805.1941032792      3.02E-06
   10    -805.1941034069      1.70E-06
   11    -805.1941034606      4.00E-07
   12    -805.1941034636      1.43E-07
   13    -805.1941034636      3.96E-08
   14    -805.1941034640      1.46E-08
   15    -805.1941034675      3.84E-09 Convergence criterion met
 ---------------------------------------
 SCF time:  CPU 921.64 s  wall 48.58 s
 SCF   energy in the final basis set = -805.19410347
 Total energy in the final basis set = -805.19410347
 
 --------------------------------------------------------------
 
                    Orbital Energies (a.u.)
 --------------------------------------------------------------
 
 Alpha MOs
 -- Occupied --
-19.177 -19.165 -19.128 -19.119 -19.110 -10.308 -10.303 -10.238
-10.237 -10.232 -10.222 -10.205 -10.203 -10.181 -10.177 -10.154
 -1.118  -1.107  -1.062  -1.031  -1.022  -0.831  -0.793  -0.780
 -0.748  -0.723  -0.686  -0.650  -0.603  -0.594  -0.569  -0.552
 -0.532  -0.510  -0.504  -0.490  -0.489  -0.482  -0.477  -0.471
 -0.458  -0.436  -0.425  -0.420  -0.417  -0.407  -0.394  -0.377
 -0.373  -0.369  -0.365  -0.359  -0.359  -0.349  -0.335  -0.328
 -0.319  -0.307  -0.290  -0.275  -0.271
 -- Virtual --
 -0.020  -0.010  -0.004   0.001   0.008   0.011   0.013   0.021
  0.026   0.030   0.035   0.038   0.044   0.047   0.048   0.057
  0.064   0.065   0.073   0.077   0.083   0.087   0.092   0.095
  0.097   0.102   0.105   0.108   0.112   0.115   0.120   0.122
  0.125   0.129   0.133   0.135   0.138   0.139   0.145   0.146
  0.147   0.150   0.153   0.155   0.156   0.159   0.164   0.167
  0.173   0.174   0.177   0.180   0.183   0.188   0.188   0.189
  0.195   0.203   0.205   0.207   0.212   0.214   0.220   0.225
  0.230   0.234   0.240   0.243   0.247   0.253   0.260   0.268
  0.272   0.278   0.279   0.282   0.284   0.294   0.296   0.304
  0.308   0.312   0.319   0.320   0.324   0.329   0.335   0.339
  0.346   0.348   0.352   0.358   0.363   0.365   0.370   0.372
  0.376   0.382   0.387   0.392   0.395   0.402   0.407   0.409
  0.417   0.423   0.427   0.438   0.440   0.460   0.471   0.474
  0.486   0.500   0.505   0.523   0.528   0.529   0.542   0.557
  0.568   0.574   0.581   0.588   0.598   0.607   0.612   0.619
  0.624   0.631   0.635   0.647   0.649   0.652   0.657   0.663
  0.672   0.674   0.678   0.690   0.699   0.703   0.710   0.721
  0.724   0.727   0.731   0.742   0.753   0.763   0.769   0.773
  0.775   0.778   0.790   0.801   0.817   0.823   0.829   0.855
  0.865   0.897   0.919   0.932   0.958   0.975   1.002   1.006
  1.022   1.038   1.044   1.063   1.070   1.083   1.120   1.127
  1.134   1.159   1.186   1.195   1.201   1.215   1.223   1.231
  1.239   1.246   1.255   1.271   1.291   1.292   1.311   1.322
  1.327   1.354   1.357   1.374   1.392   1.403   1.409   1.412
  1.433   1.449   1.459   1.463   1.470   1.481   1.507   1.515
  1.520   1.533   1.546   1.549   1.556   1.566   1.582   1.585
  1.594   1.600   1.604   1.623   1.627   1.637   1.656   1.663
  1.667   1.680   1.694   1.698   1.706   1.715   1.718   1.721
  1.729   1.741   1.753   1.769   1.791   1.794   1.804   1.808
  1.813   1.823   1.849   1.870   1.877   1.898   1.901   1.917
  1.935   1.942   1.953   1.986   1.999   2.006   2.011   2.025
  2.040   2.064   2.076   2.093   2.102   2.110   2.140   2.143
  2.161   2.167   2.171   2.184   2.227   2.232   2.249   2.259
  2.269   2.317   2.324   2.345   2.400   2.418   2.438   2.451
  2.462   2.467   2.490   2.501   2.504   2.516   2.518   2.531
  2.541   2.546   2.553   2.577   2.594   2.607   2.612   2.644
  2.647   2.665   2.685   2.694   2.696   2.719   2.739   2.762
  2.807   2.815   2.824   2.829   2.860   2.864   2.871   2.880
  2.891   2.902   2.905   2.939   2.969   2.978   3.008   3.014
  3.017   3.033   3.049   3.061   3.066   3.075   3.105   3.120
  3.129   3.137   3.151   3.175   3.211   3.224   3.238   3.248
  3.268   3.300   3.312   3.363   3.372   3.386   3.423   3.464
  3.585   3.598   3.611   3.660   3.684   3.724   3.772   3.792
  3.828   3.838   3.842   3.866   3.944   3.969   4.011   4.045
  4.066   4.103   4.112   4.119   4.139   4.167   4.189   4.257
  4.297   4.427   4.490   5.034   5.080   5.120   5.164   5.221
  5.281   5.306   5.384   5.422   5.496   5.631   5.638   5.648
  5.884   5.898  23.791  23.838  23.849  23.886  23.897  23.925
 23.938  23.953  23.973  23.995  24.037  49.905  49.919  49.982
 50.036  50.049
 --------------------------------------------------------------
 
          Ground-State Mulliken Net Atomic Charges

     Atom                 Charge (a.u.)
  ----------------------------------------
      1 C                     0.002631
      2 C                     0.308086
      3 C                    -0.883035
      4 C                    -0.440235
      5 O                    -0.016914
      6 O                    -0.187184
      7 O                    -0.020174
      8 O                    -0.188663
      9 C                    -0.179567
     10 C                    -0.233694
     11 C                     0.467830
     12 C                    -0.452465
     13 C                    -0.474902
     14 C                    -0.277136
     15 O                    -0.051434
     16 H                     0.287840
     17 H                     0.251684
     18 H                     0.165454
     19 H                     0.185066
     20 H                     0.184123
     21 H                     0.122085
     22 H                     0.174157
     23 H                     0.142979
     24 H                     0.149263
     25 H                     0.188771
     26 H                     0.150679
     27 H                     0.170883
     28 H                     0.278245
     29 C                    -0.335113
     30 H                     0.143484
     31 H                     0.158395
     32 H                     0.208862
  ----------------------------------------
  Sum of atomic charges =     0.000000

 -----------------------------------------------------------------
                    Cartesian Multipole Moments
 -----------------------------------------------------------------
    Charge (ESU x 10^10)
                 0.0000
    Dipole Moment (Debye)
         X      -0.8962      Y       1.9385      Z       3.3953
       Tot       4.0111
    Quadrupole Moments (Debye-Ang)
        XX     -82.9347     XY      -0.4747     YY     -91.7884
        XZ       2.6112     YZ      -4.4165     ZZ    -100.0499
    Octopole Moments (Debye-Ang^2)
       XXX     -51.7414    XXY       4.0902    XYY     -29.0837
       YYY       8.5124    XXZ      -1.7864    XYZ       9.8793
       YYZ       4.8983    XZZ      -5.1028    YZZ       0.8856
       ZZZ       0.4611
    Hexadecapole Moments (Debye-Ang^3)
      XXXX   -2143.6785   XXXY     -59.4634   XXYY    -581.0938
      XYYY      12.2655   YYYY   -1655.6840   XXXZ     -12.6022
      XXYZ     -20.6101   XYYZ       4.2169   YYYZ     -52.9802
      XXZZ    -469.4082   XYZZ     -16.2349   YYZZ    -365.0950
      XZZZ      -4.7355   YZZZ       6.7935   ZZZZ    -460.6287
 -----------------------------------------------------------------
 Calculating analytic gradient of the SCF energy
 Gradient of SCF Energy
            1           2           3           4           5           6
    1   0.0003565  -0.0001929  -0.0001957   0.0000951   0.0000153   0.0000989
    2   0.0002337   0.0000599  -0.0003176  -0.0001645   0.0000166   0.0001358
    3  -0.0003312   0.0002566   0.0001400   0.0000752   0.0000062  -0.0000927
            7           8           9          10          11          12
    1   0.0000232  -0.0000589  -0.0000416  -0.0000324  -0.0000386  -0.0000240
    2  -0.0000068   0.0001037   0.0000360   0.0000535   0.0000172  -0.0000670
    3   0.0000251  -0.0000857   0.0000419   0.0000087   0.0001969  -0.0000008
           13          14          15          16          17          18
    1  -0.0000274   0.0000470   0.0000034  -0.0000872   0.0000189   0.0000050
    2   0.0000295   0.0000087   0.0000002  -0.0000396  -0.0000063  -0.0000156
    3   0.0000512  -0.0000405  -0.0000386  -0.0000063  -0.0000128   0.0000008
           19          20          21          22          23          24
    1  -0.0000014  -0.0000084   0.0000179   0.0000248  -0.0000385   0.0000012
    2  -0.0000358  -0.0000134   0.0000532   0.0000051  -0.0000034   0.0000082
    3  -0.0000289  -0.0000622  -0.0000044   0.0000312  -0.0000065  -0.0000206
           25          26          27          28          29          30
    1   0.0000289   0.0000030   0.0000014  -0.0000116   0.0000303  -0.0000025
    2  -0.0000438  -0.0000182  -0.0000219  -0.0000098  -0.0000230   0.0000139
    3  -0.0000257  -0.0000245  -0.0000355  -0.0000346  -0.0000335   0.0000162
           31          32
    1   0.0000018  -0.0000117
    2   0.0000121  -0.0000007
    3   0.0000136   0.0000214
 Max gradient component =       3.565E-04
 RMS gradient           =       8.882E-05
 Gradient time:  CPU 308.17 s  wall 22.26 s
 Geometry Optimization Parameters
   NAtoms,    NIC,     NZ,  NCons,   NDum,   NFix, NCnnct, MaxDiis
       32     251       0       0       0       0       0       0


** GEOMETRY OPTIMIZATION IN DELOCALIZED INTERNAL COORDINATES **
   Searching for a Minimum

   Optimization Cycle:   1

                       Coordinates (Angstroms)
     ATOM                X               Y               Z
      1  C        -0.0884616300    0.8163417400    0.6360190100
      2  C         0.6877600200   -0.5399996200    0.6033094200
      3  C        -1.3691508200    0.8546603000   -0.1703868200
      4  C        -0.1440937200   -1.7338352900    0.1603830600
      5  O        -2.1404837400    1.8878642500    0.2400137400
      6  O        -1.6677303400    0.1284850000   -1.0841848500
      7  O        -1.2038386000   -1.8590059300    0.9983512500
      8  O         0.0921017300   -2.5148957800   -0.7223287100
      9  C        -2.1501006400   -2.8871800100    0.6557657500
     10  C        -3.3616986700    2.0908438300   -0.4966397700
     11  C         0.9562597600    1.7541541400   -0.0404113300
     12  C         2.1494681400    1.9710333300    0.9143998500
     13  C         2.8971767300    0.6166148500    0.7590507300
     14  C         1.9698556200   -0.1567336900   -0.2214282500
     15  O         1.4912883800    0.9185065700   -1.0632893400
     16  H        -0.3189399300    1.1399134800    1.6502555200
     17  H         0.9799885000   -0.7864730700    1.6278005900
     18  H        -1.6675534000   -3.8654355500    0.6419280200
     19  H        -3.1458945900    2.2803519000   -1.5491761400
     20  H         2.7605832400    2.8070220400    0.5713651100
     21  H         1.8309829600    2.1815427600    1.9374351700
     22  H         3.8754968200    0.7574266100    0.2962354200
     23  H         3.0429747800    0.0880959300    1.7030206900
     24  H        -2.9152607500   -2.8480407100    1.4284143700
     25  H        -2.5812748500   -2.6810335300   -0.3251075000
     26  H        -3.8362180500    2.9559837300   -0.0389708700
     27  H        -4.0042770000    1.2128138600   -0.4156768100
     28  H         0.5320197000    2.6561676100   -0.4770516900
     29  C         2.6628069800   -1.2110904800   -1.0537769200
     30  H         3.5368130200   -0.7659364200   -1.5355301700
     31  H         2.9978736000   -2.0364844200   -0.4205936300
     32  H         1.9943387800   -1.6160267400   -1.8088089900
   Point Group: c1    Number of degrees of freedom:    90


   Energy is   -805.194103467


 Attempting to Generate Delocalized Internal Coordinates

 90 Hessian modes will be used to form the next step
  Hessian Eigenvalues:
     0.002918    0.006402    0.007003    0.007339    0.007657    0.009985
     0.010280    0.010523    0.010828    0.021359    0.021849    0.022277
     0.025495    0.033695    0.035783    0.037721    0.039665    0.044646
     0.048237    0.050030    0.052891    0.055155    0.055586    0.057591
     0.058458    0.060306    0.063680    0.064675    0.065961    0.074099
     0.082396    0.093074    0.097344    0.101215    0.101547    0.102004
     0.105842    0.106082    0.121254    0.124973    0.154946    0.160000
     0.160000    0.160000    0.160000    0.160000    0.160000    0.160000
     0.160000    0.160000    0.173136    0.232066    0.239837    0.249388
     0.249559    0.249789    0.250000    0.250000    0.250000    0.250000
     0.254922    0.264677    0.277366    0.302715    0.309608    0.311995
     0.330564    0.344120    0.344778    0.344951    0.345886    0.346243
     0.346523    0.346847    0.346911    0.346954    0.347107    0.347115
     0.348979    0.350170    0.350317    0.350795    0.351979    0.354284
     0.395082    0.397614    0.535988    0.543660    1.024550    1.037792

 Minimum Search - Taking Simple RFO Step
 Searching for Lamda that Minimizes Along All modes
 Value Taken    Lamda =  -0.00000891
 Step Taken.  Stepsize is  0.031508

                             Maximum     Tolerance    Cnvgd?
         Gradient           0.000161      0.000001      NO
         Displacement       0.012498      0.000001      NO
         Energy change     *********      0.000000      NO


 New Cartesian Coordinates Obtained by Inverse Iteration

 Displacement from previous Coordinates is:  0.036814
 Adding empirical dispersion correction 
 ----------------------------------------------------------------
 Doing -D3(op) with
 s6 =   1.00000
 s8 =   0.78311
 a1 =   0.30000
 a2 =   4.25000
 n  =  10.00000
 -D3 energy without 3body term =     -0.0356286570 hartrees
 ----------------------------------------------------------------
             Standard Nuclear Orientation (Angstroms)
    I     Atom           X                Y                Z
 ----------------------------------------------------------------
    1      C      -0.0887746346     0.8165296843     0.6352832374
    2      C       0.6874702430    -0.5399346549     0.6019836947
    3      C      -1.3693941264     0.8562969115    -0.1710091337
    4      C      -0.1444033434    -1.7335772106     0.1588106539
    5      O      -2.1384714758     1.8919494188     0.2373495791
    6      O      -1.6735154874     0.1237607985    -1.0779063024
    7      O      -1.2053041980    -1.8573738284     0.9954988086
    8      O       0.0963485336    -2.5197235889    -0.7181462175
    9      C      -2.1499296835    -2.8875119249     0.6544003049
   10      C      -3.3618090039     2.0927987975    -0.4962896588
   11      C       0.9564463161     1.7538251546    -0.0414026521
   12      C       2.1483500045     1.9704822157     0.9151712371
   13      C       2.8975168824     0.6170090226     0.7583884605
   14      C       1.9702519298    -0.1569172186    -0.2217055843
   15      O       1.4921143631     0.9181352050    -1.0639262664
   16      H      -0.3180213075     1.1409395231     1.6495272859
   17      H       0.9787153687    -0.7864852842     1.6267494756
   18      H      -1.6655591132    -3.8648443258     0.6405222024
   19      H      -3.1491817134     2.2780767826    -1.5502141201
   20      H       2.7590381493     2.8079576849     0.5750345262
   21      H       1.8280340816     2.1782678323     1.9381974526
   22      H       3.8750783149     0.7593166607     0.2944825595
   23      H       3.0451624589     0.0882999323     1.7019859494
   24      H      -2.9142889180    -2.8494634970     1.4279231604
   25      H      -2.5826709193    -2.6824054473    -0.3259911677
   26      H      -3.8342430278     2.9601426287    -0.0405908981
   27      H      -4.0048185101     1.2156407601    -0.4096638609
   28      H       0.5326111433     2.6560654308    -0.4779389158
   29      C       2.6637103464    -1.2115201926    -1.0532708162
   30      H       3.5383139335    -0.7667055162    -1.5342656370
   31      H       2.9980356518    -2.0368984547    -0.4196534839
   32      H       1.9959997716    -1.6164826099    -1.8089479631
 ----------------------------------------------------------------
 Nuclear Repulsion Energy =  1249.0876667386 hartrees
 There are       61 alpha and       61 beta electrons
 Applying Cartesian multipole field
    Component          Value
    ---------          -----
     (2,0,0)        1.00000E-11
     (0,2,0)        2.00000E-11
     (0,0,2)       -3.00000E-11
 Nucleus-field energy     =     0.0000000330 hartrees
 Requested basis set is 6-311++G(d,p)
 There are 176 shells and 464 basis functions
 A cutoff of  1.0D-11 yielded  12655 shell pairs
 There are     89615 function pairs (     95558 Cartesian)
 Smallest overlap matrix eigenvalue = 6.18E-07

 Q-Chem warning in module /fs/scratch/osu6415/qchem-kaunlao-vdw/stvman/mkSTV.C, line 281:

 Overlap eigenvalue is smaller than square root of threshold

 Linear dependence detected in AO basis
 Number of orthogonalized atomic orbitals = 463
 Maximum deviation from orthogonality = 1.709E-10
 Guess MOs from SCF MO coefficient file
 Reading MOs from coefficient file
 Reading MOs from coefficient file
 A restricted hybrid HF-DFT SCF calculation will be
 performed using Pulay DIIS extrapolation
 Exchange:     0.2000 Hartree-Fock + 0.0800 Slater + 0.7200 B88
 Correlation:  0.1900 VWN1RPA + 0.8100 LYP
 Using SG-1 standard quadrature grid
 Dispersion:   Grimme D3
 SCF converges when DIIS error is below 1.0E-08
 Geometry optimization detected.  Setting ReadMinima to 0
 Setting SaveMinima to 0
 using 20 threads for integral computing
 -------------------------------------------------------
 OpenMP Integral computing Module                
 Release: version 1.0, May 2013, Q-Chem Inc. Pittsburgh 
 -------------------------------------------------------
 -------------------------------------------------------
 OpenMP BLAS3 based DFT computing Module                
 Release: version 1.0, May 2013, Q-Chem Inc. Pittsburgh 
 -------------------------------------------------------
 ---------------------------------------
  Cycle       Energy         DIIS Error
 ---------------------------------------
    1    -805.1940404505      1.05E-04
    2    -805.1940999806      7.58E-06
    3    -805.1941006395      8.95E-06
    4    -805.1941022419      2.75E-06
    5    -805.1941023535      1.33E-06
    6    -805.1941023836      5.81E-07
    7    -805.1941023895      1.69E-07
    8    -805.1941023903      3.78E-08
    9    -805.1941023905      1.36E-08
   10    -805.1941023890      8.44E-09 Convergence criterion met
 ---------------------------------------
 SCF time:  CPU 603.09 s  wall 31.56 s
 SCF   energy in the final basis set = -805.19410239
 Total energy in the final basis set = -805.19410239
 
 --------------------------------------------------------------
 
                    Orbital Energies (a.u.)
 --------------------------------------------------------------
 
 Alpha MOs
 -- Occupied --
-19.177 -19.165 -19.128 -19.119 -19.110 -10.308 -10.303 -10.238
-10.237 -10.232 -10.222 -10.205 -10.203 -10.181 -10.177 -10.154
 -1.118  -1.107  -1.062  -1.031  -1.022  -0.831  -0.793  -0.780
 -0.748  -0.723  -0.686  -0.650  -0.603  -0.594  -0.569  -0.552
 -0.532  -0.510  -0.503  -0.491  -0.489  -0.482  -0.477  -0.471
 -0.458  -0.436  -0.425  -0.420  -0.416  -0.407  -0.394  -0.377
 -0.373  -0.369  -0.365  -0.359  -0.359  -0.349  -0.335  -0.328
 -0.319  -0.307  -0.290  -0.275  -0.271
 -- Virtual --
 -0.020  -0.010  -0.004   0.001   0.008   0.011   0.013   0.021
  0.026   0.030   0.035   0.038   0.044   0.047   0.048   0.057
  0.064   0.065   0.073   0.077   0.083   0.087   0.092   0.095
  0.097   0.102   0.106   0.108   0.112   0.115   0.120   0.122
  0.125   0.129   0.133   0.135   0.138   0.139   0.145   0.146
  0.148   0.150   0.153   0.155   0.156   0.159   0.164   0.167
  0.173   0.174   0.177   0.180   0.183   0.188   0.188   0.189
  0.195   0.203   0.205   0.207   0.212   0.214   0.220   0.225
  0.230   0.234   0.240   0.242   0.247   0.253   0.260   0.268
  0.272   0.278   0.280   0.282   0.284   0.294   0.296   0.304
  0.309   0.313   0.319   0.320   0.324   0.329   0.335   0.339
  0.345   0.348   0.353   0.358   0.363   0.365   0.370   0.372
  0.376   0.382   0.387   0.392   0.395   0.402   0.407   0.409
  0.417   0.423   0.428   0.438   0.440   0.460   0.471   0.474
  0.486   0.500   0.505   0.523   0.528   0.529   0.542   0.557
  0.568   0.574   0.581   0.588   0.598   0.607   0.612   0.619
  0.624   0.631   0.635   0.647   0.649   0.651   0.657   0.663
  0.671   0.674   0.678   0.690   0.699   0.703   0.711   0.721
  0.724   0.727   0.731   0.742   0.753   0.763   0.769   0.773
  0.775   0.778   0.790   0.801   0.817   0.823   0.829   0.855
  0.865   0.897   0.919   0.932   0.958   0.975   1.002   1.006
  1.022   1.038   1.044   1.063   1.070   1.083   1.121   1.126
  1.134   1.159   1.186   1.194   1.201   1.215   1.222   1.231
  1.239   1.245   1.254   1.271   1.291   1.292   1.312   1.322
  1.327   1.355   1.357   1.375   1.392   1.403   1.409   1.411
  1.433   1.450   1.458   1.463   1.470   1.480   1.507   1.515
  1.520   1.533   1.546   1.549   1.557   1.566   1.582   1.584
  1.594   1.600   1.604   1.623   1.627   1.637   1.657   1.663
  1.666   1.680   1.694   1.698   1.706   1.715   1.718   1.721
  1.729   1.741   1.753   1.769   1.791   1.794   1.804   1.807
  1.812   1.823   1.849   1.870   1.877   1.899   1.901   1.918
  1.935   1.942   1.953   1.986   1.999   2.006   2.011   2.024
  2.039   2.064   2.077   2.092   2.102   2.110   2.140   2.143
  2.161   2.167   2.171   2.184   2.227   2.232   2.249   2.260
  2.269   2.317   2.324   2.345   2.399   2.418   2.438   2.451
  2.462   2.467   2.490   2.501   2.504   2.516   2.518   2.531
  2.541   2.546   2.553   2.577   2.594   2.607   2.612   2.644
  2.647   2.665   2.685   2.693   2.695   2.719   2.739   2.762
  2.807   2.815   2.824   2.829   2.860   2.864   2.871   2.880
  2.891   2.903   2.905   2.939   2.969   2.978   3.008   3.014
  3.017   3.033   3.049   3.061   3.066   3.076   3.106   3.120
  3.129   3.137   3.151   3.174   3.211   3.225   3.238   3.249
  3.268   3.300   3.312   3.362   3.372   3.385   3.423   3.464
  3.585   3.598   3.611   3.660   3.683   3.725   3.772   3.792
  3.828   3.837   3.842   3.865   3.944   3.968   4.011   4.045
  4.066   4.103   4.112   4.119   4.139   4.167   4.190   4.256
  4.297   4.427   4.491   5.034   5.078   5.120   5.164   5.221
  5.281   5.306   5.384   5.422   5.496   5.631   5.638   5.648
  5.883   5.898  23.791  23.837  23.849  23.886  23.897  23.925
 23.938  23.953  23.973  23.995  24.037  49.905  49.919  49.982
 50.036  50.050
 --------------------------------------------------------------
 
          Ground-State Mulliken Net Atomic Charges

     Atom                 Charge (a.u.)
  ----------------------------------------
      1 C                     0.002257
      2 C                     0.311248
      3 C                    -0.879192
      4 C                    -0.445805
      5 O                    -0.017873
      6 O                    -0.187634
      7 O                    -0.020751
      8 O                    -0.189504
      9 C                    -0.179919
     10 C                    -0.234000
     11 C                     0.465978
     12 C                    -0.450192
     13 C                    -0.475959
     14 C                    -0.272346
     15 O                    -0.051747
     16 H                     0.287910
     17 H                     0.251722
     18 H                     0.165287
     19 H                     0.185104
     20 H                     0.184234
     21 H                     0.121870
     22 H                     0.174067
     23 H                     0.143196
     24 H                     0.149172
     25 H                     0.188784
     26 H                     0.150658
     27 H                     0.170968
     28 H                     0.278453
     29 C                    -0.336783
     30 H                     0.143375
     31 H                     0.158557
     32 H                     0.208866
  ----------------------------------------
  Sum of atomic charges =     0.000000

 -----------------------------------------------------------------
                    Cartesian Multipole Moments
 -----------------------------------------------------------------
    Charge (ESU x 10^10)
                 0.0000
    Dipole Moment (Debye)
         X      -0.8974      Y       1.9551      Z       3.3853
       Tot       4.0110
    Quadrupole Moments (Debye-Ang)
        XX     -82.9575     XY      -0.4891     YY     -91.8541
        XZ       2.6187     YZ      -4.4105     ZZ     -99.9945
    Octopole Moments (Debye-Ang^2)
       XXX     -51.6731    XXY       4.1797    XYY     -29.1450
       YYY       8.7058    XXZ      -1.7382    XYZ       9.8680
       YYZ       4.8994    XZZ      -5.1686    YZZ       0.8718
       ZZZ       0.4522
    Hexadecapole Moments (Debye-Ang^3)
      XXXX   -2144.4189   XXXY     -59.3864   XXYY    -581.4030
      XYYY      12.7586   YYYY   -1658.0780   XXXZ     -12.6455
      XXYZ     -20.6280   XYYZ       4.2831   YYYZ     -53.0893
      XXZZ    -469.3062   XYZZ     -16.1531   YYZZ    -365.0939
      XZZZ      -4.6271   YZZZ       6.6234   ZZZZ    -459.4530
 -----------------------------------------------------------------
 Calculating analytic gradient of the SCF energy
 Gradient of SCF Energy
            1           2           3           4           5           6
    1  -0.0000410   0.0000280   0.0003672  -0.0002526  -0.0001911  -0.0001350
    2  -0.0000441  -0.0001995   0.0005141   0.0003912  -0.0001270  -0.0002297
    3   0.0001700   0.0002455  -0.0006597  -0.0006159   0.0002363   0.0002875
            7           8           9          10          11          12
    1   0.0001205   0.0000737  -0.0000459   0.0000020  -0.0000511  -0.0001128
    2  -0.0000609  -0.0001229   0.0000100  -0.0000013  -0.0000863  -0.0000557
    3   0.0001135   0.0002618  -0.0000277  -0.0000051  -0.0000185   0.0000745
           13          14          15          16          17          18
    1   0.0000613   0.0000322   0.0001058   0.0000178  -0.0000020   0.0000054
    2   0.0000528  -0.0000220  -0.0000898   0.0000157   0.0000766  -0.0000137
    3  -0.0000320  -0.0000302  -0.0000255   0.0000309   0.0000062   0.0000154
           19          20          21          22          23          24
    1   0.0000096  -0.0000361   0.0000061   0.0000174  -0.0000174   0.0000087
    2  -0.0000261  -0.0000004   0.0000190   0.0000203   0.0000130   0.0000053
    3  -0.0000221  -0.0000576   0.0000107   0.0000458  -0.0000031  -0.0000038
           25          26          27          28          29          30
    1   0.0000291  -0.0000011  -0.0000107  -0.0000233   0.0000073   0.0000056
    2  -0.0000381  -0.0000137  -0.0000042   0.0000049  -0.0000022  -0.0000002
    3  -0.0000136  -0.0000149  -0.0000246   0.0000091  -0.0000192   0.0000190
           31          32
    1   0.0000208   0.0000018
    2   0.0000029   0.0000120
    3   0.0000301   0.0000171
 Max gradient component =       6.597E-04
 RMS gradient           =       1.456E-04
 Gradient time:  CPU 307.39 s  wall 21.47 s
 Geometry Optimization Parameters
   NAtoms,    NIC,     NZ,  NCons,   NDum,   NFix, NCnnct, MaxDiis
       32     251       0       0       0       0       0       0

 Cartesian Hessian Update
 Hessian Updated using BFGS Update


** GEOMETRY OPTIMIZATION IN DELOCALIZED INTERNAL COORDINATES **
   Searching for a Minimum

   Optimization Cycle:   2

                       Coordinates (Angstroms)
     ATOM                X               Y               Z
      1  C        -0.0887746346    0.8165296843    0.6352832374
      2  C         0.6874702430   -0.5399346549    0.6019836947
      3  C        -1.3693941264    0.8562969115   -0.1710091337
      4  C        -0.1444033434   -1.7335772106    0.1588106539
      5  O        -2.1384714758    1.8919494188    0.2373495791
      6  O        -1.6735154874    0.1237607985   -1.0779063024
      7  O        -1.2053041980   -1.8573738284    0.9954988086
      8  O         0.0963485336   -2.5197235889   -0.7181462175
      9  C        -2.1499296835   -2.8875119249    0.6544003049
     10  C        -3.3618090039    2.0927987975   -0.4962896588
     11  C         0.9564463161    1.7538251546   -0.0414026521
     12  C         2.1483500045    1.9704822157    0.9151712371
     13  C         2.8975168824    0.6170090226    0.7583884605
     14  C         1.9702519298   -0.1569172186   -0.2217055843
     15  O         1.4921143631    0.9181352050   -1.0639262664
     16  H        -0.3180213075    1.1409395231    1.6495272859
     17  H         0.9787153687   -0.7864852842    1.6267494756
     18  H        -1.6655591132   -3.8648443258    0.6405222024
     19  H        -3.1491817134    2.2780767826   -1.5502141201
     20  H         2.7590381493    2.8079576849    0.5750345262
     21  H         1.8280340816    2.1782678323    1.9381974526
     22  H         3.8750783149    0.7593166607    0.2944825595
     23  H         3.0451624589    0.0882999323    1.7019859494
     24  H        -2.9142889180   -2.8494634970    1.4279231604
     25  H        -2.5826709193   -2.6824054473   -0.3259911677
     26  H        -3.8342430278    2.9601426287   -0.0405908981
     27  H        -4.0048185101    1.2156407601   -0.4096638609
     28  H         0.5326111433    2.6560654308   -0.4779389158
     29  C         2.6637103464   -1.2115201926   -1.0532708162
     30  H         3.5383139335   -0.7667055162   -1.5342656370
     31  H         2.9980356518   -2.0368984547   -0.4196534839
     32  H         1.9959997716   -1.6164826099   -1.8089479631
   Point Group: c1    Number of degrees of freedom:    90


   Energy is   -805.194102389

 Hessian Updated using BFGS Update

 81 Hessian modes will be used to form the next step
  Hessian Eigenvalues:
     0.002516    0.005151    0.006573    0.007166    0.007654    0.009970
     0.010273    0.010315    0.021210    0.021848    0.022212    0.025458
     0.032305    0.034121    0.037140    0.038291    0.040242    0.044971
     0.048101    0.051117    0.052853    0.055415    0.056827    0.058322
     0.058584    0.060324    0.064032    0.064693    0.065932    0.074182
     0.082506    0.093243    0.097241    0.101080    0.101480    0.101994
     0.105842    0.106097    0.121248    0.125481    0.154879    0.159758
     0.160081    0.175210    0.231231    0.239722    0.249368    0.249731
     0.249873    0.249940    0.250736    0.255078    0.264600    0.277315
     0.302700    0.309394    0.311981    0.330410    0.344115    0.344797
     0.344949    0.345892    0.346226    0.346505    0.346848    0.346905
     0.346950    0.347092    0.347117    0.349028    0.350163    0.350302
     0.350781    0.351981    0.354562    0.395068    0.397609    0.536039
     0.543696    1.024343    1.038117

 Minimum Search - Taking Simple RFO Step
 Searching for Lamda that Minimizes Along All modes
 Value Taken    Lamda =  -0.00001205
 Step Taken.  Stepsize is  0.030750

                             Maximum     Tolerance    Cnvgd?
         Gradient           0.000245      0.000001      NO
         Displacement       0.007952      0.000001      NO
         Energy change      0.000001      0.000000      NO


 New Cartesian Coordinates Obtained by Inverse Iteration

 Displacement from previous Coordinates is:  0.092458
 Adding empirical dispersion correction 
 ----------------------------------------------------------------
 Doing -D3(op) with
 s6 =   1.00000
 s8 =   0.78311
 a1 =   0.30000
 a2 =   4.25000
 n  =  10.00000
 -D3 energy without 3body term =     -0.0356339074 hartrees
 ----------------------------------------------------------------
             Standard Nuclear Orientation (Angstroms)
    I     Atom           X                Y                Z
 ----------------------------------------------------------------
    1      C      -0.0913233425     0.8131826430     0.6391972510
    2      C       0.6879901217    -0.5415508344     0.6033002251
    3      C      -1.3715999725     0.8525474445    -0.1675167728
    4      C      -0.1421996657    -1.7374515544     0.1632002292
    5      O      -2.1362230680     1.8943565259     0.2332890687
    6      O      -1.6745433939     0.1206104199    -1.0753290725
    7      O      -1.2025839984    -1.8611962168     1.0005529605
    8      O       0.0976942965    -2.5231769765    -0.7144060381
    9      C      -2.1476439277    -2.8910358283     0.6599269891
   10      C      -3.3556218145     2.0988758185    -0.5058323060
   11      C       0.9523249719     1.7534107448    -0.0362546339
   12      C       2.1451921623     1.9683106086     0.9197793623
   13      C       2.8972545542     0.6173115797     0.7555012053
   14      C       1.9679411573    -0.1556230624    -0.2232722920
   15      O       1.4868076931     0.9209146476    -1.0619087156
   16      H      -0.3205906571     1.1361677906     1.6538648223
   17      H       0.9822989531    -0.7875405940     1.6273458837
   18      H      -1.6626592811    -3.8679637988     0.6414605473
   19      H      -3.1380283412     2.2788841763    -1.5596459743
   20      H       2.7536313929     2.8090286884     0.5836421374
   21      H       1.8254129161     2.1698904164     1.9442123144
   22      H       3.8723468043     0.7636452666     0.2877126917
   23      H       3.0504185809     0.0859907084     1.6967761905
   24      H      -2.9092156871    -2.8557682859     1.4363523591
   25      H      -2.5842020848    -2.6831469073    -0.3181796682
   26      H      -3.8250276544     2.9706360601    -0.0554205848
   27      H      -4.0037492728     1.2256240561    -0.4180203633
   28      H       0.5271509967     2.6566144493    -0.4694512476
   29      C       2.6602434059    -1.2079659227    -1.0586197635
   30      H       3.5334346929    -0.7615581024    -1.5407190623
   31      H       2.9966516267    -2.0344067631    -0.4274956795
   32      H       1.9912298652    -1.6119665077    -1.8136561532
 ----------------------------------------------------------------
 Nuclear Repulsion Energy =  1249.0971787673 hartrees
 There are       61 alpha and       61 beta electrons
 Applying Cartesian multipole field
    Component          Value
    ---------          -----
     (2,0,0)        1.00000E-11
     (0,2,0)        2.00000E-11
     (0,0,2)       -3.00000E-11
 Nucleus-field energy     =     0.0000000330 hartrees
 Requested basis set is 6-311++G(d,p)
 There are 176 shells and 464 basis functions
 A cutoff of  1.0D-11 yielded  12653 shell pairs
 There are     89599 function pairs (     95542 Cartesian)
 Smallest overlap matrix eigenvalue = 6.18E-07

 Q-Chem warning in module /fs/scratch/osu6415/qchem-kaunlao-vdw/stvman/mkSTV.C, line 281:

 Overlap eigenvalue is smaller than square root of threshold

 Linear dependence detected in AO basis
 Number of orthogonalized atomic orbitals = 463
 Maximum deviation from orthogonality = 1.272E-10
 Guess MOs from SCF MO coefficient file
 Reading MOs from coefficient file
 Reading MOs from coefficient file
 A restricted hybrid HF-DFT SCF calculation will be
 performed using Pulay DIIS extrapolation
 Exchange:     0.2000 Hartree-Fock + 0.0800 Slater + 0.7200 B88
 Correlation:  0.1900 VWN1RPA + 0.8100 LYP
 Using SG-1 standard quadrature grid
 Dispersion:   Grimme D3
 SCF converges when DIIS error is below 1.0E-08
 Geometry optimization detected.  Setting ReadMinima to 0
 Setting SaveMinima to 0
 using 20 threads for integral computing
 -------------------------------------------------------
 OpenMP Integral computing Module                
 Release: version 1.0, May 2013, Q-Chem Inc. Pittsburgh 
 -------------------------------------------------------
 -------------------------------------------------------
 OpenMP BLAS3 based DFT computing Module                
 Release: version 1.0, May 2013, Q-Chem Inc. Pittsburgh 
 -------------------------------------------------------
 ---------------------------------------
  Cycle       Energy         DIIS Error
 ---------------------------------------
    1    -805.1944769788      1.09E-04
    2    -805.1941069720      1.11E-05
    3    -805.1941061393      1.45E-05
    4    -805.1941105320      3.19E-06
    5    -805.1941106926      1.29E-06
    6    -805.1941107185      6.68E-07
    7    -805.1941107276      1.85E-07
    8    -805.1941107281      4.90E-08
    9    -805.1941107292      1.57E-08
   10    -805.1941107254      6.73E-09 Convergence criterion met
 ---------------------------------------
 SCF time:  CPU 609.88 s  wall 31.75 s
 SCF   energy in the final basis set = -805.19411073
 Total energy in the final basis set = -805.19411073
 
 --------------------------------------------------------------
 
                    Orbital Energies (a.u.)
 --------------------------------------------------------------
 
 Alpha MOs
 -- Occupied --
-19.177 -19.165 -19.128 -19.119 -19.110 -10.308 -10.303 -10.238
-10.237 -10.232 -10.222 -10.205 -10.203 -10.181 -10.177 -10.154
 -1.118  -1.107  -1.062  -1.031  -1.022  -0.831  -0.793  -0.780
 -0.748  -0.723  -0.686  -0.650  -0.603  -0.594  -0.569  -0.552
 -0.532  -0.510  -0.503  -0.491  -0.489  -0.482  -0.477  -0.471
 -0.458  -0.436  -0.425  -0.420  -0.416  -0.407  -0.394  -0.377
 -0.373  -0.369  -0.365  -0.359  -0.359  -0.349  -0.335  -0.328
 -0.319  -0.307  -0.290  -0.275  -0.271
 -- Virtual --
 -0.020  -0.010  -0.004   0.001   0.008   0.011   0.013   0.021
  0.026   0.030   0.035   0.038   0.044   0.047   0.048   0.057
  0.064   0.065   0.073   0.077   0.083   0.087   0.092   0.095
  0.097   0.102   0.106   0.108   0.112   0.115   0.120   0.122
  0.125   0.129   0.133   0.135   0.138   0.139   0.145   0.146
  0.148   0.150   0.153   0.155   0.156   0.159   0.164   0.167
  0.173   0.174   0.177   0.180   0.183   0.188   0.188   0.189
  0.195   0.203   0.205   0.207   0.212   0.214   0.220   0.225
  0.230   0.234   0.240   0.242   0.247   0.253   0.260   0.268
  0.272   0.278   0.280   0.282   0.284   0.294   0.296   0.305
  0.308   0.313   0.318   0.320   0.325   0.329   0.335   0.339
  0.345   0.348   0.352   0.358   0.363   0.365   0.370   0.372
  0.376   0.382   0.387   0.393   0.395   0.402   0.407   0.409
  0.416   0.423   0.428   0.437   0.440   0.461   0.472   0.474
  0.486   0.500   0.505   0.523   0.528   0.529   0.542   0.557
  0.568   0.574   0.581   0.588   0.598   0.608   0.612   0.620
  0.624   0.631   0.634   0.647   0.649   0.651   0.657   0.663
  0.671   0.674   0.678   0.690   0.699   0.703   0.711   0.721
  0.724   0.728   0.731   0.742   0.753   0.763   0.769   0.773
  0.775   0.778   0.790   0.801   0.817   0.823   0.830   0.855
  0.864   0.897   0.920   0.932   0.958   0.974   1.002   1.006
  1.022   1.038   1.044   1.062   1.070   1.083   1.120   1.126
  1.134   1.160   1.186   1.195   1.201   1.215   1.223   1.231
  1.239   1.245   1.254   1.271   1.290   1.292   1.312   1.322
  1.327   1.355   1.358   1.374   1.392   1.403   1.409   1.412
  1.433   1.450   1.458   1.462   1.470   1.480   1.507   1.515
  1.520   1.533   1.546   1.549   1.557   1.566   1.582   1.585
  1.594   1.600   1.604   1.623   1.628   1.637   1.656   1.663
  1.666   1.680   1.694   1.698   1.706   1.715   1.718   1.721
  1.729   1.741   1.753   1.769   1.791   1.793   1.804   1.807
  1.812   1.823   1.849   1.870   1.877   1.899   1.900   1.918
  1.935   1.942   1.953   1.986   1.999   2.006   2.011   2.024
  2.039   2.064   2.076   2.092   2.102   2.110   2.140   2.143
  2.161   2.167   2.172   2.184   2.227   2.232   2.249   2.260
  2.269   2.317   2.324   2.345   2.399   2.418   2.438   2.451
  2.462   2.466   2.491   2.501   2.504   2.516   2.518   2.531
  2.541   2.546   2.553   2.577   2.594   2.607   2.612   2.644
  2.646   2.665   2.685   2.693   2.696   2.719   2.739   2.762
  2.807   2.815   2.824   2.829   2.861   2.864   2.871   2.880
  2.891   2.903   2.905   2.939   2.968   2.978   3.009   3.014
  3.017   3.033   3.049   3.061   3.066   3.076   3.106   3.120
  3.129   3.137   3.150   3.175   3.211   3.225   3.238   3.249
  3.268   3.300   3.312   3.362   3.372   3.386   3.423   3.463
  3.585   3.598   3.611   3.660   3.683   3.725   3.773   3.792
  3.828   3.837   3.842   3.865   3.944   3.968   4.011   4.045
  4.066   4.102   4.112   4.119   4.139   4.167   4.190   4.256
  4.297   4.427   4.491   5.035   5.078   5.120   5.164   5.221
  5.280   5.306   5.384   5.422   5.496   5.631   5.638   5.648
  5.883   5.898  23.791  23.837  23.848  23.886  23.896  23.925
 23.938  23.953  23.973  23.995  24.037  49.905  49.918  49.982
 50.036  50.050
 --------------------------------------------------------------
 
          Ground-State Mulliken Net Atomic Charges

     Atom                 Charge (a.u.)
  ----------------------------------------
      1 C                    -0.004774
      2 C                     0.312524
      3 C                    -0.873295
      4 C                    -0.442665
      5 O                    -0.018617
      6 O                    -0.188178
      7 O                    -0.021311
      8 O                    -0.189732
      9 C                    -0.180010
     10 C                    -0.234222
     11 C                     0.465595
     12 C                    -0.446970
     13 C                    -0.482056
     14 C                    -0.271804
     15 O                    -0.051211
     16 H                     0.287370
     17 H                     0.252113
     18 H                     0.165287
     19 H                     0.185232
     20 H                     0.184259
     21 H                     0.122044
     22 H                     0.174005
     23 H                     0.143249
     24 H                     0.149221
     25 H                     0.188562
     26 H                     0.150633
     27 H                     0.171076
     28 H                     0.278739
     29 C                    -0.335967
     30 H                     0.143239
     31 H                     0.158829
     32 H                     0.208835
  ----------------------------------------
  Sum of atomic charges =     0.000000

 -----------------------------------------------------------------
                    Cartesian Multipole Moments
 -----------------------------------------------------------------
    Charge (ESU x 10^10)
                 0.0000
    Dipole Moment (Debye)
         X      -0.8904      Y       1.9563      Z       3.3800
       Tot       4.0056
    Quadrupole Moments (Debye-Ang)
        XX     -82.9856     XY      -0.4996     YY     -91.8622
        XZ       2.6191     YZ      -4.4211     ZZ     -99.9522
    Octopole Moments (Debye-Ang^2)
       XXX     -51.3496    XXY       4.2388    XYY     -29.2016
       YYY       8.9644    XXZ      -1.9059    XYZ       9.9715
       YYZ       4.8422    XZZ      -5.1520    YZZ       0.9195
       ZZZ       0.1216
    Hexadecapole Moments (Debye-Ang^3)
      XXXX   -2140.6424   XXXY     -58.9455   XXYY    -580.9305
      XYYY      12.8640   YYYY   -1660.4076   XXXZ     -12.6819
      XXYZ     -20.6598   XYYZ       4.3465   YYYZ     -52.2124
      XXZZ    -468.4808   XYZZ     -16.0910   YYZZ    -365.8166
      XZZZ      -4.9479   YZZZ       7.6759   ZZZZ    -460.7980
 -----------------------------------------------------------------
 Calculating analytic gradient of the SCF energy
 Gradient of SCF Energy
            1           2           3           4           5           6
    1  -0.0000880   0.0001266  -0.0002089   0.0000339  -0.0000054   0.0000697
    2   0.0000961  -0.0000990  -0.0001742   0.0000825   0.0000625   0.0001219
    3   0.0000055   0.0000027   0.0002898  -0.0002004  -0.0000819  -0.0000750
            7           8           9          10          11          12
    1   0.0000210  -0.0000132  -0.0000233   0.0000255   0.0000814  -0.0001161
    2  -0.0000386  -0.0000540   0.0000414  -0.0000207  -0.0001211   0.0000036
    3   0.0000645   0.0001090  -0.0000826  -0.0000490  -0.0000166   0.0000966
           13          14          15          16          17          18
    1   0.0001218  -0.0000956   0.0000452   0.0000458  -0.0000603   0.0000138
    2   0.0000536   0.0000021  -0.0000863   0.0000758   0.0000310  -0.0000131
    3  -0.0000740  -0.0000356  -0.0000303  -0.0000237  -0.0000107   0.0000296
           19          20          21          22          23          24
    1  -0.0000058  -0.0000190  -0.0000101   0.0000002  -0.0000175   0.0000057
    2  -0.0000097   0.0000016  -0.0000058   0.0000147   0.0000240   0.0000074
    3  -0.0000177  -0.0000336   0.0000099   0.0000536   0.0000037   0.0000035
           25          26          27          28          29          30
    1   0.0000136  -0.0000007   0.0000000  -0.0000073  -0.0000098   0.0000158
    2  -0.0000292  -0.0000007  -0.0000058   0.0000286   0.0000162  -0.0000092
    3   0.0000050  -0.0000211  -0.0000035   0.0000086   0.0000019   0.0000225
           31          32
    1   0.0000377   0.0000233
    2  -0.0000125   0.0000167
    3   0.0000287   0.0000208
 Max gradient component =       2.898E-04
 RMS gradient           =       6.731E-05
 Gradient time:  CPU 307.96 s  wall 21.56 s
 Geometry Optimization Parameters
   NAtoms,    NIC,     NZ,  NCons,   NDum,   NFix, NCnnct, MaxDiis
       32     251       0       0       0       0       0       0

 Cartesian Hessian Update
 Hessian Updated using BFGS Update


** GEOMETRY OPTIMIZATION IN DELOCALIZED INTERNAL COORDINATES **
   Searching for a Minimum

   Optimization Cycle:   3

                       Coordinates (Angstroms)
     ATOM                X               Y               Z
      1  C        -0.0913233425    0.8131826430    0.6391972510
      2  C         0.6879901217   -0.5415508344    0.6033002251
      3  C        -1.3715999725    0.8525474445   -0.1675167728
      4  C        -0.1421996657   -1.7374515544    0.1632002292
      5  O        -2.1362230680    1.8943565259    0.2332890687
      6  O        -1.6745433939    0.1206104199   -1.0753290725
      7  O        -1.2025839984   -1.8611962168    1.0005529605
      8  O         0.0976942965   -2.5231769765   -0.7144060381
      9  C        -2.1476439277   -2.8910358283    0.6599269891
     10  C        -3.3556218145    2.0988758185   -0.5058323060
     11  C         0.9523249719    1.7534107448   -0.0362546339
     12  C         2.1451921623    1.9683106086    0.9197793623
     13  C         2.8972545542    0.6173115797    0.7555012053
     14  C         1.9679411573   -0.1556230624   -0.2232722920
     15  O         1.4868076931    0.9209146476   -1.0619087156
     16  H        -0.3205906571    1.1361677906    1.6538648223
     17  H         0.9822989531   -0.7875405940    1.6273458837
     18  H        -1.6626592811   -3.8679637988    0.6414605473
     19  H        -3.1380283412    2.2788841763   -1.5596459743
     20  H         2.7536313929    2.8090286884    0.5836421374
     21  H         1.8254129161    2.1698904164    1.9442123144
     22  H         3.8723468043    0.7636452666    0.2877126917
     23  H         3.0504185809    0.0859907084    1.6967761905
     24  H        -2.9092156871   -2.8557682859    1.4363523591
     25  H        -2.5842020848   -2.6831469073   -0.3181796682
     26  H        -3.8250276544    2.9706360601   -0.0554205848
     27  H        -4.0037492728    1.2256240561   -0.4180203633
     28  H         0.5271509967    2.6566144493   -0.4694512476
     29  C         2.6602434059   -1.2079659227   -1.0586197635
     30  H         3.5334346929   -0.7615581024   -1.5407190623
     31  H         2.9966516267   -2.0344067631   -0.4274956795
     32  H         1.9912298652   -1.6119665077   -1.8136561532
   Point Group: c1    Number of degrees of freedom:    90


   Energy is   -805.194110725

 Hessian Updated using BFGS Update

 82 Hessian modes will be used to form the next step
  Hessian Eigenvalues:
     0.002113    0.005749    0.006494    0.007111    0.007654    0.009927
     0.010198    0.010293    0.021213    0.021848    0.022223    0.025493
     0.033643    0.035579    0.037311    0.038778    0.042969    0.047696
     0.049008    0.050403    0.052971    0.055447    0.055794    0.058406
     0.058795    0.060336    0.064404    0.064919    0.066364    0.074200
     0.082809    0.093079    0.097518    0.101088    0.101484    0.103014
     0.105846    0.106024    0.121409    0.124925    0.155337    0.159652
     0.160005    0.160351    0.173240    0.231347    0.241433    0.249342
     0.249495    0.249842    0.249949    0.250008    0.250788    0.254572
     0.264581    0.277307    0.302710    0.309374    0.311981    0.330023
     0.344138    0.344801    0.344949    0.345886    0.346208    0.346533
     0.346855    0.346905    0.346950    0.347087    0.347117    0.349062
     0.350179    0.350304    0.350783    0.352006    0.353942    0.395061
     0.397586    0.543516    1.024127    1.037562

 Minimum Search - Taking Simple RFO Step
 Searching for Lamda that Minimizes Along All modes
 Value Taken    Lamda =  -0.00000623
 Step Taken.  Stepsize is  0.032192

                             Maximum     Tolerance    Cnvgd?
         Gradient           0.000110      0.000001      NO
         Displacement       0.008015      0.000001      NO
         Energy change     -0.000008      0.000000      NO


 New Cartesian Coordinates Obtained by Inverse Iteration

 Displacement from previous Coordinates is:  0.077921
 Adding empirical dispersion correction 
 ----------------------------------------------------------------
 Doing -D3(op) with
 s6 =   1.00000
 s8 =   0.78311
 a1 =   0.30000
 a2 =   4.25000
 n  =  10.00000
 -D3 energy without 3body term =     -0.0356417232 hartrees
 ----------------------------------------------------------------
             Standard Nuclear Orientation (Angstroms)
    I     Atom           X                Y                Z
 ----------------------------------------------------------------
    1      C      -0.0918611209     0.8138320462     0.6397043199
    2      C       0.6881986301    -0.5401577659     0.6040121990
    3      C      -1.3687470496     0.8531652720    -0.1722483924
    4      C      -0.1418893443    -1.7371452698     0.1667212268
    5      O      -2.1366569920     1.8926854828     0.2281093906
    6      O      -1.6689883409     0.1199623089    -1.0799755161
    7      O      -1.2002028291    -1.8615945211     1.0065916576
    8      O       0.0939724257    -2.5197388752    -0.7148112747
    9      C      -2.1471405998    -2.8899343014     0.6667249672
   10      C      -3.3550260366     2.0952855074    -0.5132527362
   11      C       0.9533304919     1.7559322977    -0.0309925603
   12      C       2.1470951976     1.9657011345     0.9254515953
   13      C       2.8982720471     0.6149316395     0.7550148464
   14      C       1.9666661394    -0.1537804650    -0.2245066127
   15      O       1.4862027071     0.9261204563    -1.0594678390
   16      H      -0.3253132042     1.1346182573     1.6541135375
   17      H       0.9846278838    -0.7853800394     1.6276893497
   18      H      -1.6625086746    -3.8668614236     0.6416634725
   19      H      -3.1355594894     2.2781932787    -1.5661768277
   20      H       2.7561396688     2.8075241168     0.5931997248
   21      H       1.8278143280     2.1629190233     1.9508766889
   22      H       3.8722893214     0.7623638764     0.2853005793
   23      H       3.0533303983     0.0801494152     1.6940481539
   24      H      -2.9048317264    -2.8577185646     1.4470771806
   25      H      -2.5886201719    -2.6777573182    -0.3082663653
   26      H      -3.8279580763     2.9647352098    -0.0620642770
   27      H      -4.0008360848     1.2199906521    -0.4287914902
   28      H       0.5293792458     2.6610890784    -0.4612216573
   29      C       2.6558744974    -1.2050196070    -1.0637824839
   30      H       3.5289631934    -0.7587580353    -1.5462109511
   31      H       2.9918405576    -2.0336606581    -0.4353857296
   32      H       1.9849550376    -1.6060415185    -1.8187582664
 ----------------------------------------------------------------
 Nuclear Repulsion Energy =  1249.1833329293 hartrees
 There are       61 alpha and       61 beta electrons
 Applying Cartesian multipole field
    Component          Value
    ---------          -----
     (2,0,0)        1.00000E-11
     (0,2,0)        2.00000E-11
     (0,0,2)       -3.00000E-11
 Nucleus-field energy     =     0.0000000329 hartrees
 Requested basis set is 6-311++G(d,p)
 There are 176 shells and 464 basis functions
 A cutoff of  1.0D-11 yielded  12658 shell pairs
 There are     89646 function pairs (     95596 Cartesian)
 Smallest overlap matrix eigenvalue = 6.15E-07

 Q-Chem warning in module /fs/scratch/osu6415/qchem-kaunlao-vdw/stvman/mkSTV.C, line 281:

 Overlap eigenvalue is smaller than square root of threshold

 Linear dependence detected in AO basis
 Number of orthogonalized atomic orbitals = 463
 Maximum deviation from orthogonality = 1.124E-10
 Guess MOs from SCF MO coefficient file
 Reading MOs from coefficient file
 Reading MOs from coefficient file
 A restricted hybrid HF-DFT SCF calculation will be
 performed using Pulay DIIS extrapolation
 Exchange:     0.2000 Hartree-Fock + 0.0800 Slater + 0.7200 B88
 Correlation:  0.1900 VWN1RPA + 0.8100 LYP
 Using SG-1 standard quadrature grid
 Dispersion:   Grimme D3
 SCF converges when DIIS error is below 1.0E-08
 Geometry optimization detected.  Setting ReadMinima to 0
 Setting SaveMinima to 0
 using 20 threads for integral computing
 -------------------------------------------------------
 OpenMP Integral computing Module                
 Release: version 1.0, May 2013, Q-Chem Inc. Pittsburgh 
 -------------------------------------------------------
 -------------------------------------------------------
 OpenMP BLAS3 based DFT computing Module                
 Release: version 1.0, May 2013, Q-Chem Inc. Pittsburgh 
 -------------------------------------------------------
 ---------------------------------------
  Cycle       Energy         DIIS Error
 ---------------------------------------
    1    -805.1956132826      1.22E-04
    2    -805.1941000151      1.67E-05
    3    -805.1940949448      2.33E-05
    4    -805.1941075290      4.08E-06
    5    -805.1941077717      1.92E-06
    6    -805.1941078390      6.56E-07
    7    -805.1941078460      2.33E-07
    8    -805.1941078475      6.95E-08
    9    -805.1941078477      1.72E-08
   10    -805.1941078449      8.87E-09 Convergence criterion met
 ---------------------------------------
 SCF time:  CPU 613.26 s  wall 31.88 s
 SCF   energy in the final basis set = -805.19410784
 Total energy in the final basis set = -805.19410784
 
 --------------------------------------------------------------
 
                    Orbital Energies (a.u.)
 --------------------------------------------------------------
 
 Alpha MOs
 -- Occupied --
-19.177 -19.165 -19.128 -19.119 -19.110 -10.308 -10.303 -10.238
-10.237 -10.232 -10.222 -10.205 -10.203 -10.181 -10.177 -10.154
 -1.118  -1.107  -1.062  -1.031  -1.022  -0.831  -0.793  -0.780
 -0.748  -0.723  -0.686  -0.650  -0.603  -0.594  -0.569  -0.552
 -0.532  -0.510  -0.503  -0.490  -0.489  -0.482  -0.477  -0.471
 -0.458  -0.436  -0.425  -0.420  -0.416  -0.407  -0.394  -0.377
 -0.373  -0.369  -0.365  -0.359  -0.359  -0.349  -0.335  -0.328
 -0.319  -0.307  -0.290  -0.275  -0.271
 -- Virtual --
 -0.020  -0.010  -0.004   0.001   0.008   0.011   0.013   0.022
  0.026   0.030   0.035   0.038   0.044   0.047   0.048   0.057
  0.064   0.065   0.073   0.077   0.083   0.087   0.092   0.095
  0.097   0.102   0.106   0.108   0.112   0.115   0.120   0.122
  0.125   0.129   0.133   0.135   0.138   0.139   0.145   0.146
  0.148   0.150   0.153   0.154   0.156   0.159   0.164   0.167
  0.173   0.174   0.177   0.180   0.183   0.188   0.188   0.189
  0.195   0.203   0.205   0.207   0.212   0.214   0.220   0.225
  0.230   0.234   0.240   0.243   0.247   0.253   0.260   0.268
  0.272   0.278   0.280   0.282   0.284   0.294   0.296   0.305
  0.308   0.312   0.318   0.320   0.325   0.329   0.335   0.339
  0.346   0.348   0.352   0.358   0.363   0.365   0.370   0.372
  0.376   0.382   0.387   0.393   0.395   0.402   0.408   0.409
  0.417   0.423   0.427   0.437   0.440   0.460   0.472   0.473
  0.486   0.500   0.505   0.523   0.528   0.529   0.542   0.557
  0.568   0.574   0.580   0.588   0.598   0.607   0.612   0.620
  0.624   0.631   0.635   0.647   0.649   0.652   0.656   0.663
  0.671   0.674   0.677   0.690   0.699   0.703   0.711   0.721
  0.724   0.728   0.731   0.742   0.753   0.763   0.769   0.773
  0.775   0.778   0.790   0.801   0.817   0.823   0.830   0.855
  0.864   0.897   0.920   0.932   0.957   0.974   1.002   1.006
  1.022   1.037   1.044   1.063   1.071   1.083   1.121   1.127
  1.134   1.160   1.186   1.195   1.202   1.215   1.222   1.231
  1.239   1.244   1.254   1.270   1.290   1.292   1.311   1.322
  1.327   1.354   1.358   1.374   1.392   1.402   1.409   1.412
  1.433   1.450   1.458   1.462   1.470   1.480   1.507   1.515
  1.519   1.533   1.546   1.549   1.557   1.566   1.582   1.585
  1.594   1.600   1.605   1.623   1.628   1.637   1.656   1.663
  1.667   1.681   1.694   1.698   1.706   1.715   1.718   1.721
  1.729   1.741   1.753   1.769   1.791   1.794   1.804   1.807
  1.812   1.823   1.849   1.869   1.877   1.900   1.901   1.917
  1.935   1.942   1.952   1.986   1.999   2.006   2.011   2.024
  2.040   2.064   2.076   2.092   2.102   2.110   2.140   2.143
  2.161   2.167   2.172   2.184   2.227   2.232   2.249   2.260
  2.269   2.317   2.324   2.345   2.399   2.417   2.438   2.451
  2.462   2.467   2.491   2.501   2.504   2.516   2.518   2.531
  2.541   2.546   2.553   2.578   2.594   2.607   2.613   2.644
  2.646   2.665   2.685   2.693   2.695   2.719   2.740   2.762
  2.807   2.815   2.824   2.829   2.860   2.864   2.871   2.880
  2.891   2.902   2.905   2.938   2.968   2.979   3.009   3.014
  3.017   3.034   3.049   3.061   3.066   3.076   3.106   3.120
  3.130   3.136   3.149   3.175   3.211   3.225   3.238   3.249
  3.269   3.300   3.313   3.362   3.373   3.386   3.423   3.463
  3.585   3.598   3.611   3.660   3.684   3.725   3.773   3.792
  3.828   3.838   3.842   3.865   3.943   3.968   4.011   4.045
  4.066   4.102   4.113   4.119   4.139   4.167   4.189   4.256
  4.298   4.427   4.491   5.035   5.079   5.120   5.163   5.221
  5.280   5.307   5.384   5.422   5.496   5.631   5.638   5.648
  5.884   5.898  23.792  23.837  23.849  23.886  23.896  23.925
 23.938  23.953  23.973  23.995  24.037  49.905  49.919  49.983
 50.036  50.049
 --------------------------------------------------------------
 
          Ground-State Mulliken Net Atomic Charges

     Atom                 Charge (a.u.)
  ----------------------------------------
      1 C                    -0.007254
      2 C                     0.313965
      3 C                    -0.874167
      4 C                    -0.441241
      5 O                    -0.018188
      6 O                    -0.187479
      7 O                    -0.020731
      8 O                    -0.189397
      9 C                    -0.179025
     10 C                    -0.234412
     11 C                     0.466656
     12 C                    -0.447867
     13 C                    -0.485328
     14 C                    -0.272937
     15 O                    -0.051046
     16 H                     0.287685
     17 H                     0.252146
     18 H                     0.165285
     19 H                     0.185215
     20 H                     0.184295
     21 H                     0.122211
     22 H                     0.173975
     23 H                     0.143262
     24 H                     0.149334
     25 H                     0.188169
     26 H                     0.150587
     27 H                     0.171016
     28 H                     0.278475
     29 C                    -0.334310
     30 H                     0.143166
     31 H                     0.159020
     32 H                     0.208919
  ----------------------------------------
  Sum of atomic charges =     0.000000

 -----------------------------------------------------------------
                    Cartesian Multipole Moments
 -----------------------------------------------------------------
    Charge (ESU x 10^10)
                 0.0000
    Dipole Moment (Debye)
         X      -0.8916      Y       1.9471      Z       3.3824
       Tot       4.0033
    Quadrupole Moments (Debye-Ang)
        XX     -82.9702     XY      -0.5062     YY     -91.8514
        XZ       2.6206     YZ      -4.4272     ZZ     -99.9558
    Octopole Moments (Debye-Ang^2)
       XXX     -51.4891    XXY       4.1375    XYY     -29.1276
       YYY       8.7187    XXZ      -1.9820    XYZ      10.0811
       YYZ       4.8977    XZZ      -5.1849    YZZ       0.8986
       ZZZ       0.0836
    Hexadecapole Moments (Debye-Ang^3)
      XXXX   -2138.9921   XXXY     -59.5156   XXYY    -580.4776
      XYYY      12.1420   YYYY   -1657.9549   XXXZ     -13.0039
      XXYZ     -20.5592   XYYZ       4.0827   YYYZ     -51.3072
      XXZZ    -468.3695   XYZZ     -16.4209   YYZZ    -365.8649
      XZZZ      -5.7749   YZZZ       8.5492   ZZZZ    -463.0966
 -----------------------------------------------------------------
 Calculating analytic gradient of the SCF energy
 Gradient of SCF Energy
            1           2           3           4           5           6
    1  -0.0002691   0.0001154   0.0001821   0.0002985  -0.0000566  -0.0000094
    2  -0.0001456   0.0001378   0.0002370  -0.0003192  -0.0000800  -0.0000718
    3  -0.0000318  -0.0000550  -0.0001327   0.0004809   0.0000586  -0.0000495
            7           8           9          10          11          12
    1  -0.0000782  -0.0001003  -0.0000037   0.0000142   0.0000932  -0.0000270
    2  -0.0000102   0.0001281   0.0000486  -0.0000201   0.0000510   0.0000160
    3  -0.0000252  -0.0002202  -0.0000455  -0.0000370  -0.0000391   0.0000206
           13          14          15          16          17          18
    1   0.0000694  -0.0002066  -0.0000919   0.0000806  -0.0000324   0.0000109
    2  -0.0000074   0.0000637   0.0000866   0.0000529  -0.0000866  -0.0000115
    3   0.0000174  -0.0000285   0.0000597  -0.0000216  -0.0000130   0.0000279
           19          20          21          22          23          24
    1   0.0000046   0.0000094  -0.0000123  -0.0000164  -0.0000233  -0.0000073
    2  -0.0000090  -0.0000058  -0.0000003  -0.0000166  -0.0000012   0.0000048
    3  -0.0000113  -0.0000065  -0.0000185   0.0000212   0.0000167  -0.0000050
           25          26          27          28          29          30
    1   0.0000058  -0.0000085  -0.0000067   0.0000103  -0.0000016   0.0000129
    2  -0.0000085  -0.0000038  -0.0000031  -0.0000034  -0.0000135  -0.0000032
    3   0.0000145  -0.0000214  -0.0000080  -0.0000264   0.0000334   0.0000208
           31          32
    1   0.0000181   0.0000257
    2  -0.0000115   0.0000056
    3   0.0000111   0.0000135
 Max gradient component =       4.809E-04
 RMS gradient           =       9.585E-05
 Gradient time:  CPU 309.92 s  wall 21.80 s
 Geometry Optimization Parameters
   NAtoms,    NIC,     NZ,  NCons,   NDum,   NFix, NCnnct, MaxDiis
       32     251       0       0       0       0       0       0

 Cartesian Hessian Update
 Hessian Updated using BFGS Update


** GEOMETRY OPTIMIZATION IN DELOCALIZED INTERNAL COORDINATES **
   Searching for a Minimum

   Optimization Cycle:   4

                       Coordinates (Angstroms)
     ATOM                X               Y               Z
      1  C        -0.0918611209    0.8138320462    0.6397043199
      2  C         0.6881986301   -0.5401577659    0.6040121990
      3  C        -1.3687470496    0.8531652720   -0.1722483924
      4  C        -0.1418893443   -1.7371452698    0.1667212268
      5  O        -2.1366569920    1.8926854828    0.2281093906
      6  O        -1.6689883409    0.1199623089   -1.0799755161
      7  O        -1.2002028291   -1.8615945211    1.0065916576
      8  O         0.0939724257   -2.5197388752   -0.7148112747
      9  C        -2.1471405998   -2.8899343014    0.6667249672
     10  C        -3.3550260366    2.0952855074   -0.5132527362
     11  C         0.9533304919    1.7559322977   -0.0309925603
     12  C         2.1470951976    1.9657011345    0.9254515953
     13  C         2.8982720471    0.6149316395    0.7550148464
     14  C         1.9666661394   -0.1537804650   -0.2245066127
     15  O         1.4862027071    0.9261204563   -1.0594678390
     16  H        -0.3253132042    1.1346182573    1.6541135375
     17  H         0.9846278838   -0.7853800394    1.6276893497
     18  H        -1.6625086746   -3.8668614236    0.6416634725
     19  H        -3.1355594894    2.2781932787   -1.5661768277
     20  H         2.7561396688    2.8075241168    0.5931997248
     21  H         1.8278143280    2.1629190233    1.9508766889
     22  H         3.8722893214    0.7623638764    0.2853005793
     23  H         3.0533303983    0.0801494152    1.6940481539
     24  H        -2.9048317264   -2.8577185646    1.4470771806
     25  H        -2.5886201719   -2.6777573182   -0.3082663653
     26  H        -3.8279580763    2.9647352098   -0.0620642770
     27  H        -4.0008360848    1.2199906521   -0.4287914902
     28  H         0.5293792458    2.6610890784   -0.4612216573
     29  C         2.6558744974   -1.2050196070   -1.0637824839
     30  H         3.5289631934   -0.7587580353   -1.5462109511
     31  H         2.9918405576   -2.0336606581   -0.4353857296
     32  H         1.9849550376   -1.6060415185   -1.8187582664
   Point Group: c1    Number of degrees of freedom:    90


   Energy is   -805.194107845

 Hessian Updated using BFGS Update

 85 Hessian modes will be used to form the next step
  Hessian Eigenvalues:
     0.002012    0.005877    0.006532    0.006854    0.007664    0.009744
     0.010287    0.020212    0.021842    0.022028    0.022248    0.025788
     0.033825    0.035223    0.037137    0.038636    0.044575    0.047186
     0.048278    0.050945    0.052665    0.055631    0.057483    0.058451
     0.058996    0.060288    0.064402    0.065470    0.066040    0.074094
     0.082879    0.093174    0.097219    0.101083    0.101485    0.102698
     0.105822    0.105949    0.122272    0.126170    0.155010    0.159559
     0.159909    0.160056    0.160191    0.175489    0.231305    0.239092
     0.248382    0.249459    0.249865    0.249971    0.249995    0.250127
     0.250979    0.254034    0.264436    0.277308    0.302707    0.309705
     0.312008    0.331162    0.343987    0.344694    0.344949    0.345926
     0.346217    0.346496    0.346828    0.346905    0.346951    0.347058
     0.347117    0.349061    0.350139    0.350303    0.350782    0.351923
     0.355672    0.395046    0.397645    0.536208    0.543557    1.024966
     1.038118

 Minimum Search - Taking Simple RFO Step
 Searching for Lamda that Minimizes Along All modes
 Value Taken    Lamda =  -0.00000521
 Step Taken.  Stepsize is  0.014184

                             Maximum     Tolerance    Cnvgd?
         Gradient           0.000143      0.000001      NO
         Displacement       0.005869      0.000001      NO
         Energy change      0.000003      0.000000      NO


 New Cartesian Coordinates Obtained by Inverse Iteration

 Displacement from previous Coordinates is:  0.033986
[...]
     0.00000147      0.00001159     -0.00002477
    -0.00003108     -0.00000384     -0.00001677
    -0.00003637     -0.00006691      0.00011989
    -0.00023342      0.00029600      0.00037674
    -0.00105609     -0.00146108     -0.00066986
     0.00016531     -0.00001178      0.00015121
     0.00047602     -0.00238545      0.00073371
     0.00724332      0.02976756      0.02303769
    -0.00757132     -0.00165429      0.00300082
    -0.00065461     -0.00019376     -0.00036987
     0.00015317     -0.00019390      0.00010093
     0.01487505     -0.01826137     -0.06429968
     0.22795317     -0.16653760      0.76131075
    -0.01166456      0.02271438      0.00034890
     0.00066829      0.00055265     -0.00319307
    -0.20876732     -0.27996638      0.12393006
     0.12694024     -0.06278522     -0.39301326
     0.09044835      0.01383153     -0.04274645
    -0.00095746     -0.00177340      0.00769388
     0.01276153     -0.00067695     -0.01367111
     0.01089080     -0.00492519      0.02282189
    -0.00093502      0.00183198      0.00096602
    -0.00158198     -0.00219295      0.00024875
    -0.01028853      0.02562485     -0.00953464
    -0.00304229      0.00205615      0.00132060
     0.04022430      0.02062567     -0.02286304
     0.01361153     -0.03428451      0.02523843
    -0.01712189     -0.00925009     -0.01758265
vibration 80
    -0.00145781      0.00242197      0.00753382
    -0.00651786      0.00539963     -0.02388982
     0.00007984      0.00002840      0.00028870
     0.00005426      0.00008430     -0.00057256
    -0.00005064      0.00001793     -0.00000789
    -0.00005397     -0.00004584     -0.00006048
    -0.00006753     -0.00008321      0.00004185
    -0.00006551      0.00004183      0.00006490
    -0.00001486     -0.00010526      0.00011317
     0.00047882      0.00005216      0.00051637
    -0.00082966      0.00374635     -0.00174196
    -0.00487799     -0.03013587     -0.02706956
    -0.04703174      0.01317056     -0.01361010
    -0.00010980      0.00087201      0.00045302
     0.00004519     -0.00006130      0.00030435
     0.01832207     -0.02727932     -0.08877211
     0.08582343     -0.06225530      0.28687472
    -0.00051660      0.00094756     -0.00005135
     0.00201059      0.00166531     -0.00930343
     0.20041362      0.26904074     -0.12075934
    -0.14115946      0.07174497      0.43678461
     0.49048983      0.08458350     -0.25125724
     0.05097057     -0.23220612      0.41086437
     0.00038348     -0.00012010     -0.00058135
     0.00002423      0.00022003     -0.00029756
    -0.00235838      0.00438017      0.00229359
    -0.00501180     -0.00678119      0.00078309
     0.02033046     -0.04844155      0.02046641
    -0.00406411      0.00303295      0.00148871
     0.05251946      0.02699799     -0.02994315
     0.01922194     -0.04946891      0.03656898
    -0.02291188     -0.01389525     -0.02649380
vibration 81
     0.00194456     -0.00272110     -0.00920766
    -0.00220414      0.00187023     -0.00736633
     0.00025675     -0.00017798     -0.00015946
     0.00003982     -0.00022464     -0.00030528
    -0.00002654      0.00000763      0.00002472
    -0.00002102      0.00004402      0.00001975
     0.00000245      0.00000915      0.00002638
    -0.00007647      0.00011764      0.00009590
    -0.00002303     -0.00012234      0.00004081
    -0.00001275      0.00000889      0.00006413
    -0.00351319      0.00614573     -0.00255628
    -0.03725325     -0.03057422      0.04937209
     0.02712327      0.02451928     -0.05040977
     0.00052889      0.00050570     -0.00035303
     0.00000019     -0.00011486      0.00004216
    -0.02144429      0.03418651      0.10793417
     0.02618304     -0.02053369      0.09163632
    -0.00064500      0.00136550      0.00001563
     0.00015168      0.00004459     -0.00038866
     0.32051829      0.43913389     -0.17288670
     0.12444746     -0.07852851     -0.41493096
    -0.39200057     -0.06090807      0.18641417
     0.06698120     -0.23233372      0.41388534
     0.00064510     -0.00002876     -0.00068636
     0.00015134      0.00005606      0.00012795
    -0.00000599     -0.00003732     -0.00002355
    -0.00001831     -0.00000069     -0.00003176
     0.03468710     -0.07421941      0.03429639
    -0.00357596     -0.00994184      0.00734419
     0.06926708      0.03557919     -0.03615786
    -0.03425319      0.08138589     -0.06179046
     0.00597393      0.00137841      0.01044784
vibration 82
    -0.00318577      0.00458101      0.01499560
     0.00068560     -0.00040989      0.00069081
    -0.00027029      0.00022407      0.00024057
     0.00023490     -0.00040954     -0.00037521
     0.00001332     -0.00002148     -0.00002359
    -0.00001329     -0.00006199     -0.00006499
    -0.00007110      0.00000321      0.00008035
    -0.00017598      0.00022925      0.00012822
    -0.00015485      0.00027722      0.00000524
     0.00017995      0.00008930     -0.00006992
     0.00186192     -0.00318471      0.00161246
     0.01390389      0.01099452     -0.01858413
     0.00643100      0.00536893     -0.01108198
    -0.00054755     -0.00080721      0.00135705
    -0.00007821      0.00029280     -0.00023319
     0.03760553     -0.05511250     -0.17802547
    -0.00394914      0.00312086     -0.01320855
     0.00160954     -0.00310489     -0.00016361
    -0.00017732      0.00002612      0.00018294
    -0.11721739     -0.16149003      0.06348284
    -0.04791447      0.03037165      0.15681632
    -0.09067783     -0.01283925      0.04528109
     0.01458177     -0.04982976      0.08497331
     0.00045479      0.00004133     -0.00051790
     0.00015250     -0.00015394      0.00044595
    -0.00027021      0.00061633      0.00033703
    -0.00141836     -0.00194362      0.00021907
    -0.01898717      0.04013623     -0.01860929
    -0.02258761     -0.06392322      0.05307276
     0.49234403      0.24692277     -0.26306221
    -0.22388424      0.52797167     -0.39830510
     0.00397425     -0.00975044      0.02349418
vibration 83
     0.01329636     -0.01951897     -0.06211202
    -0.00145496      0.00158443     -0.00437197
     0.00101215     -0.00104233     -0.00098716
     0.00031143      0.00042181     -0.00017106
    -0.00011504      0.00017055      0.00013181
     0.00010051      0.00042964      0.00032085
    -0.00013515     -0.00006018      0.00008263
    -0.00007019     -0.00003317     -0.00002157
    -0.00015740      0.00017038      0.00012071
    -0.00048695      0.00006899      0.00004050
    -0.00387763      0.00665800     -0.00363694
    -0.01183730     -0.01070332      0.01380582
    -0.02125958     -0.01714980      0.03551195
    -0.00112914     -0.00075558      0.00106080
    -0.00006884      0.00039161      0.00010821
    -0.15709359      0.22818437      0.73537760
     0.01900141     -0.01381157      0.05396455
     0.00095623     -0.00174867     -0.00001936
    -0.00010126     -0.00062916      0.00291962
     0.10794011      0.15045862     -0.05872199
     0.03291805     -0.02193770     -0.10490499
     0.30341043      0.04694497     -0.14430621
    -0.04624906      0.15787335     -0.27903896
     0.00088195     -0.00014095     -0.00105748
    -0.00002190      0.00010752     -0.00007691
     0.00151015     -0.00318777     -0.00181506
     0.00303103      0.00396208     -0.00048310
     0.03976099     -0.08271823      0.03822441
    -0.00714674     -0.02026242      0.01780612
     0.16459432      0.08158713     -0.08874721
    -0.07143291      0.16799059     -0.12644117
    -0.00481833     -0.00649093      0.00018137
vibration 84
     0.00923540     -0.01384203     -0.04366931
    -0.00291044      0.00253932     -0.00878972
     0.00063866     -0.00084010     -0.00063445
     0.00004512      0.00002512     -0.00022675
    -0.00003813      0.00014388      0.00010489
     0.00011792      0.00032319      0.00028619
    -0.00002710     -0.00000226      0.00004646
    -0.00003948      0.00006893      0.00010534
     0.00008235     -0.00037489      0.00028966
    -0.00086422     -0.00051139      0.00054572
     0.00202943     -0.00342977      0.00012270
     0.02876628      0.01999541     -0.04260680
     0.02404223      0.02081107     -0.04267151
     0.00024027      0.00126426     -0.00100354
    -0.00026161     -0.00007287      0.00078649
    -0.11299651      0.16017844      0.51913244
     0.03271465     -0.02691761      0.11110742
    -0.00193302      0.00393401      0.00018644
     0.00122880      0.00041592     -0.00361532
    -0.22723341     -0.31463981      0.12314895
    -0.11842630      0.07479178      0.38746859
    -0.34859433     -0.05269600      0.16679597
     0.05704054     -0.19568885      0.34412008
     0.00129617     -0.00016764     -0.00134298
    -0.00073452      0.00057495     -0.00196408
     0.00118948     -0.00268383     -0.00132932
     0.00671045      0.00912621     -0.00087328
    -0.01438610      0.03315091     -0.01522882
     0.00335234      0.00929823     -0.00853652
    -0.07910416     -0.03869872      0.04305453
     0.03336338     -0.07805655      0.05820909
     0.00394623      0.00409672      0.00247693
vibration 85
     0.00026403     -0.00008813     -0.00083551
    -0.00008572      0.00006983     -0.00020805
    -0.00009193     -0.00012975      0.00013917
     0.00007173      0.00001545     -0.00001295
    -0.00017633     -0.00026318      0.00028967
    -0.00007065     -0.00007206      0.00008288
    -0.00001505     -0.00002230      0.00003404
    -0.00001990     -0.00001721      0.00002441
    -0.00507076      0.00648494     -0.00489217
     0.04559872      0.05702643     -0.06002915
     0.00049843     -0.00098861      0.00048886
     0.00015481      0.00002820     -0.00036292
     0.00015160      0.00021779     -0.00041729
    -0.00000679      0.00005652     -0.00003428
     0.00000259     -0.00002910      0.00002117
    -0.00196566      0.00242264      0.00792502
     0.00072035     -0.00060003      0.00239420
     0.03370964     -0.06441351     -0.00291515
    -0.15031768     -0.10220163      0.67510471
    -0.00073089     -0.00109616      0.00046304
    -0.00112314      0.00071533      0.00378461
    -0.00262466     -0.00040943      0.00123088
     0.00064186     -0.00215380      0.00381153
    -0.00054275      0.00110845     -0.00129250
     0.02696232     -0.01355819      0.06197018
     0.01528938     -0.00095812     -0.01794863
    -0.40390311     -0.57045507      0.05165784
    -0.00560394      0.01163812     -0.00560604
     0.00006801      0.00020437     -0.00017310
    -0.00162591     -0.00080235      0.00086389
     0.00078523     -0.00178986      0.00132950
     0.00001060      0.00006230     -0.00008517
vibration 86
    -0.00005029      0.00000216      0.00008173
     0.00013481     -0.00014309      0.00021014
     0.00006864      0.00013634      0.00012684
    -0.00000062     -0.00003352     -0.00029729
    -0.00002161     -0.00005214      0.00001408
    -0.00007625     -0.00007203     -0.00005063
    -0.00022508      0.00018805     -0.00016278
     0.00001627      0.00021630     -0.00002916
     0.04889093     -0.06333014      0.05048247
     0.00466394      0.00563316     -0.00620105
     0.00001149      0.00003072     -0.00002785
    -0.00005118     -0.00002073      0.00009743
    -0.00007774     -0.00012332      0.00023640
     0.00001198     -0.00001914      0.00001449
    -0.00001303      0.00001236     -0.00000287
     0.00022788     -0.00033756     -0.00129701
    -0.00022861      0.00052765     -0.00085276
    -0.32847298      0.62592613      0.02878617
    -0.01544497     -0.01055556      0.06919627
     0.00023211      0.00040949     -0.00016722
     0.00030482     -0.00017561     -0.00092510
     0.00132037      0.00021576     -0.00062285
    -0.00037401      0.00124873     -0.00224454
     0.01999808     -0.01256585     -0.00203255
    -0.27104023      0.13569945     -0.62284018
     0.00076142      0.00122391     -0.00109623
    -0.04051945     -0.05699788      0.00510332
     0.00008639     -0.00026708      0.00014628
    -0.00004733     -0.00023340      0.00019091
     0.00144054      0.00074619     -0.00076447
    -0.00093932      0.00211157     -0.00160769
     0.00005901     -0.00005746      0.00010708
vibration 87
     0.00139921     -0.00141947     -0.00573270
    -0.00025293      0.00118774     -0.00144943
     0.00047170     -0.00082494      0.00038374
     0.00008149      0.00017184      0.00000502
    -0.00010957      0.00036213     -0.00005640
    -0.00010946      0.00008197     -0.00012668
    -0.00007746     -0.00004933      0.00001594
    -0.00002436     -0.00005155     -0.00001587
     0.00002805      0.00000459      0.00029069
    -0.00086999     -0.00064819      0.00079073
     0.03309272     -0.07088518      0.03382068
    -0.00777751     -0.00854182      0.00487184
    -0.00302411      0.00008890      0.00084196
    -0.00067895      0.00126314     -0.00002437
     0.00021007     -0.00025943     -0.00031110
    -0.01521762      0.01858539      0.06588481
     0.00477767     -0.00389989      0.01585450
     0.00010927     -0.00036040      0.00001869
     0.00154658      0.00106473     -0.00770368
     0.08024829      0.10671335     -0.04036621
     0.00806850     -0.00550062     -0.02017771
     0.02805555      0.00453766     -0.01372894
    -0.00026600      0.00018548      0.00095703
     0.00081899     -0.00011422     -0.00088198
    -0.00112938      0.00050691     -0.00243869
     0.00086280     -0.00220654     -0.00098435
     0.00689399      0.00938418     -0.00079755
    -0.38098015      0.81801233     -0.38965310
    -0.00003548     -0.00009586      0.00035434
     0.00300263      0.00123519     -0.00168617
    -0.00025759      0.00077776     -0.00085595
    -0.00189427     -0.00129042     -0.00224511
vibration 88
     0.00004254     -0.00003893     -0.00014677
    -0.00004728      0.00004445      0.00003297
     0.00005907     -0.00010599     -0.00007324
    -0.00031642     -0.00102220     -0.00071148
    -0.00004368      0.00003590      0.00002059
    -0.00000569      0.00005543      0.00003445
    -0.00024187      0.00008643      0.00027691
     0.00003611      0.00043456      0.00036647
     0.05252990     -0.02026565     -0.07619837
     0.00005642      0.00045809      0.00008204
     0.00006045     -0.00014127      0.00006147
    -0.00000259     -0.00003170     -0.00003633
    -0.00000814      0.00000519     -0.00000535
    -0.00000498     -0.00002889     -0.00000092
    -0.00000260      0.00001534      0.00000393
    -0.00032610      0.00062080      0.00177198
     0.00038606      0.00012663      0.00060944
    -0.14550247      0.28840440     -0.00924930
    -0.00010598      0.00000045      0.00027326
     0.00020937      0.00029249     -0.00011293
    -0.00017371      0.00009708      0.00056473
     0.00005355      0.00001630     -0.00002997
    -0.00000279     -0.00003786      0.00004295
    -0.61044026      0.02965882      0.64541873
     0.13770542     -0.07391869      0.26835940
     0.00150384     -0.00279018     -0.00151040
    -0.00195985     -0.00261868      0.00021781
    -0.00072631      0.00164899     -0.00079701
     0.00029220     -0.00000306      0.00039564
     0.00034486      0.00018563     -0.00004825
    -0.00076775      0.00184247     -0.00135056
    -0.00313199     -0.00190021     -0.00324392
vibration 89
     0.00003383      0.00003377     -0.00006702
    -0.00002017      0.00000448     -0.00003428
    -0.00083256     -0.00032084     -0.00087869
    -0.00003330      0.00002035     -0.00001835
    -0.00008496      0.00030906      0.00021948
     0.00027386      0.00022070      0.00040992
     0.00000851     -0.00001147      0.00000927
     0.00001083     -0.00000670      0.00000014
     0.00012332      0.00006156     -0.00041724
     0.02338865     -0.07465049     -0.05328790
     0.00004276     -0.00010635      0.00005483
    -0.00001133     -0.00004779     -0.00003751
    -0.00002515      0.00000524     -0.00000383
    -0.00001398      0.00000632      0.00000096
     0.00001043      0.00000692      0.00000429
    -0.00000894      0.00038571      0.00151499
     0.00017957     -0.00007452      0.00043347
     0.00018291     -0.00027434     -0.00006251
    -0.06986502     -0.06798874      0.29906589
     0.00044824      0.00051160     -0.00020274
    -0.00018327      0.00006743      0.00060266
     0.00030108      0.00005798     -0.00014826
     0.00002513     -0.00011782      0.00020214
    -0.00260546      0.00015886      0.00270958
     0.00102957     -0.00044222      0.00221438
    -0.38112289      0.71994474      0.37579850
     0.17892898      0.23151475     -0.04060986
    -0.00045483      0.00094981     -0.00054079
     0.00013528      0.00004241      0.00014514
    -0.00007414     -0.00004948      0.00007087
    -0.00013613      0.00038727     -0.00026637
    -0.00143908     -0.00083187     -0.00154663
vibration 90
     0.00005795     -0.00003531     -0.00011780
     0.00015861     -0.00001735     -0.00023121
     0.00000172     -0.00004452     -0.00004456
     0.00014187     -0.00017715     -0.00027971
    -0.00000765      0.00001092     -0.00000159
     0.00000294      0.00001593      0.00001546
    -0.00005518      0.00001232      0.00006689
    -0.00062350     -0.00018851      0.00041063
     0.00027526     -0.00010515     -0.00038445
     0.00005815     -0.00017139     -0.00012816
     0.00013910     -0.00021143     -0.00000026
    -0.00006082      0.00003378     -0.00000302
    -0.00055215      0.00004083      0.00104909
    -0.00134243     -0.00005818     -0.00067417
     0.00014786     -0.00005628      0.00015012
    -0.00033432      0.00036772      0.00134837
     0.00020450     -0.00049633      0.00247452
    -0.00077285      0.00158579     -0.00010033
    -0.00014060     -0.00015710      0.00062203
     0.00064519      0.00054624     -0.00027297
     0.00005981      0.00002074      0.00085034
     0.01029677      0.00268517     -0.00401119
    -0.00069779      0.00226404     -0.00433229
    -0.00304393      0.00019526      0.00323053
     0.00070142     -0.00040832      0.00132873
    -0.00086468      0.00163224      0.00084253
     0.00037811      0.00047875     -0.00010273
    -0.00067310      0.00155110     -0.00060882
    -0.06717740     -0.02282962     -0.05593711
     0.17485774      0.09493243     -0.10825496
     0.05595199     -0.17185305      0.11802499
     0.58516487      0.35062668      0.65450552
[INT]
    0.256399
    0.424119
    5.159836
    0.035575
    0.739749
    0.736230
    1.716976
    0.177320
    0.466131
    1.996301
    4.049508
    1.942165
    3.979035
    3.337779
    8.709460
    0.039295
   11.715093
    5.005519
    7.876356
   12.980317
   17.910971
   11.435741
    4.966641
    0.178305
    4.328417
    4.630477
    6.437236
    9.841636
   10.941022
   11.890134
   10.074989
    7.429686
    3.879774
   10.578216
    5.680597
    2.019010
   15.826471
   14.210759
   42.760978
   25.179618
   60.449559
   24.143639
   26.281202
   13.493951
   20.043894
    5.078749
  211.151685
  267.025286
    1.878553
   37.109977
   51.659359
  150.824558
   81.069409
   12.037817
    2.908180
    9.793620
   20.317609
   12.993530
    7.836233
   98.555789
   30.577215
   15.380144
   13.772340
   14.688170
    8.441543
   10.590191
    1.373740
    3.567016
   16.995196
    2.465235
   10.885670
    6.363124
   80.323958
  362.095195
   18.060778
   34.552432
   36.604617
   20.763554
   15.893740
   37.260400
    1.116573
    8.575682
   13.852199
   44.631348
   19.801509
   14.731798
   23.080654
   14.588203
   14.419982
    3.041466

======= END OF MOLDEN-FORMATTED INPUT FILE =======


        *************************************************************
        *                                                           *
        *  Thank you very much for using Q-Chem.  Have a nice day.  *
        *                                                           *
        *************************************************************


