r0115.ten.osc.edu 10.25.153
Q-Chem Developer Version! Running on 10.25.153.*
                  Welcome to Q-Chem
     A Quantum Leap Into The Future Of Chemistry


 Q-Chem 5.0, Q-Chem, Inc., Pleasanton, CA (2017)

 Yihan Shao,  Zhengting Gan,  E. Epifanovsky,  A. T. B. Gilbert,  M. Wormit,  
 J. Kussmann,  A. W. Lange,  A. Behn,  Jia Deng,  Xintian Feng,  D. Ghosh,  
 M. Goldey,  P. R. Horn,  L. D. Jacobson,  I. Kaliman,  T. Kus,  A. Landau,  
 Jie Liu,  E. I. Proynov,  R. M. Richard,  R. P. Steele,  E. J. Sundstrom,  
 H. L. Woodcock III,  P. M. Zimmerman,  D. Zuev,  B. Albrecht,  E. Alguire,  
 S. A. Baeppler,  Z. Benda,  Y. A. Bernard,  E. J. Berquist,  K. B. Bravaya,  
 D. Casanova,  Chun-Min Chang,  Yunqing Chen,  A. Chien,  K. D. Closser,  
 M. P. Coons,  S. Dasgupta,  M. Diedenhofen,  Hainam Do,  R. G. Edgar,  
 Po-Tung Fang,  S. Fatehi,  Qingguo Feng,  Qinghui Ge,  A. Ghysels,  
 J. Gomes,  J. Gonthier,  A. Gunina,  M. W. D. Hanson-Heine,  
 P. H. P. Harbach,  A. W. Hauser,  J. E. Herr,  E. G. Hohenstein,  
 Z. C. Holden,  Kerwin Hui,  T.-C. Jagau,  Hyunjun Ji,  B. Kaduk,  
 K. Khistyaev,  Jaehoon Kim,  P. Klunzinger,  K. Koh,  D. Kosenkov,  
 T. Kowalczyk,  C. M. Krauter,  A. Kunitsa,  Ka Un Lao,  A. Laurent,  
 K. V. Lawler,  Joonho Lee,  D. Lefrancois,  S. Lehtola,  D. S. Levine,  
 Yi-Pei Li,  You-Sheng Lin,  Fenglai Liu,  E. Livshits,  A. Luenser,  
 P. Manohar,  E. Mansoor,  S. F. Manzer,  Shan-Ping Mao,  Yuezhi Mao,  
 N. Mardirossian,  A. V. Marenich,  L. A. Martinez-Martinez,  S. A. Maurer,  
 N. J. Mayhall,  S. C. McKenzie,  J.-M. Mewes,  A. F. Morrison,  K. Nanda,  
 T. S. Nguyen-Beck,  R. Olivares-Amaya,  J. A. Parkhill,  T. M. Perrine,  
 F. Plasser,  S. Prager,  A. Prociuk,  D. R. Rehn,  F. Rob,  M. Schneider,  
 N. Sergueev,  S. M. Sharada,  S. Sharma,  D. W. Small,  T. Stauch,  
 T. Stein,  Yu-Chuan Su,  A. J. W. Thom,  T. Tsuchimochi,  L. Vogt,  
 O. Vydrov,  M. A. Watson,  J. Wenzel,  M. de Wergifosse,  T. A. Wesolowski,  
 A. White,  J. Witte,  A. Yamada,  Jun Yang,  K. Yao,  S. Yeganeh,  
 S. R. Yost,  Zhi-Qiang You,  A. Zech,  Igor Ying Zhang,  Xing Zhang,  
 Yan Zhao,  Ying Zhu,  B. R. Brooks,  G. K. L. Chan,  C. J. Cramer,  
 M. S. Gordon,  W. J. Hehre,  A. Klamt,  M. W. Schmidt,  C. D. Sherrill,  
 D. G. Truhlar,  A. Aspuru-Guzik,  R. Baer,  A. T. Bell,  N. A. Besley,  
 Jeng-Da Chai,  A. Dreuw,  B. D. Dunietz,  T. R. Furlani,  Chao-Ping Hsu,  
 Yousung Jung,  Jing Kong,  D. S. Lambrecht,  WanZhen Liang,  C. Ochsenfeld,  
 V. A. Rassolov,  L. V. Slipchenko,  J. E. Subotnik,  T. Van Voorhis,  
 J. M. Herbert,  A. I. Krylov,  P. M. W. Gill,  M. Head-Gordon

 Contributors to earlier versions of Q-Chem not listed above: 
 R. D. Adamson,  B. Austin,  J. Baker,  G. J. O. Beran,  K. Brandhorst,  
 S. T. Brown,  E. F. C. Byrd,  A. K. Chakraborty,  C.-L. Cheng,  
 Siu Hung Chien,  D. M. Chipman,  D. L. Crittenden,  H. Dachsel,  
 R. A. DiStasio Jr.,  R. J. Doerksen,  A. D. Dutoi,  L. Fusti-Molnar,  
 W. A. Goddard III,  A. Golubeva-Zadorozhnaya,  S. R. Gwaltney,  G. Hawkins,  
 A. Heyden,  S. Hirata,  G. Kedziora,  F. J. Keil,  C. Kelley,  Jihan Kim,  
 R. A. King,  R. Z. Khaliullin,  P. P. Korambath,  W. Kurlancheek,  
 A. M. Lee,  M. S. Lee,  S. V. Levchenko,  Ching Yeh Lin,  D. Liotard,  
 R. C. Lochan,  I. Lotan,  P. E. Maslen,  N. Nair,  D. P. O'Neill,  
 D. Neuhauser,  E. Neuscamman,  C. M. Oana,  R. Olson,  B. Peters,  
 R. Peverati,  P. A. Pieniazek,  Y. M. Rhee,  J. Ritchie,  M. A. Rohrdanz,  
 E. Rosta,  N. J. Russ,  H. F. Schaefer III,  N. E. Schultz,  N. Shenvi,  
 A. C. Simmonett,  A. Sodt,  D. Stuck,  K. S. Thanthiriwatte,  V. Vanovschi,  
 Tao Wang,  A. Warshel,  C. F. Williams,  Q. Wu,  X. Xu,  W. Zhang

 Please cite Q-Chem as follows:
 Y. Shao et al., Mol. Phys. 113, 184-215 (2015)
 DOI: 10.1080/00268976.2014.952696

 Q-Chem 5.0.1 for Intel X86 EM64T Linux

 Parts of Q-Chem use Armadillo 5.200.1 (Boston Tea Smuggler).
 http://arma.sourceforge.net/

 Q-Chem begins on Sun Oct 15 23:07:45 2017  

Host: r0115.ten.osc.edu
0

     Scratch files written to /tmp/pbstmp.1310572/08//
Processing $rem in /users/PAS0291/osu6415/.qchemrc.
molden_format             true

Checking the input file for inconsistencies... 	...done.

--------------------------------------------------------------
User input:
--------------------------------------------------------------
$molecule
0 1
C 0.05576601 1.00677595 0.47730801
C 0.61707367 -0.45081622 0.68387673
C -1.28268679 1.16045765 -0.22335938
C -0.24992302 -1.64962636 0.32426769
O -2.25807103 1.43321891 0.67422725
O -1.46392412 1.13844327 -1.41417086
O -1.55665746 -1.34779806 0.23532126
O 0.16938250 -2.77630427 0.21660544
C -2.44643061 -2.43676132 -0.07329052
C -3.58022337 1.57956645 0.13175548
C 1.19277335 1.64045629 -0.37072611
C 2.39312613 1.94718710 0.54470592
C 2.94164676 0.51387562 0.78892997
C 1.99177576 -0.35520747 -0.08914044
O 1.65947136 0.54562591 -1.15988830
H -0.03981852 1.49712148 1.44585468
H 0.81803575 -0.60443131 1.74828810
H -2.40497293 -3.19568512 0.70937724
H -3.61812601 2.41093537 -0.57406900
H 3.11920278 2.56734946 0.01674967
H 2.10320848 2.46897434 1.45913734
H 3.96639368 0.41399415 0.42775563
H 2.92597702 0.21463060 1.83868167
H -3.43775592 -1.99272044 -0.12575041
H -2.17594938 -2.88560582 -1.02938853
H -4.22718891 1.77192282 0.98511725
H -3.88329544 0.66483943 -0.38083115
H 0.86628254 2.44693715 -1.02235218
C 2.62989132 -1.60850795 -0.64656337
H 3.55911926 -1.32877489 -1.14847158
H 2.85533761 -2.31824841 0.15049906
H 1.97868770 -2.10478451 -1.36359983
$end

$rem
sym_ignore      true
jobtype         ts
method          b3lyp
basis           6-311++G(d,p)
dft_d           d3_op
mem_total       62000
MEM_STATIC      4000
ao2mo_disk      350000
max_scf_cycles  200
geom_opt_max_cycles 1000
geom_opt_tol_displacement 1
GEOM_OPT_TOL_GRADIENT       1
GEOM_OPT_TOL_ENERGY         1
$end

--------------------------------------------------------------
 Adding empirical dispersion correction 
 ----------------------------------------------------------------
 Doing -D3(op) with
 s6 =   1.00000
 s8 =   0.78311
 a1 =   0.30000
 a2 =   4.25000
 n  =  10.00000
 -D3 energy without 3body term =     -0.0357545759 hartrees
 ----------------------------------------------------------------
             Standard Nuclear Orientation (Angstroms)
    I     Atom           X                Y                Z
 ----------------------------------------------------------------
    1      C       0.0557660100     1.0067759500     0.4773080100
    2      C       0.6170736700    -0.4508162200     0.6838767300
    3      C      -1.2826867900     1.1604576500    -0.2233593800
    4      C      -0.2499230200    -1.6496263600     0.3242676900
    5      O      -2.2580710300     1.4332189100     0.6742272500
    6      O      -1.4639241200     1.1384432700    -1.4141708600
    7      O      -1.5566574600    -1.3477980600     0.2353212600
    8      O       0.1693825000    -2.7763042700     0.2166054400
    9      C      -2.4464306100    -2.4367613200    -0.0732905200
   10      C      -3.5802233700     1.5795664500     0.1317554800
   11      C       1.1927733500     1.6404562900    -0.3707261100
   12      C       2.3931261300     1.9471871000     0.5447059200
   13      C       2.9416467600     0.5138756200     0.7889299700
   14      C       1.9917757600    -0.3552074700    -0.0891404400
   15      O       1.6594713600     0.5456259100    -1.1598883000
   16      H      -0.0398185200     1.4971214800     1.4458546800
   17      H       0.8180357500    -0.6044313100     1.7482881000
   18      H      -2.4049729300    -3.1956851200     0.7093772400
   19      H      -3.6181260100     2.4109353700    -0.5740690000
   20      H       3.1192027800     2.5673494600     0.0167496700
   21      H       2.1032084800     2.4689743400     1.4591373400
   22      H       3.9663936800     0.4139941500     0.4277556300
   23      H       2.9259770200     0.2146306000     1.8386816700
   24      H      -3.4377559200    -1.9927204400    -0.1257504100
   25      H      -2.1759493800    -2.8856058200    -1.0293885300
   26      H      -4.2271889100     1.7719228200     0.9851172500
   27      H      -3.8832954400     0.6648394300    -0.3808311500
   28      H       0.8662825400     2.4469371500    -1.0223521800
   29      C       2.6298913200    -1.6085079500    -0.6465633700
   30      H       3.5591192600    -1.3287748900    -1.1484715800
   31      H       2.8553376100    -2.3182484100     0.1504990600
   32      H       1.9786877000    -2.1047845100    -1.3635998300
 ----------------------------------------------------------------
 Nuclear Repulsion Energy =  1249.8680755216 hartrees
 There are       61 alpha and       61 beta electrons
 Requested basis set is 6-311++G(d,p)
 There are 176 shells and 464 basis functions

 Total QAlloc Memory Limit  62000 MB
 Mega-Array Size      3911 MB
 MEM_STATIC part      4000 MB
 A cutoff of  1.0D-11 yielded  12711 shell pairs
 There are     90085 function pairs (     96097 Cartesian)
 
 -------------------------------------------------------
 OpenMP Integral Computing Module                       
 Release: version 1.0, May 2013, Q-Chem Inc. Pittsburgh 
 -------------------------------------------------------
 Integral Job Info:
 Integral job number is                      11
 Integral operator is                         1
 short-range coefficients                     0
 long-range coefficients              100000000
 Omega coefficients                           0
 if combine SR and LR in K                    0
 Integral screening is                        0
 Integral computing path is                   2
 max size of driver memory is            800000
 size of driver memory is                593474
 size of scratch memory is              2361544
 max col of scratch BK array               1296
 max len of scratch array in speh3          155
 max len of scratch index in speh4           18
 max int batch size is                      520
 min int batch size is                       52
 fixed nKL is                                52
 max L of basis functions is                  2
 order of int derivative is                   0
 number of shells is                        176
 number of basis is                         480
 number of cartesian basis is               480
 number of contracted shell pairs         12711
 number of primitive shell pairs          28308
 maxK2 (contraction) of shell pair           36
 max number of K2 of shell pair               1
 max number of CS2 of shell pair           2376
 max number of PS2 of shell pair           4068
 mem total for path MDJ                  160776
 -------------------------------------------------------
 Smallest overlap matrix eigenvalue = 8.53E-07

 Q-Chem warning in module /fs/scratch/osu6415/qchem-kaunlao-vdw/stvman/mkSTV.C, line 281:

 Overlap eigenvalue is smaller than square root of threshold

 Linear dependence detected in AO basis
 Number of orthogonalized atomic orbitals = 463
 Maximum deviation from orthogonality = 9.492E-11

 Scale SEOQF with 1.000000e-01/1.000000e-01/1.000000e-01

 Standard Electronic Orientation quadrupole field applied
 Nucleus-field energy     =     0.0000000338 hartrees
 Guess from superposition of atomic densities
 Warning:  Energy on first SCF cycle will be non-variational
 A restricted hybrid HF-DFT SCF calculation will be
 performed using Pulay DIIS extrapolation
 Exchange:     0.2000 Hartree-Fock + 0.0800 Slater + 0.7200 B88
 Correlation:  0.1900 VWN1RPA + 0.8100 LYP
 Using SG-1 standard quadrature grid
 Dispersion:   Grimme D3
 SCF converges when DIIS error is below 1.0E-08
 using 20 threads for integral computing
 -------------------------------------------------------
 OpenMP Integral computing Module                
 Release: version 1.0, May 2013, Q-Chem Inc. Pittsburgh 
 -------------------------------------------------------
 -------------------------------------------------------
 OpenMP BLAS3 based DFT computing Module                
 Release: version 1.0, May 2013, Q-Chem Inc. Pittsburgh 
 -------------------------------------------------------
 ---------------------------------------
  Cycle       Energy         DIIS Error
 ---------------------------------------
    1    -808.4329076759      2.94E-02
    2    -804.8603404266      3.85E-03
    3    -804.3206814016      6.53E-03
    4    -805.1386090320      1.54E-03
    5    -805.1869885885      3.90E-04
    6    -805.1894055807      1.57E-04
    7    -805.1898807746      3.61E-05
    8    -805.1899052686      1.13E-05
    9    -805.1899080272      2.84E-06
   10    -805.1899081478      1.57E-06
   11    -805.1899081932      4.33E-07
   12    -805.1899081970      1.58E-07
   13    -805.1899081970      4.25E-08
   14    -805.1899081969      1.37E-08
   15    -805.1899082016      3.75E-09 Convergence criterion met
 ---------------------------------------
 SCF time:  CPU 952.09 s  wall 53.18 s
 SCF   energy in the final basis set = -805.18990820
 Total energy in the final basis set = -805.18990820
 
 --------------------------------------------------------------
 
                    Orbital Energies (a.u.)
 --------------------------------------------------------------
 
 Alpha MOs
 -- Occupied --
-19.179 -19.170 -19.127 -19.118 -19.110 -10.312 -10.303 -10.241
-10.233 -10.230 -10.228 -10.211 -10.202 -10.178 -10.177 -10.158
 -1.122  -1.110  -1.061  -1.032  -1.023  -0.829  -0.790  -0.782
 -0.748  -0.729  -0.690  -0.652  -0.603  -0.593  -0.570  -0.557
 -0.532  -0.517  -0.503  -0.490  -0.487  -0.484  -0.477  -0.475
 -0.460  -0.436  -0.426  -0.422  -0.416  -0.412  -0.398  -0.376
 -0.374  -0.372  -0.367  -0.358  -0.353  -0.350  -0.333  -0.328
 -0.321  -0.308  -0.289  -0.280  -0.270
 -- Virtual --
 -0.021  -0.009  -0.007  -0.001   0.004   0.011   0.014   0.021
  0.026   0.031   0.038   0.040   0.042   0.044   0.046   0.057
  0.065   0.069   0.075   0.077   0.081   0.086   0.090   0.096
  0.097   0.103   0.104   0.109   0.114   0.116   0.120   0.124
  0.128   0.130   0.132   0.134   0.139   0.140   0.142   0.143
  0.147   0.149   0.152   0.155   0.159   0.161   0.164   0.167
  0.170   0.173   0.175   0.180   0.181   0.184   0.189   0.193
  0.198   0.201   0.202   0.208   0.212   0.215   0.224   0.225
  0.229   0.233   0.236   0.240   0.247   0.254   0.257   0.261
  0.265   0.276   0.278   0.285   0.288   0.292   0.297   0.303
  0.305   0.313   0.316   0.320   0.327   0.332   0.334   0.341
  0.344   0.351   0.354   0.354   0.358   0.361   0.363   0.369
  0.378   0.380   0.386   0.391   0.393   0.395   0.406   0.414
  0.421   0.427   0.432   0.435   0.443   0.459   0.465   0.487
  0.491   0.499   0.503   0.510   0.516   0.530   0.545   0.548
  0.558   0.572   0.581   0.589   0.594   0.595   0.610   0.612
  0.626   0.629   0.632   0.640   0.650   0.656   0.664   0.665
  0.669   0.676   0.685   0.689   0.701   0.704   0.717   0.718
  0.723   0.731   0.735   0.740   0.743   0.758   0.761   0.771
  0.777   0.784   0.787   0.798   0.814   0.816   0.842   0.855
  0.871   0.895   0.899   0.924   0.953   0.976   0.984   1.011
  1.020   1.027   1.047   1.070   1.073   1.094   1.108   1.124
  1.128   1.172   1.183   1.194   1.199   1.211   1.224   1.239
  1.244   1.255   1.260   1.272   1.294   1.306   1.314   1.323
  1.331   1.350   1.351   1.365   1.389   1.395   1.400   1.422
  1.428   1.434   1.450   1.461   1.473   1.490   1.501   1.505
  1.528   1.529   1.543   1.553   1.566   1.568   1.571   1.579
  1.588   1.597   1.608   1.613   1.624   1.629   1.652   1.654
  1.674   1.683   1.692   1.704   1.710   1.715   1.720   1.733
  1.738   1.755   1.762   1.777   1.790   1.802   1.814   1.819
  1.834   1.837   1.851   1.864   1.876   1.881   1.902   1.913
  1.929   1.950   1.962   1.975   1.986   2.000   2.018   2.039
  2.047   2.059   2.064   2.097   2.111   2.115   2.125   2.137
  2.152   2.166   2.183   2.191   2.198   2.216   2.230   2.255
  2.270   2.302   2.315   2.349   2.390   2.429   2.448   2.457
  2.458   2.463   2.492   2.493   2.510   2.517   2.520   2.527
  2.540   2.543   2.558   2.579   2.590   2.599   2.604   2.640
  2.650   2.663   2.664   2.671   2.716   2.726   2.749   2.767
  2.799   2.806   2.822   2.828   2.843   2.864   2.869   2.873
  2.894   2.914   2.924   2.941   2.960   2.967   2.993   3.015
  3.035   3.045   3.055   3.066   3.075   3.092   3.111   3.126
  3.129   3.141   3.161   3.185   3.197   3.218   3.237   3.246
  3.277   3.290   3.314   3.339   3.373   3.385   3.398   3.452
  3.579   3.606   3.615   3.664   3.669   3.743   3.776   3.779
  3.824   3.845   3.851   3.867   3.915   3.949   4.007   4.035
  4.062   4.108   4.119   4.127   4.155   4.174   4.229   4.260
  4.272   4.435   4.495   5.035   5.075   5.103   5.149   5.222
  5.268   5.289   5.408   5.452   5.507   5.615   5.641   5.662
  5.884   5.891  23.783  23.825  23.852  23.868  23.893  23.928
 23.937  23.950  23.972  23.995  24.045  49.905  49.930  49.987
 50.028  50.047
 --------------------------------------------------------------
 
          Ground-State Mulliken Net Atomic Charges

     Atom                 Charge (a.u.)
  ----------------------------------------
      1 C                     0.188903
      2 C                    -0.054992
      3 C                    -0.506571
      4 C                    -0.561602
      5 O                     0.014124
      6 O                    -0.186332
      7 O                    -0.091418
      8 O                    -0.218382
      9 C                    -0.203559
     10 C                    -0.174722
     11 C                     0.183095
     12 C                    -0.617395
     13 C                    -0.261077
     14 C                    -0.029588
     15 O                    -0.044086
     16 H                     0.304767
     17 H                     0.226068
     18 H                     0.182810
     19 H                     0.172616
     20 H                     0.186036
     21 H                     0.114350
     22 H                     0.168791
     23 H                     0.144671
     24 H                     0.124376
     25 H                     0.196783
     26 H                     0.153392
     27 H                     0.170386
     28 H                     0.283011
     29 C                    -0.380685
     30 H                     0.142423
     31 H                     0.181202
     32 H                     0.192605
  ----------------------------------------
  Sum of atomic charges =    -0.000000

 -----------------------------------------------------------------
                    Cartesian Multipole Moments
 -----------------------------------------------------------------
    Charge (ESU x 10^10)
                -0.0000
    Dipole Moment (Debye)
         X      -1.3431      Y       1.0961      Z       3.0453
       Tot       3.5041
    Quadrupole Moments (Debye-Ang)
        XX     -81.3521     XY       4.6496     YY     -95.8346
        XZ       1.5213     YZ       2.7944     ZZ    -100.7913
    Octopole Moments (Debye-Ang^2)
       XXX     -59.8664    XXY      -4.4527    XYY     -24.5509
       YYY      25.9649    XXZ       1.7706    XYZ      -1.5571
       YYZ      -7.5707    XZZ      -1.8869    YZZ     -10.5123
       ZZZ       8.0068
    Hexadecapole Moments (Debye-Ang^3)
      XXXX   -2317.8758   XXXY     -24.7062   XXYY    -610.7963
      XYYY      45.5162   YYYY   -1584.0519   XXXZ     -22.6075
      XXYZ       3.8636   XYYZ      -6.6362   YYYZ     -10.5976
      XXZZ    -508.6183   XYZZ       6.3323   YYZZ    -311.9369
      XZZZ      -8.4011   YZZZ       2.5078   ZZZZ    -393.5699
 -----------------------------------------------------------------
 Calculating analytic gradient of the SCF energy
 Gradient of SCF Energy
            1           2           3           4           5           6
    1   0.0005319  -0.0003282  -0.0002637  -0.0000667  -0.0000020   0.0000859
    2   0.0003573   0.0000497  -0.0011018  -0.0000562  -0.0000090   0.0007281
    3  -0.0009387   0.0006677   0.0002675   0.0003576   0.0000182  -0.0000493
            7           8           9          10          11          12
    1   0.0000101   0.0000767   0.0000066  -0.0000131  -0.0000094  -0.0000082
    2  -0.0000111   0.0000319  -0.0000149  -0.0000068  -0.0000062  -0.0000213
    3   0.0000676  -0.0003314   0.0000010   0.0000042  -0.0000418   0.0000083
           13          14          15          16          17          18
    1  -0.0000054   0.0000191  -0.0000090  -0.0000156  -0.0000040   0.0000043
    2   0.0000418   0.0000105   0.0000045   0.0000059  -0.0000030  -0.0000004
    3  -0.0000097  -0.0000279   0.0000152  -0.0000040   0.0000074   0.0000369
           19          20          21          22          23          24
    1  -0.0000107  -0.0000067   0.0000055   0.0000052  -0.0000088   0.0000071
    2  -0.0000164  -0.0000019   0.0000305   0.0000229   0.0000055  -0.0000128
    3   0.0000005  -0.0000446  -0.0000257  -0.0000165  -0.0000168   0.0000152
           25          26          27          28          29          30
    1   0.0000132  -0.0000016  -0.0000049  -0.0000184  -0.0000013  -0.0000008
    2  -0.0000220  -0.0000117  -0.0000183   0.0000037   0.0000315  -0.0000009
    3   0.0000311   0.0000077   0.0000112  -0.0000089  -0.0000237  -0.0000086
           31          32
    1   0.0000197  -0.0000070
    2   0.0000073  -0.0000163
    3   0.0000062   0.0000239
 Max gradient component =       1.102E-03
 RMS gradient           =       2.046E-04
 Gradient time:  CPU 309.32 s  wall 24.78 s
 Geometry Optimization Parameters
   NAtoms,    NIC,     NZ,  NCons,   NDum,   NFix, NCnnct, MaxDiis
       32     251       0       0       0       0       0       0


** GEOMETRY OPTIMIZATION IN DELOCALIZED INTERNAL COORDINATES **
   Searching for a Transition State

   Optimization Cycle:   1

                       Coordinates (Angstroms)
     ATOM                X               Y               Z
      1  C         0.0557660100    1.0067759500    0.4773080100
      2  C         0.6170736700   -0.4508162200    0.6838767300
      3  C        -1.2826867900    1.1604576500   -0.2233593800
      4  C        -0.2499230200   -1.6496263600    0.3242676900
      5  O        -2.2580710300    1.4332189100    0.6742272500
      6  O        -1.4639241200    1.1384432700   -1.4141708600
      7  O        -1.5566574600   -1.3477980600    0.2353212600
      8  O         0.1693825000   -2.7763042700    0.2166054400
      9  C        -2.4464306100   -2.4367613200   -0.0732905200
     10  C        -3.5802233700    1.5795664500    0.1317554800
     11  C         1.1927733500    1.6404562900   -0.3707261100
     12  C         2.3931261300    1.9471871000    0.5447059200
     13  C         2.9416467600    0.5138756200    0.7889299700
     14  C         1.9917757600   -0.3552074700   -0.0891404400
     15  O         1.6594713600    0.5456259100   -1.1598883000
     16  H        -0.0398185200    1.4971214800    1.4458546800
     17  H         0.8180357500   -0.6044313100    1.7482881000
     18  H        -2.4049729300   -3.1956851200    0.7093772400
     19  H        -3.6181260100    2.4109353700   -0.5740690000
     20  H         3.1192027800    2.5673494600    0.0167496700
     21  H         2.1032084800    2.4689743400    1.4591373400
     22  H         3.9663936800    0.4139941500    0.4277556300
     23  H         2.9259770200    0.2146306000    1.8386816700
     24  H        -3.4377559200   -1.9927204400   -0.1257504100
     25  H        -2.1759493800   -2.8856058200   -1.0293885300
     26  H        -4.2271889100    1.7719228200    0.9851172500
     27  H        -3.8832954400    0.6648394300   -0.3808311500
     28  H         0.8662825400    2.4469371500   -1.0223521800
     29  C         2.6298913200   -1.6085079500   -0.6465633700
     30  H         3.5591192600   -1.3287748900   -1.1484715800
     31  H         2.8553376100   -2.3182484100    0.1504990600
     32  H         1.9786877000   -2.1047845100   -1.3635998300
   Point Group: c1    Number of degrees of freedom:    90


   Energy is   -805.189908202


 Attempting to Generate Delocalized Internal Coordinates

 90 Hessian modes will be used to form the next step
  Hessian Eigenvalues:
     0.002983    0.006196    0.006724    0.007091    0.007481    0.010392
     0.010550    0.010559    0.010806    0.021822    0.022392    0.023042
     0.025432    0.033416    0.035840    0.036890    0.039846    0.043927
     0.048334    0.049143    0.052112    0.054592    0.056394    0.057365
     0.057642    0.060346    0.063691    0.064742    0.066095    0.074496
     0.082603    0.093253    0.097941    0.101247    0.101347    0.104761
     0.105807    0.106133    0.120647    0.125061    0.156046    0.160000
     0.160000    0.160000    0.160000    0.160000    0.160000    0.160000
     0.160000    0.160000    0.173412    0.231574    0.233643    0.249455
     0.249497    0.249907    0.250000    0.250000    0.250000    0.250000
     0.254043    0.264823    0.278480    0.301226    0.305062    0.310671
     0.338073    0.343483    0.345216    0.345807    0.346189    0.346424
     0.346700    0.346842    0.346844    0.346988    0.347192    0.347785
     0.348361    0.350044    0.350422    0.351035    0.351446    0.351587
     0.396246    0.400574    0.543241    0.562991    1.013905    1.024840
**WARNING** Hessian does not have the Desired Local Structure

 Transition State Search - Taking P-RFO Step
 Searching for Lamda that Maximizes Along the Lowest mode
 Value Taken    Lamda =   0.00298368
 Searching for Lamda that Minimizes Along All other modes
 Value Taken    Lamda =  -0.00009240
 Calculated Step too Large.  Step scaled by  0.002690
 Step Taken.  Stepsize is  0.300000

                             Maximum     Tolerance    Cnvgd?
         Gradient           0.000488      0.000001      NO
         Displacement       0.098047      0.000001      NO
         Energy change     *********      0.000000      NO


 New Cartesian Coordinates Obtained by Inverse Iteration

 Displacement from previous Coordinates is:  0.787292
 Adding empirical dispersion correction 
 ----------------------------------------------------------------
 Doing -D3(op) with
 s6 =   1.00000
 s8 =   0.78311
 a1 =   0.30000
 a2 =   4.25000
 n  =  10.00000
 -D3 energy without 3body term =     -0.0357244233 hartrees
 ----------------------------------------------------------------
             Standard Nuclear Orientation (Angstroms)
    I     Atom           X                Y                Z
 ----------------------------------------------------------------
    1      C       0.0600622031     0.9951808981     0.4698451102
    2      C       0.6108009866    -0.4662660890     0.6788670037
    3      C      -1.2949176120     1.1566286197    -0.1964678757
    4      C      -0.2531539445    -1.6587916658     0.2920699656
    5      O      -2.2430527564     1.4485575500     0.7239950769
    6      O      -1.5081184127     1.1250591729    -1.3817578412
    7      O      -1.5568114418    -1.3514068739     0.1800054481
    8      O       0.1642171125    -2.7860644285     0.1831258220
    9      C      -2.4441617085    -2.4344414228    -0.1552914830
   10      C      -3.5776015278     1.6039588158     0.2154579902
   11      C       1.1819061536     1.6111639395    -0.4127193610
   12      C       2.3860882025     1.9621688955     0.4795463081
   13      C       2.9179753409     0.5389449497     0.8053380570
   14      C       1.9978992091    -0.3673732594    -0.0689023015
   15      O       1.6622277773     0.4979325679    -1.1673548089
   16      H      -0.0051785378     1.4959091002     1.4355949068
   17      H       0.7907102399    -0.6289686070     1.7456919241
   18      H      -2.4207994704    -3.2000845965     0.6215596039
   19      H      -3.6255635948     2.4288487501    -0.4973219981
   20      H       3.1165875027     2.5422259515    -0.0865199506
   21      H       2.1042639691     2.5398399140     1.3623658058
   22      H       3.9557421982     0.4200749777     0.4899980684
   23      H       2.8598802428     0.2863317334     1.8658017639
   24      H      -3.4326920847    -1.9863219103    -0.2234590022
   25      H      -2.1564835146    -2.8762033917    -1.1096669350
   26      H      -4.1994827396     1.8115140853     1.0837760612
   27      H      -3.9038890970     0.6876653980    -0.2797854140
   28      H       0.8408395165     2.3903310114    -1.0896213964
   29      C       2.6662202688    -1.6229310666    -0.5842618674
   30      H       3.5989681079    -1.3397826353    -1.0776536437
   31      H       2.8900413790    -2.3087894766     0.2338874790
   32      H       2.0356042020    -2.1478711074    -1.2992857865
 ----------------------------------------------------------------
 Nuclear Repulsion Energy =  1249.6992884746 hartrees
 There are       61 alpha and       61 beta electrons
 Applying Cartesian multipole field
    Component          Value
    ---------          -----
     (2,0,0)        1.00000E-11
     (0,2,0)        2.00000E-11
     (0,0,2)       -3.00000E-11
 Nucleus-field energy     =     0.0000000340 hartrees
 Requested basis set is 6-311++G(d,p)
 There are 176 shells and 464 basis functions
 A cutoff of  1.0D-11 yielded  12695 shell pairs
 There are     90034 function pairs (     96052 Cartesian)
 Smallest overlap matrix eigenvalue = 8.52E-07

 Q-Chem warning in module /fs/scratch/osu6415/qchem-kaunlao-vdw/stvman/mkSTV.C, line 281:

 Overlap eigenvalue is smaller than square root of threshold

 Linear dependence detected in AO basis
 Number of orthogonalized atomic orbitals = 463
 Maximum deviation from orthogonality = 8.651E-11
 Guess MOs from SCF MO coefficient file
 Reading MOs from coefficient file
 Reading MOs from coefficient file
 A restricted hybrid HF-DFT SCF calculation will be
 performed using Pulay DIIS extrapolation
 Exchange:     0.2000 Hartree-Fock + 0.0800 Slater + 0.7200 B88
 Correlation:  0.1900 VWN1RPA + 0.8100 LYP
 Using SG-1 standard quadrature grid
 Dispersion:   Grimme D3
 SCF converges when DIIS error is below 1.0E-08
 Geometry optimization detected.  Setting ReadMinima to 0
 Setting SaveMinima to 0
 using 20 threads for integral computing
 -------------------------------------------------------
 OpenMP Integral computing Module                
 Release: version 1.0, May 2013, Q-Chem Inc. Pittsburgh 
 -------------------------------------------------------
 -------------------------------------------------------
 OpenMP BLAS3 based DFT computing Module                
 Release: version 1.0, May 2013, Q-Chem Inc. Pittsburgh 
 -------------------------------------------------------
 ---------------------------------------
  Cycle       Energy         DIIS Error
 ---------------------------------------
    1    -805.1715411127      9.61E-04
    2    -805.1893402473      1.32E-04
    3    -805.1892609033      1.51E-04
    4    -805.1897875324      3.60E-05
    5    -805.1898068461      1.76E-05
    6    -805.1898126553      3.83E-06
    7    -805.1898129220      1.71E-06
    8    -805.1898129772      5.24E-07
    9    -805.1898129823      1.40E-07
   10    -805.1898129829      6.67E-08
   11    -805.1898129856      1.82E-08
   12    -805.1898129861      5.78E-09 Convergence criterion met
 ---------------------------------------
 SCF time:  CPU 777.75 s  wall 45.54 s
 SCF   energy in the final basis set = -805.18981299
 Total energy in the final basis set = -805.18981299
 
 --------------------------------------------------------------
 
                    Orbital Energies (a.u.)
 --------------------------------------------------------------
 
 Alpha MOs
 -- Occupied --
-19.179 -19.170 -19.127 -19.118 -19.110 -10.312 -10.303 -10.241
-10.233 -10.230 -10.228 -10.211 -10.202 -10.178 -10.178 -10.158
 -1.122  -1.110  -1.062  -1.032  -1.023  -0.829  -0.790  -0.782
 -0.748  -0.729  -0.690  -0.652  -0.603  -0.593  -0.570  -0.557
 -0.532  -0.517  -0.504  -0.490  -0.487  -0.484  -0.477  -0.475
 -0.460  -0.437  -0.426  -0.422  -0.416  -0.412  -0.398  -0.376
 -0.373  -0.372  -0.368  -0.358  -0.353  -0.350  -0.333  -0.328
 -0.321  -0.308  -0.289  -0.280  -0.271
 -- Virtual --
 -0.021  -0.009  -0.007  -0.001   0.004   0.011   0.014   0.021
  0.026   0.031   0.038   0.041   0.042   0.044   0.045   0.057
  0.065   0.069   0.075   0.078   0.081   0.086   0.091   0.096
  0.097   0.103   0.104   0.109   0.113   0.116   0.120   0.125
  0.129   0.131   0.132   0.134   0.139   0.140   0.142   0.144
  0.147   0.148   0.151   0.155   0.158   0.161   0.165   0.167
  0.169   0.173   0.175   0.180   0.181   0.183   0.190   0.194
  0.197   0.202   0.203   0.206   0.212   0.214   0.225   0.226
  0.229   0.233   0.235   0.240   0.246   0.254   0.257   0.262
  0.264   0.277   0.278   0.286   0.289   0.293   0.298   0.304
  0.306   0.312   0.317   0.319   0.327   0.332   0.336   0.341
  0.343   0.349   0.353   0.355   0.359   0.360   0.362   0.370
  0.378   0.381   0.386   0.390   0.393   0.395   0.404   0.413
  0.419   0.429   0.432   0.437   0.443   0.459   0.461   0.485
  0.491   0.499   0.502   0.510   0.513   0.532   0.545   0.547
  0.559   0.571   0.580   0.589   0.593   0.595   0.611   0.612
  0.626   0.630   0.634   0.642   0.650   0.656   0.662   0.666
  0.670   0.677   0.685   0.689   0.701   0.705   0.717   0.720
  0.724   0.732   0.735   0.740   0.744   0.758   0.761   0.770
  0.779   0.785   0.788   0.799   0.813   0.816   0.842   0.855
  0.873   0.893   0.897   0.922   0.955   0.978   0.981   1.010
  1.019   1.028   1.048   1.071   1.075   1.093   1.108   1.121
  1.126   1.174   1.183   1.193   1.202   1.211   1.224   1.240
  1.246   1.254   1.258   1.271   1.293   1.301   1.317   1.319
  1.331   1.349   1.353   1.367   1.390   1.394   1.397   1.420
  1.428   1.434   1.449   1.462   1.471   1.492   1.501   1.506
  1.524   1.528   1.547   1.554   1.565   1.566   1.572   1.581
  1.588   1.595   1.605   1.615   1.620   1.630   1.652   1.658
  1.672   1.682   1.696   1.705   1.711   1.714   1.721   1.732
  1.737   1.753   1.762   1.780   1.794   1.804   1.814   1.819
  1.837   1.838   1.851   1.864   1.876   1.886   1.901   1.915
  1.932   1.946   1.960   1.966   1.984   2.002   2.017   2.039
  2.049   2.060   2.064   2.091   2.110   2.115   2.126   2.135
  2.154   2.165   2.180   2.195   2.201   2.219   2.229   2.256
  2.273   2.302   2.311   2.351   2.392   2.429   2.447   2.458
  2.459   2.463   2.492   2.493   2.510   2.517   2.520   2.526
  2.540   2.544   2.558   2.578   2.590   2.599   2.605   2.637
  2.649   2.664   2.665   2.670   2.716   2.724   2.749   2.765
  2.800   2.807   2.819   2.833   2.844   2.864   2.868   2.876
  2.894   2.915   2.921   2.934   2.955   2.968   2.992   3.021
  3.037   3.043   3.054   3.067   3.074   3.093   3.113   3.127
  3.128   3.137   3.159   3.185   3.198   3.218   3.237   3.243
  3.277   3.295   3.313   3.338   3.375   3.387   3.399   3.451
  3.581   3.606   3.616   3.665   3.669   3.746   3.777   3.780
  3.823   3.844   3.851   3.868   3.915   3.948   4.006   4.036
  4.064   4.105   4.118   4.128   4.156   4.176   4.230   4.259
  4.274   4.433   4.496   5.031   5.078   5.101   5.149   5.219
  5.268   5.290   5.407   5.452   5.507   5.614   5.642   5.663
  5.882   5.893  23.782  23.826  23.854  23.868  23.894  23.928
 23.937  23.950  23.968  23.994  24.045  49.906  49.929  49.988
 50.030  50.046
 --------------------------------------------------------------
 
          Ground-State Mulliken Net Atomic Charges

     Atom                 Charge (a.u.)
  ----------------------------------------
      1 C                     0.200084
      2 C                    -0.115085
      3 C                    -0.476108
      4 C                    -0.580184
      5 O                     0.011623
      6 O                    -0.191273
      7 O                    -0.088684
      8 O                    -0.219868
      9 C                    -0.207391
     10 C                    -0.169436
     11 C                     0.185562
     12 C                    -0.645583
     13 C                    -0.230684
     14 C                     0.012436
     15 O                    -0.047401
     16 H                     0.301824
     17 H                     0.225563
     18 H                     0.183335
     19 H                     0.172390
     20 H                     0.186040
     21 H                     0.115969
     22 H                     0.166999
     23 H                     0.146455
     24 H                     0.124570
     25 H                     0.197431
     26 H                     0.153932
     27 H                     0.168983
     28 H                     0.285799
     29 C                    -0.382090
     30 H                     0.142399
     31 H                     0.178816
     32 H                     0.193576
  ----------------------------------------
  Sum of atomic charges =     0.000000

 -----------------------------------------------------------------
                    Cartesian Multipole Moments
 -----------------------------------------------------------------
    Charge (ESU x 10^10)
                -0.0000
    Dipole Moment (Debye)
         X      -1.3113      Y       1.1636      Z       3.0259
       Tot       3.4971
    Quadrupole Moments (Debye-Ang)
        XX     -81.4469     XY       4.6140     YY     -95.8671
        XZ       1.3789     YZ       2.6805     ZZ    -100.6725
    Octopole Moments (Debye-Ang^2)
       XXX     -58.9377    XXY      -3.8399    XYY     -24.4960
       YYY      27.2446    XXZ       2.8723    XYZ      -2.7153
       YYZ      -7.6555    XZZ      -1.8377    YZZ      -9.7030
       ZZZ       7.7748
    Hexadecapole Moments (Debye-Ang^3)
      XXXX   -2321.2615   XXXY     -20.4319   XXYY    -611.6404
      XYYY      49.4238   YYYY   -1593.5864   XXXZ     -22.4550
      XXYZ       3.6837   XYYZ      -5.3878   YYYZ     -18.5660
      XXZZ    -508.5100   XYZZ       8.7781   YYZZ    -311.1312
      XZZZ      -5.4390   YZZZ      -7.3646   ZZZZ    -388.0415
 -----------------------------------------------------------------
 Calculating analytic gradient of the SCF energy
 Gradient of SCF Energy
            1           2           3           4           5           6
    1   0.0011807  -0.0010940  -0.0004434   0.0001003  -0.0000177  -0.0001617
    2   0.0006826  -0.0002768  -0.0011720  -0.0001341   0.0005453   0.0000499
    3   0.0001099  -0.0006837   0.0005691   0.0005802  -0.0001184   0.0000325
            7           8           9          10          11          12
    1  -0.0001341  -0.0000127   0.0000635   0.0001622  -0.0012221   0.0007461
    2   0.0005030   0.0000373  -0.0000425   0.0000027  -0.0009423   0.0003126
    3  -0.0005378  -0.0002518  -0.0000034   0.0000368   0.0002136  -0.0006823
           13          14          15          16          17          18
    1  -0.0009985   0.0014064   0.0002739  -0.0001571   0.0000012  -0.0000044
    2  -0.0001973   0.0006428  -0.0002613   0.0000214   0.0000404   0.0000110
    3   0.0006520  -0.0000249   0.0005165   0.0000536  -0.0001018   0.0000130
           19          20          21          22          23          24
    1  -0.0000688   0.0000826   0.0000781   0.0000203   0.0000451  -0.0000126
    2  -0.0000248   0.0001824   0.0000466  -0.0000247   0.0000172  -0.0000330
    3  -0.0000039   0.0001819  -0.0001848  -0.0002294   0.0000117   0.0000911
           25          26          27          28          29          30
    1   0.0000140   0.0000018  -0.0000074   0.0001611   0.0002526  -0.0000931
    2  -0.0000846   0.0000002  -0.0000491   0.0000994  -0.0000079  -0.0000011
    3   0.0000162   0.0000159  -0.0000479  -0.0000210   0.0001579  -0.0001470
           31          32
    1  -0.0000844  -0.0000779
    2   0.0001095  -0.0000527
    3  -0.0001156  -0.0000985
 Max gradient component =       1.406E-03
 RMS gradient           =       3.970E-04
 Gradient time:  CPU 311.84 s  wall 22.29 s
 Geometry Optimization Parameters
   NAtoms,    NIC,     NZ,  NCons,   NDum,   NFix, NCnnct, MaxDiis
       32     251       0       0       0       0       0       0

 Cartesian Hessian Update
 Hessian Updated using Powell/Murtagh-Sargent Update
  Mixing factors:     0.000023 Powell
                      0.999977 Murtagh-Sargent


** GEOMETRY OPTIMIZATION IN DELOCALIZED INTERNAL COORDINATES **
   Searching for a Transition State

   Optimization Cycle:   2

                       Coordinates (Angstroms)
     ATOM                X               Y               Z
      1  C         0.0600622031    0.9951808981    0.4698451102
      2  C         0.6108009866   -0.4662660890    0.6788670037
      3  C        -1.2949176120    1.1566286197   -0.1964678757
      4  C        -0.2531539445   -1.6587916658    0.2920699656
      5  O        -2.2430527564    1.4485575500    0.7239950769
      6  O        -1.5081184127    1.1250591729   -1.3817578412
      7  O        -1.5568114418   -1.3514068739    0.1800054481
      8  O         0.1642171125   -2.7860644285    0.1831258220
      9  C        -2.4441617085   -2.4344414228   -0.1552914830
     10  C        -3.5776015278    1.6039588158    0.2154579902
     11  C         1.1819061536    1.6111639395   -0.4127193610
     12  C         2.3860882025    1.9621688955    0.4795463081
     13  C         2.9179753409    0.5389449497    0.8053380570
     14  C         1.9978992091   -0.3673732594   -0.0689023015
     15  O         1.6622277773    0.4979325679   -1.1673548089
     16  H        -0.0051785378    1.4959091002    1.4355949068
     17  H         0.7907102399   -0.6289686070    1.7456919241
     18  H        -2.4207994704   -3.2000845965    0.6215596039
     19  H        -3.6255635948    2.4288487501   -0.4973219981
     20  H         3.1165875027    2.5422259515   -0.0865199506
     21  H         2.1042639691    2.5398399140    1.3623658058
     22  H         3.9557421982    0.4200749777    0.4899980684
     23  H         2.8598802428    0.2863317334    1.8658017639
     24  H        -3.4326920847   -1.9863219103   -0.2234590022
     25  H        -2.1564835146   -2.8762033917   -1.1096669350
     26  H        -4.1994827396    1.8115140853    1.0837760612
     27  H        -3.9038890970    0.6876653980   -0.2797854140
     28  H         0.8408395165    2.3903310114   -1.0896213964
     29  C         2.6662202688   -1.6229310666   -0.5842618674
     30  H         3.5989681079   -1.3397826353   -1.0776536437
     31  H         2.8900413790   -2.3087894766    0.2338874790
     32  H         2.0356042020   -2.1478711074   -1.2992857865
   Point Group: c1    Number of degrees of freedom:    90


   Energy is   -805.189812986

 Hessian Updated using Powell/Murtagh-Sargent Update
  Mixing factors:     0.995462 Powell
                      0.004538 Murtagh-Sargent

 80 Hessian modes will be used to form the next step
  Hessian Eigenvalues:
    -0.000652    0.006302    0.007058    0.007479    0.008756    0.010395
     0.010558    0.010697    0.010810    0.021826    0.022394    0.023064
     0.025432    0.033429    0.035845    0.036935    0.039860    0.043966
     0.048336    0.049152    0.052123    0.054592    0.056408    0.057377
     0.057642    0.060349    0.063723    0.064761    0.066104    0.074500
     0.082610    0.093254    0.097941    0.101247    0.101347    0.104764
     0.105807    0.106133    0.120655    0.125061    0.156037    0.160000
     0.160000    0.173409    0.231573    0.233642    0.249452    0.249497
     0.249905    0.249993    0.250000    0.254022    0.264821    0.278479
     0.301224    0.305060    0.310671    0.338048    0.343482    0.345216
     0.345806    0.346189    0.346424    0.346700    0.346842    0.346844
     0.346988    0.347191    0.347785    0.348361    0.350043    0.350422
     0.351439    0.351587    0.396246    0.400573    0.543241    0.562987
     1.013905    1.024840

 Transition State Search - Taking P-RFO Step
 Searching for Lamda that Maximizes Along the Lowest mode
 Value Taken    Lamda =   0.00004020
 Searching for Lamda that Minimizes Along All other modes
 Value Taken    Lamda =  -0.00016529
 Step Taken.  Stepsize is  0.265771

                             Maximum     Tolerance    Cnvgd?
         Gradient           0.000926      0.000001      NO
         Displacement       0.097064      0.000001      NO
         Energy change      0.000095      0.000000      NO


 New Cartesian Coordinates Obtained by Inverse Iteration

 Displacement from previous Coordinates is:  0.497623
 Adding empirical dispersion correction 
 ----------------------------------------------------------------
 Doing -D3(op) with
 s6 =   1.00000
 s8 =   0.78311
 a1 =   0.30000
 a2 =   4.25000
 n  =  10.00000
 -D3 energy without 3body term =     -0.0356892751 hartrees
 ----------------------------------------------------------------
             Standard Nuclear Orientation (Angstroms)
    I     Atom           X                Y                Z
 ----------------------------------------------------------------
    1      C       0.0684046713     1.0053086752     0.4576907712
    2      C       0.6046902581    -0.4635081055     0.6633522212
    3      C      -1.2830491232     1.1960600384    -0.2069336390
    4      C      -0.2606034458    -1.6494036972     0.2576889345
    5      O      -2.2434627999     1.4048305027     0.7234472140
    6      O      -1.4882669633     1.2273454544    -1.3936510021
    7      O      -1.5705128645    -1.3540046510     0.2071426600
    8      O       0.1595932763    -2.7732478513     0.1262655797
    9      C      -2.4609950378    -2.4343233921    -0.1281769810
   10      C      -3.5774933193     1.5694257216     0.2158622451
   11      C       1.1948018042     1.6161574620    -0.4254715837
   12      C       2.3993005110     1.9649276381     0.4643719470
   13      C       2.9054740631     0.5395699142     0.8180985634
   14      C       1.9962558836    -0.3664046556    -0.0706500241
   15      O       1.6717968964     0.4977766748    -1.1749077619
   16      H       0.0159476361     1.4994440958     1.4274262223
   17      H       0.7723693335    -0.6397474551     1.7302853911
   18      H      -2.4020725907    -3.2239275861     0.6224062975
   19      H      -3.6353028875     2.4395717037    -0.4401421896
   20      H       3.1400585309     2.5150761541    -0.1177624530
   21      H       2.1294187077     2.5686398047     1.3338144187
   22      H       3.9526340850     0.4032253623     0.5443290857
   23      H       2.8046709872     0.3007903836     1.8785342963
   24      H      -3.4548526688    -1.9932047140    -0.1458308089
   25      H      -2.2058496168    -2.8424141788    -1.1064128238
   26      H      -4.2091855601     1.7066953768     1.0909953968
   27      H      -3.8831579538     0.6828580289    -0.3423406543
   28      H       0.8540599342     2.3914788561    -1.1068380323
   29      C       2.6723304859    -1.6232911958    -0.5721805578
   30      H       3.6139699951    -1.3412941939    -1.0491495642
   31      H       2.8830517226    -2.3071859299     0.2516265823
   32      H       2.0541042194    -2.1501844411    -1.2960330212
 ----------------------------------------------------------------
 Nuclear Repulsion Energy =  1248.9601316274 hartrees
 There are       61 alpha and       61 beta electrons
 Applying Cartesian multipole field
    Component          Value
    ---------          -----
     (2,0,0)        1.00000E-11
     (0,2,0)        2.00000E-11
     (0,0,2)       -3.00000E-11
 Nucleus-field energy     =     0.0000000341 hartrees
 Requested basis set is 6-311++G(d,p)
 There are 176 shells and 464 basis functions
 A cutoff of  1.0D-11 yielded  12697 shell pairs
 There are     89985 function pairs (     95992 Cartesian)
 Smallest overlap matrix eigenvalue = 8.53E-07

 Q-Chem warning in module /fs/scratch/osu6415/qchem-kaunlao-vdw/stvman/mkSTV.C, line 281:

 Overlap eigenvalue is smaller than square root of threshold

 Linear dependence detected in AO basis
 Number of orthogonalized atomic orbitals = 463
 Maximum deviation from orthogonality = 1.310E-10
 Guess MOs from SCF MO coefficient file
 Reading MOs from coefficient file
 Reading MOs from coefficient file
 A restricted hybrid HF-DFT SCF calculation will be
 performed using Pulay DIIS extrapolation
 Exchange:     0.2000 Hartree-Fock + 0.0800 Slater + 0.7200 B88
 Correlation:  0.1900 VWN1RPA + 0.8100 LYP
 Using SG-1 standard quadrature grid
 Dispersion:   Grimme D3
 SCF converges when DIIS error is below 1.0E-08
 Geometry optimization detected.  Setting ReadMinima to 0
 Setting SaveMinima to 0
 using 20 threads for integral computing
 -------------------------------------------------------
 OpenMP Integral computing Module                
 Release: version 1.0, May 2013, Q-Chem Inc. Pittsburgh 
 -------------------------------------------------------
 -------------------------------------------------------
 OpenMP BLAS3 based DFT computing Module                
 Release: version 1.0, May 2013, Q-Chem Inc. Pittsburgh 
 -------------------------------------------------------
 ---------------------------------------
  Cycle       Energy         DIIS Error
 ---------------------------------------
    1    -805.1709104873      8.62E-04
    2    -805.1893101016      7.87E-05
    3    -805.1892003373      1.22E-04
    4    -805.1895046914      3.45E-05
    5    -805.1895256105      9.00E-06
    6    -805.1895271888      3.39E-06
    7    -805.1895274080      1.54E-06
    8    -805.1895274511      4.89E-07
    9    -805.1895274558      1.56E-07
   10    -805.1895274568      5.74E-08
   11    -805.1895274550      1.64E-08
   12    -805.1895274496      3.65E-09 Convergence criterion met
 ---------------------------------------
 SCF time:  CPU 776.83 s  wall 42.96 s
 SCF   energy in the final basis set = -805.18952745
 Total energy in the final basis set = -805.18952745
 
 --------------------------------------------------------------
 
                    Orbital Energies (a.u.)
 --------------------------------------------------------------
 
 Alpha MOs
 -- Occupied --
-19.179 -19.170 -19.127 -19.118 -19.112 -10.312 -10.304 -10.241
-10.233 -10.229 -10.228 -10.212 -10.203 -10.178 -10.177 -10.157
 -1.122  -1.110  -1.061  -1.032  -1.025  -0.829  -0.789  -0.782
 -0.748  -0.729  -0.690  -0.652  -0.604  -0.592  -0.569  -0.557
 -0.533  -0.517  -0.503  -0.490  -0.488  -0.484  -0.477  -0.475
 -0.461  -0.436  -0.426  -0.422  -0.416  -0.412  -0.398  -0.376
 -0.374  -0.372  -0.367  -0.359  -0.352  -0.349  -0.333  -0.328
 -0.320  -0.309  -0.289  -0.280  -0.271
 -- Virtual --
 -0.022  -0.009  -0.008  -0.001   0.004   0.011   0.014   0.022
  0.026   0.031   0.038   0.040   0.042   0.044   0.046   0.057
  0.064   0.069   0.075   0.077   0.081   0.085   0.091   0.096
  0.097   0.103   0.105   0.110   0.113   0.116   0.120   0.124
  0.129   0.131   0.132   0.135   0.139   0.140   0.141   0.144
  0.147   0.148   0.152   0.155   0.158   0.161   0.165   0.167
  0.168   0.173   0.175   0.180   0.181   0.183   0.188   0.193
  0.197   0.201   0.204   0.206   0.212   0.214   0.225   0.225
  0.229   0.234   0.236   0.239   0.247   0.253   0.258   0.263
  0.264   0.277   0.279   0.286   0.290   0.294   0.297   0.304
  0.305   0.311   0.316   0.319   0.326   0.333   0.335   0.341
  0.343   0.346   0.353   0.355   0.358   0.360   0.362   0.369
  0.378   0.379   0.385   0.392   0.392   0.393   0.404   0.415
  0.419   0.429   0.432   0.439   0.444   0.459   0.464   0.487
  0.491   0.496   0.501   0.508   0.513   0.533   0.545   0.548
  0.560   0.569   0.581   0.587   0.593   0.596   0.610   0.612
  0.625   0.629   0.634   0.643   0.651   0.656   0.663   0.667
  0.671   0.674   0.683   0.688   0.698   0.705   0.715   0.719
  0.724   0.729   0.735   0.739   0.743   0.758   0.762   0.771
  0.777   0.784   0.788   0.799   0.813   0.817   0.842   0.855
  0.877   0.890   0.894   0.922   0.953   0.979   0.983   1.010
  1.020   1.031   1.051   1.071   1.073   1.093   1.109   1.118
  1.126   1.167   1.178   1.192   1.197   1.208   1.224   1.237
  1.245   1.254   1.257   1.271   1.295   1.302   1.310   1.321
  1.335   1.343   1.353   1.370   1.391   1.394   1.396   1.420
  1.428   1.434   1.452   1.454   1.470   1.494   1.498   1.505
  1.524   1.528   1.548   1.555   1.564   1.566   1.570   1.579
  1.589   1.598   1.606   1.615   1.618   1.629   1.652   1.660
  1.672   1.683   1.695   1.704   1.710   1.714   1.721   1.730
  1.737   1.754   1.763   1.779   1.792   1.804   1.812   1.823
  1.837   1.839   1.855   1.865   1.872   1.884   1.896   1.915
  1.933   1.945   1.958   1.963   1.983   2.003   2.016   2.037
  2.050   2.059   2.065   2.086   2.108   2.115   2.126   2.132
  2.158   2.165   2.177   2.196   2.208   2.220   2.228   2.255
  2.271   2.306   2.311   2.352   2.392   2.428   2.447   2.456
  2.459   2.463   2.492   2.494   2.508   2.516   2.518   2.524
  2.539   2.545   2.559   2.582   2.591   2.600   2.607   2.636
  2.648   2.663   2.668   2.673   2.716   2.723   2.749   2.766
  2.796   2.808   2.818   2.835   2.845   2.862   2.867   2.875
  2.892   2.910   2.918   2.930   2.957   2.971   2.991   3.019
  3.038   3.043   3.053   3.068   3.073   3.094   3.112   3.123
  3.126   3.134   3.157   3.188   3.200   3.217   3.236   3.244
  3.276   3.301   3.313   3.336   3.374   3.390   3.396   3.449
  3.583   3.605   3.615   3.666   3.671   3.735   3.776   3.779
  3.824   3.845   3.851   3.866   3.915   3.946   4.004   4.035
  4.062   4.102   4.119   4.128   4.158   4.171   4.229   4.259
  4.277   4.432   4.496   5.036   5.070   5.100   5.143   5.217
  5.269   5.289   5.408   5.448   5.506   5.614   5.639   5.663
  5.883   5.889  23.783  23.825  23.851  23.868  23.891  23.928
 23.936  23.950  23.967  23.993  24.044  49.905  49.930  49.989
 50.027  50.044
 --------------------------------------------------------------
 
          Ground-State Mulliken Net Atomic Charges

     Atom                 Charge (a.u.)
  ----------------------------------------
      1 C                     0.216802
      2 C                    -0.119497
      3 C                    -0.474781
      4 C                    -0.579465
      5 O                     0.015018
      6 O                    -0.188105
      7 O                    -0.092424
      8 O                    -0.219217
      9 C                    -0.210869
     10 C                    -0.174717
     11 C                     0.155331
     12 C                    -0.652437
     13 C                    -0.217429
     14 C                     0.010708
     15 O                    -0.049490
     16 H                     0.298089
     17 H                     0.228674
     18 H                     0.182306
     19 H                     0.172052
     20 H                     0.184969
     21 H                     0.118844
     22 H                     0.167305
     23 H                     0.146242
     24 H                     0.123148
     25 H                     0.197979
     26 H                     0.154075
     27 H                     0.172549
     28 H                     0.287162
     29 C                    -0.366997
     30 H                     0.143038
     31 H                     0.177223
     32 H                     0.193914
  ----------------------------------------
  Sum of atomic charges =    -0.000000

 -----------------------------------------------------------------
                    Cartesian Multipole Moments
 -----------------------------------------------------------------
    Charge (ESU x 10^10)
                -0.0000
    Dipole Moment (Debye)
         X      -1.3594      Y       1.0679      Z       3.0960
       Tot       3.5460
    Quadrupole Moments (Debye-Ang)
        XX     -81.4539     XY       4.7720     YY     -95.9653
        XZ       1.4909     YZ       2.7118     ZZ    -100.7656
    Octopole Moments (Debye-Ang^2)
       XXX     -59.8669    XXY      -4.9726    XYY     -24.0019
       YYY      24.9418    XXZ       3.4932    XYZ      -3.2514
       YYZ      -5.1091    XZZ      -2.0961    YZZ     -10.7586
       ZZZ       9.1874
    Hexadecapole Moments (Debye-Ang^3)
      XXXX   -2324.3707   XXXY     -22.6104   XXYY    -614.3688
      XYYY      45.2409   YYYY   -1590.8563   XXXZ     -20.2547
      XXYZ       5.0050   XYYZ      -5.6335   YYYZ     -17.2051
      XXZZ    -509.6538   XYZZ       8.4335   YYZZ    -312.2520
      XZZZ      -3.0394   YZZZ      -2.9385   ZZZZ    -387.9821
 -----------------------------------------------------------------
 Calculating analytic gradient of the SCF energy
 Gradient of SCF Energy
            1           2           3           4           5           6
    1  -0.0000656  -0.0005120   0.0012352   0.0003429  -0.0004581  -0.0000097
    2  -0.0010090  -0.0006237   0.0029002   0.0015666  -0.0011232   0.0000008
    3   0.0006588   0.0016694  -0.0021418  -0.0045525   0.0007410   0.0000383
            7           8           9          10          11          12
    1   0.0001154   0.0000517  -0.0001880  -0.0001184  -0.0005808   0.0002828
    2  -0.0018334  -0.0000490   0.0000592  -0.0000110  -0.0000620   0.0003741
    3   0.0022178   0.0019020  -0.0000885  -0.0000454  -0.0003053  -0.0000003
           13          14          15          16          17          18
    1  -0.0006776   0.0005869  -0.0002447   0.0005138   0.0003387  -0.0000073
    2  -0.0003352   0.0003283   0.0004310  -0.0004088  -0.0003669  -0.0000506
    3   0.0001976  -0.0003634   0.0000206  -0.0000792   0.0000718   0.0000645
           19          20          21          22          23          24
    1   0.0000564  -0.0000833   0.0001268   0.0001119  -0.0004450   0.0000422
    2   0.0000330  -0.0001993   0.0002917  -0.0001207   0.0001754   0.0000135
    3   0.0000023  -0.0000843  -0.0000136   0.0001269  -0.0002125  -0.0000713
           25          26          27          28          29          30
    1   0.0000341  -0.0000405  -0.0000214  -0.0000403  -0.0001062  -0.0000857
    2   0.0001418  -0.0000408   0.0000938   0.0000252  -0.0001260  -0.0000308
    3   0.0000766  -0.0000077   0.0000516  -0.0001707   0.0003820  -0.0000659
           31          32
    1  -0.0000140  -0.0001401
    2  -0.0000379  -0.0000065
    3   0.0000288  -0.0000477
 Max gradient component =       4.552E-03
 RMS gradient           =       7.924E-04
 Gradient time:  CPU 311.67 s  wall 22.33 s
 Geometry Optimization Parameters
   NAtoms,    NIC,     NZ,  NCons,   NDum,   NFix, NCnnct, MaxDiis
       32     251       0       0       0       0       0       0

 Cartesian Hessian Update
 Hessian Updated using Powell/Murtagh-Sargent Update
  Mixing factors:     0.004457 Powell
                      0.995543 Murtagh-Sargent


** GEOMETRY OPTIMIZATION IN DELOCALIZED INTERNAL COORDINATES **
   Searching for a Transition State

   Optimization Cycle:   3

                       Coordinates (Angstroms)
     ATOM                X               Y               Z
      1  C         0.0684046713    1.0053086752    0.4576907712
      2  C         0.6046902581   -0.4635081055    0.6633522212
      3  C        -1.2830491232    1.1960600384   -0.2069336390
      4  C        -0.2606034458   -1.6494036972    0.2576889345
      5  O        -2.2434627999    1.4048305027    0.7234472140
      6  O        -1.4882669633    1.2273454544   -1.3936510021
      7  O        -1.5705128645   -1.3540046510    0.2071426600
      8  O         0.1595932763   -2.7732478513    0.1262655797
      9  C        -2.4609950378   -2.4343233921   -0.1281769810
     10  C        -3.5774933193    1.5694257216    0.2158622451
     11  C         1.1948018042    1.6161574620   -0.4254715837
     12  C         2.3993005110    1.9649276381    0.4643719470
     13  C         2.9054740631    0.5395699142    0.8180985634
     14  C         1.9962558836   -0.3664046556   -0.0706500241
     15  O         1.6717968964    0.4977766748   -1.1749077619
     16  H         0.0159476361    1.4994440958    1.4274262223
     17  H         0.7723693335   -0.6397474551    1.7302853911
     18  H        -2.4020725907   -3.2239275861    0.6224062975
     19  H        -3.6353028875    2.4395717037   -0.4401421896
     20  H         3.1400585309    2.5150761541   -0.1177624530
     21  H         2.1294187077    2.5686398047    1.3338144187
     22  H         3.9526340850    0.4032253623    0.5443290857
     23  H         2.8046709872    0.3007903836    1.8785342963
     24  H        -3.4548526688   -1.9932047140   -0.1458308089
     25  H        -2.2058496168   -2.8424141788   -1.1064128238
     26  H        -4.2091855601    1.7066953768    1.0909953968
     27  H        -3.8831579538    0.6828580289   -0.3423406543
     28  H         0.8540599342    2.3914788561   -1.1068380323
     29  C         2.6723304859   -1.6232911958   -0.5721805578
     30  H         3.6139699951   -1.3412941939   -1.0491495642
     31  H         2.8830517226   -2.3071859299    0.2516265823
     32  H         2.0541042194   -2.1501844411   -1.2960330212
   Point Group: c1    Number of degrees of freedom:    90


   Energy is   -805.189527450

 Hessian Updated using Powell/Murtagh-Sargent Update
  Mixing factors:     0.853339 Powell
                      0.146661 Murtagh-Sargent

 83 Hessian modes will be used to form the next step
  Hessian Eigenvalues:
    -0.005002    0.006317    0.007088    0.007474    0.008372    0.010394
     0.010584    0.010806    0.019662    0.021915    0.022734    0.023537
     0.026260    0.033690    0.036181    0.036930    0.040205    0.043961
     0.048375    0.050124    0.052120    0.054593    0.056503    0.057502
     0.057645    0.060348    0.063782    0.064823    0.066125    0.074505
     0.082604    0.093267    0.098212    0.101247    0.101347    0.105119
     0.105807    0.106150    0.122732    0.125483    0.158175    0.160000
     0.160000    0.160078    0.174117    0.231589    0.233808    0.249451
     0.249527    0.249918    0.249998    0.250000    0.251838    0.254023
     0.265019    0.278493    0.301225    0.305074    0.310673    0.338224
     0.343493    0.345217    0.345811    0.346200    0.346428    0.346700
     0.346842    0.346850    0.346990    0.347191    0.347788    0.348384
     0.350046    0.350422    0.351035    0.351470    0.351593    0.396246
     0.400578    0.543392    0.563040    1.013910    1.024841

 Transition State Search - Taking P-RFO Step
 Searching for Lamda that Maximizes Along the Lowest mode
 Value Taken    Lamda =   0.00005144
 Searching for Lamda that Minimizes Along All other modes
 Value Taken    Lamda =  -0.00062839
 Step Taken.  Stepsize is  0.174429

                             Maximum     Tolerance    Cnvgd?
         Gradient           0.003184      0.000001      NO
         Displacement       0.047606      0.000001      NO
         Energy change      0.000286      0.000000      NO


 New Cartesian Coordinates Obtained by Inverse Iteration

 Displacement from previous Coordinates is:  0.357740
 Adding empirical dispersion correction 
 ----------------------------------------------------------------
 Doing -D3(op) with
 s6 =   1.00000
 s8 =   0.78311
 a1 =   0.30000
 a2 =   4.25000
 n  =  10.00000
 -D3 energy without 3body term =     -0.0358141847 hartrees
 ----------------------------------------------------------------
             Standard Nuclear Orientation (Angstroms)
    I     Atom           X                Y                Z
 ----------------------------------------------------------------
    1      C       0.0651127107     1.0027619523     0.4681360764
    2      C       0.6115926272    -0.4596957251     0.6844354781
    3      C      -1.2895738094     1.1675304928    -0.1967699165
    4      C      -0.2581937828    -1.6490337025     0.2995450363
    5      O      -2.2447842664     1.4173605061     0.7284228806
    6      O      -1.4992017583     1.1604976320    -1.3831095865
    7      O      -1.5612868196    -1.3367550813     0.1960013209
    8      O       0.1581391965    -2.7735891541     0.1618900813
    9      C      -2.4523300763    -2.4105282381    -0.1584767520
   10      C      -3.5804411134     1.5654401851     0.2203353207
   11      C       1.1882770089     1.6120192881    -0.4191636659
   12      C       2.3952694342     1.9624351005     0.4678357175
   13      C       2.9196245689     0.5394873577     0.8047052888
   14      C       1.9961182485    -0.3685526874    -0.0662485892
   15      O       1.6618003115     0.4926518182    -1.1694463247
   16      H       0.0056884850     1.5082778518     1.4317960539
   17      H       0.7888744825    -0.6207701374     1.7520448481
   18      H      -2.4302996485    -3.1910073859     0.6034847399
   19      H      -3.6387770018     2.4075309307    -0.4712426165
   20      H       3.1272738798     2.5277569892    -0.1109960106
   21      H       2.1232594917     2.5532237169     1.3452676772
   22      H       3.9601342091     0.4122827751     0.5026450329
   23      H       2.8487816864     0.2953498353     1.8664643069
   24      H      -3.4394769952    -1.9580033179    -0.2171824740
   25      H      -2.1673035126    -2.8345833969    -1.1216404842
   26      H      -4.2075108528     1.7413593860     1.0918691594
   27      H      -3.8914958109     0.6572645681    -0.2989670646
   28      H       0.8456416255     2.3876526785    -1.0991322550
   29      C       2.6638005551    -1.6277381737    -0.5734530653
   30      H       3.6002640157    -1.3483191353    -1.0620347862
   31      H       2.8828400183    -2.3104356206     0.2490102639
   32      H       2.0363110624    -2.1548315082    -1.2891689616
 ----------------------------------------------------------------
 Nuclear Repulsion Energy =  1250.5528055611 hartrees
 There are       61 alpha and       61 beta electrons
 Applying Cartesian multipole field
    Component          Value
    ---------          -----
     (2,0,0)        1.00000E-11
     (0,2,0)        2.00000E-11
     (0,0,2)       -3.00000E-11
 Nucleus-field energy     =     0.0000000338 hartrees
 Requested basis set is 6-311++G(d,p)
 There are 176 shells and 464 basis functions
 A cutoff of  1.0D-11 yielded  12706 shell pairs
 There are     90094 function pairs (     96115 Cartesian)
 Smallest overlap matrix eigenvalue = 8.55E-07

 Q-Chem warning in module /fs/scratch/osu6415/qchem-kaunlao-vdw/stvman/mkSTV.C, line 281:

 Overlap eigenvalue is smaller than square root of threshold

 Linear dependence detected in AO basis
 Number of orthogonalized atomic orbitals = 463
 Maximum deviation from orthogonality = 1.104E-10
 Guess MOs from SCF MO coefficient file
 Reading MOs from coefficient file
 Reading MOs from coefficient file
 A restricted hybrid HF-DFT SCF calculation will be
 performed using Pulay DIIS extrapolation
 Exchange:     0.2000 Hartree-Fock + 0.0800 Slater + 0.7200 B88
 Correlation:  0.1900 VWN1RPA + 0.8100 LYP
 Using SG-1 standard quadrature grid
 Dispersion:   Grimme D3
 SCF converges when DIIS error is below 1.0E-08
 Geometry optimization detected.  Setting ReadMinima to 0
 Setting SaveMinima to 0
 using 20 threads for integral computing
 -------------------------------------------------------
 OpenMP Integral computing Module                
 Release: version 1.0, May 2013, Q-Chem Inc. Pittsburgh 
 -------------------------------------------------------
 -------------------------------------------------------
 OpenMP BLAS3 based DFT computing Module                
 Release: version 1.0, May 2013, Q-Chem Inc. Pittsburgh 
 -------------------------------------------------------
 ---------------------------------------
  Cycle       Energy         DIIS Error
 ---------------------------------------
    1    -805.1901485748      6.16E-04
    2    -805.1896741651      5.05E-05
    3    -805.1895981021      8.98E-05
    4    -805.1897545624      1.42E-05
    5    -805.1897573875      7.50E-06
    6    -805.1897585038      2.46E-06
    7    -805.1897586113      9.05E-07
    8    -805.1897586270      2.68E-07
    9    -805.1897586288      1.34E-07
   10    -805.1897586285      2.84E-08
   11    -805.1897586290      1.27E-08
   12    -805.1897586325      3.58E-09 Convergence criterion met
 ---------------------------------------
 SCF time:  CPU 765.83 s  wall 42.80 s
 SCF   energy in the final basis set = -805.18975863
 Total energy in the final basis set = -805.18975863
 
 --------------------------------------------------------------
 
                    Orbital Energies (a.u.)
 --------------------------------------------------------------
 
 Alpha MOs
 -- Occupied --
-19.179 -19.170 -19.127 -19.118 -19.111 -10.312 -10.304 -10.241
-10.233 -10.230 -10.228 -10.212 -10.202 -10.178 -10.177 -10.158
 -1.122  -1.110  -1.061  -1.032  -1.024  -0.830  -0.790  -0.782
 -0.748  -0.729  -0.690  -0.652  -0.604  -0.593  -0.570  -0.557
 -0.533  -0.517  -0.504  -0.490  -0.487  -0.484  -0.477  -0.475
 -0.460  -0.437  -0.426  -0.422  -0.416  -0.412  -0.398  -0.376
 -0.373  -0.372  -0.367  -0.358  -0.352  -0.350  -0.333  -0.328
 -0.321  -0.308  -0.289  -0.280  -0.271
 -- Virtual --
 -0.021  -0.009  -0.008  -0.001   0.004   0.011   0.014   0.021
  0.026   0.031   0.038   0.041   0.042   0.044   0.045   0.057
  0.064   0.069   0.075   0.078   0.081   0.086   0.091   0.096
  0.097   0.103   0.104   0.109   0.113   0.116   0.120   0.124
  0.129   0.131   0.132   0.134   0.139   0.140   0.142   0.144
  0.148   0.148   0.152   0.155   0.158   0.161   0.165   0.167
  0.168   0.173   0.175   0.180   0.181   0.183   0.190   0.193
  0.197   0.202   0.203   0.206   0.212   0.214   0.225   0.226
  0.229   0.234   0.236   0.240   0.246   0.254   0.257   0.262
  0.264   0.277   0.278   0.286   0.289   0.293   0.298   0.304
  0.306   0.311   0.317   0.320   0.327   0.332   0.336   0.341
  0.343   0.347   0.353   0.355   0.359   0.360   0.362   0.370
  0.378   0.381   0.386   0.391   0.393   0.394   0.404   0.415
  0.419   0.430   0.432   0.438   0.444   0.460   0.463   0.487
  0.491   0.498   0.502   0.509   0.514   0.533   0.545   0.547
  0.559   0.571   0.581   0.589   0.593   0.596   0.611   0.612
  0.626   0.629   0.634   0.643   0.649   0.657   0.663   0.667
  0.670   0.676   0.684   0.689   0.701   0.705   0.717   0.720
  0.724   0.731   0.736   0.739   0.744   0.758   0.762   0.771
  0.779   0.785   0.788   0.799   0.813   0.816   0.842   0.855
  0.874   0.892   0.895   0.921   0.954   0.977   0.981   1.010
  1.019   1.029   1.049   1.071   1.075   1.094   1.110   1.122
  1.127   1.173   1.182   1.193   1.201   1.209   1.224   1.239
  1.245   1.255   1.257   1.272   1.294   1.302   1.316   1.321
  1.333   1.347   1.353   1.368   1.392   1.394   1.398   1.422
  1.429   1.435   1.451   1.462   1.472   1.494   1.500   1.506
  1.525   1.527   1.547   1.553   1.566   1.567   1.571   1.580
  1.589   1.596   1.606   1.616   1.619   1.629   1.651   1.658
  1.672   1.682   1.696   1.705   1.711   1.715   1.722   1.731
  1.738   1.753   1.763   1.779   1.795   1.804   1.813   1.820
  1.836   1.839   1.852   1.863   1.877   1.884   1.898   1.916
  1.932   1.946   1.960   1.965   1.985   2.002   2.017   2.039
  2.050   2.061   2.064   2.090   2.109   2.115   2.126   2.134
  2.156   2.165   2.179   2.196   2.204   2.219   2.229   2.256
  2.272   2.305   2.312   2.350   2.392   2.429   2.449   2.457
  2.459   2.463   2.492   2.493   2.510   2.517   2.520   2.527
  2.539   2.545   2.559   2.580   2.591   2.600   2.606   2.637
  2.648   2.664   2.667   2.673   2.716   2.723   2.749   2.766
  2.799   2.807   2.819   2.834   2.844   2.864   2.868   2.876
  2.894   2.912   2.921   2.933   2.956   2.970   2.991   3.020
  3.037   3.043   3.054   3.068   3.075   3.095   3.112   3.126
  3.128   3.135   3.157   3.187   3.199   3.219   3.237   3.243
  3.278   3.296   3.314   3.338   3.375   3.388   3.397   3.450
  3.581   3.606   3.615   3.665   3.670   3.743   3.776   3.780
  3.824   3.845   3.852   3.868   3.915   3.948   4.006   4.036
  4.062   4.105   4.119   4.127   4.157   4.175   4.229   4.259
  4.275   4.432   4.496   5.032   5.078   5.102   5.148   5.218
  5.269   5.290   5.409   5.453   5.507   5.614   5.641   5.663
  5.883   5.891  23.782  23.825  23.852  23.869  23.893  23.929
 23.936  23.950  23.968  23.994  24.044  49.905  49.932  49.989
 50.030  50.045
 --------------------------------------------------------------
 
          Ground-State Mulliken Net Atomic Charges

     Atom                 Charge (a.u.)
  ----------------------------------------
      1 C                     0.194312
      2 C                    -0.137929
      3 C                    -0.477668
      4 C                    -0.556280
      5 O                     0.015719
      6 O                    -0.189002
      7 O                    -0.091317
      8 O                    -0.220051
      9 C                    -0.205874
     10 C                    -0.167499
     11 C                     0.177217
     12 C                    -0.651096
     13 C                    -0.226537
     14 C                     0.017397
     15 O                    -0.048303
     16 H                     0.299967
     17 H                     0.224643
     18 H                     0.183102
     19 H                     0.172315
     20 H                     0.185497
     21 H                     0.117285
     22 H                     0.167360
     23 H                     0.145547
     24 H                     0.122767
     25 H                     0.197513
     26 H                     0.154460
     27 H                     0.170220
     28 H                     0.286687
     29 C                    -0.374587
     30 H                     0.141994
     31 H                     0.178711
     32 H                     0.193430
  ----------------------------------------
  Sum of atomic charges =    -0.000000

 -----------------------------------------------------------------
                    Cartesian Multipole Moments
 -----------------------------------------------------------------
    Charge (ESU x 10^10)
                -0.0000
    Dipole Moment (Debye)
         X      -1.3189      Y       1.1259      Z       3.0565
       Tot       3.5141
    Quadrupole Moments (Debye-Ang)
        XX     -81.4194     XY       4.6964     YY     -95.9759
        XZ       1.4518     YZ       2.6781     ZZ    -100.6804
    Octopole Moments (Debye-Ang^2)
       XXX     -59.2004    XXY      -4.4169    XYY     -23.7748
       YYY      26.3162    XXZ       2.7974    XYZ      -3.0087
       YYZ      -6.8554    XZZ      -1.9053    YZZ     -10.0554
       ZZZ       7.7184
    Hexadecapole Moments (Debye-Ang^3)
      XXXX   -2324.6191   XXXY     -21.9824   XXYY    -612.2757
      XYYY      45.7098   YYYY   -1579.4409   XXXZ     -21.7326
      XXYZ       4.2264   XYYZ      -5.4425   YYYZ     -17.8656
      XXZZ    -509.2141   XYZZ       8.3761   YYZZ    -309.1999
      XZZZ      -4.5805   YZZZ      -5.7960   ZZZZ    -388.1664
 -----------------------------------------------------------------
 Calculating analytic gradient of the SCF energy
 Gradient of SCF Energy
            1           2           3           4           5           6
    1   0.0002033   0.0000591   0.0002894  -0.0006775  -0.0001222  -0.0000587
    2  -0.0003940   0.0002682   0.0003039  -0.0004467  -0.0004879  -0.0001723
    3   0.0000034  -0.0009568  -0.0003112   0.0038737   0.0001341   0.0001550
            7           8           9          10          11          12
    1  -0.0000517   0.0006307   0.0000171  -0.0000819  -0.0001041  -0.0000079
    2   0.0007833   0.0001250   0.0000395  -0.0000433  -0.0000222   0.0001065
    3  -0.0009917  -0.0016025   0.0000073  -0.0000370  -0.0001921   0.0001403
           13          14          15          16          17          18
    1   0.0000031   0.0002525  -0.0000530   0.0001474  -0.0003262   0.0000421
    2  -0.0000778   0.0003248   0.0000781  -0.0000238  -0.0003187  -0.0000073
    3  -0.0001426  -0.0000712   0.0000333  -0.0000298  -0.0000736   0.0000223
           19          20          21          22          23          24
    1  -0.0000009  -0.0000446   0.0001511   0.0001371  -0.0002259  -0.0000071
    2   0.0000249  -0.0001614   0.0001819  -0.0000303   0.0000633   0.0000540
    3   0.0000039  -0.0001187  -0.0000246   0.0001931  -0.0000575  -0.0000075
           25          26          27          28          29          30
    1  -0.0000361  -0.0000001   0.0000147  -0.0000400  -0.0000071  -0.0000345
    2  -0.0000539   0.0000052  -0.0000546  -0.0000200  -0.0000393  -0.0000052
    3   0.0000190   0.0000053  -0.0000025  -0.0000232   0.0001587  -0.0000608
           31          32
    1  -0.0000129  -0.0000552
    2   0.0000293  -0.0000290
    3  -0.0000160  -0.0000301
 Max gradient component =       3.874E-03
 RMS gradient           =       4.878E-04
 Gradient time:  CPU 309.89 s  wall 21.92 s
 Geometry Optimization Parameters
   NAtoms,    NIC,     NZ,  NCons,   NDum,   NFix, NCnnct, MaxDiis
       32     251       0       0       0       0       0       0

 Cartesian Hessian Update
 Hessian Updated using Powell/Murtagh-Sargent Update
  Mixing factors:     0.717438 Powell
                      0.282562 Murtagh-Sargent


** GEOMETRY OPTIMIZATION IN DELOCALIZED INTERNAL COORDINATES **
   Searching for a Transition State

   Optimization Cycle:   4

                       Coordinates (Angstroms)
     ATOM                X               Y               Z
      1  C         0.0651127107    1.0027619523    0.4681360764
      2  C         0.6115926272   -0.4596957251    0.6844354781
      3  C        -1.2895738094    1.1675304928   -0.1967699165
      4  C        -0.2581937828   -1.6490337025    0.2995450363
      5  O        -2.2447842664    1.4173605061    0.7284228806
      6  O        -1.4992017583    1.1604976320   -1.3831095865
      7  O        -1.5612868196   -1.3367550813    0.1960013209
      8  O         0.1581391965   -2.7735891541    0.1618900813
      9  C        -2.4523300763   -2.4105282381   -0.1584767520
     10  C        -3.5804411134    1.5654401851    0.2203353207
     11  C         1.1882770089    1.6120192881   -0.4191636659
     12  C         2.3952694342    1.9624351005    0.4678357175
     13  C         2.9196245689    0.5394873577    0.8047052888
     14  C         1.9961182485   -0.3685526874   -0.0662485892
     15  O         1.6618003115    0.4926518182   -1.1694463247
     16  H         0.0056884850    1.5082778518    1.4317960539
     17  H         0.7888744825   -0.6207701374    1.7520448481
     18  H        -2.4302996485   -3.1910073859    0.6034847399
     19  H        -3.6387770018    2.4075309307   -0.4712426165
     20  H         3.1272738798    2.5277569892   -0.1109960106
     21  H         2.1232594917    2.5532237169    1.3452676772
     22  H         3.9601342091    0.4122827751    0.5026450329
     23  H         2.8487816864    0.2953498353    1.8664643069
     24  H        -3.4394769952   -1.9580033179   -0.2171824740
     25  H        -2.1673035126   -2.8345833969   -1.1216404842
     26  H        -4.2075108528    1.7413593860    1.0918691594
     27  H        -3.8914958109    0.6572645681   -0.2989670646
     28  H         0.8456416255    2.3876526785   -1.0991322550
     29  C         2.6638005551   -1.6277381737   -0.5734530653
     30  H         3.6002640157   -1.3483191353   -1.0620347862
     31  H         2.8828400183   -2.3104356206    0.2490102639
     32  H         2.0363110624   -2.1548315082   -1.2891689616
   Point Group: c1    Number of degrees of freedom:    90


   Energy is   -805.189758633

 Hessian Updated using Powell/Murtagh-Sargent Update
  Mixing factors:     0.941340 Powell
                      0.058660 Murtagh-Sargent

 85 Hessian modes will be used to form the next step
  Hessian Eigenvalues:
    -0.013937    0.006308    0.007066    0.007429    0.009359    0.010401
     0.010782    0.010955    0.021623    0.022078    0.023011    0.024644
     0.031195    0.033565    0.036652    0.036913    0.040560    0.043958
[...]
    -0.00002413     -0.00001375     -0.00001158
    -0.00000705      0.00002405     -0.00009082
     0.00011086     -0.00011832     -0.00002732
     0.00007350     -0.00006272      0.00010402
    -0.00010424     -0.00027980      0.00001518
     0.00026620     -0.00011278      0.00023622
     0.00024537     -0.00206392      0.00105253
     0.01434617      0.03767657      0.01621437
    -0.02760869      0.00901914     -0.01333862
    -0.00033912     -0.00004696     -0.00028255
     0.00012395     -0.00020734      0.00016929
     0.00562460     -0.02408810     -0.05324389
     0.13067575     -0.06357468      0.56199561
    -0.00024900      0.00297280     -0.00353374
    -0.00004938      0.00411750     -0.00359576
    -0.29129302     -0.25340809      0.21043213
     0.13018660     -0.18575030     -0.40010325
     0.32255971     -0.02176233     -0.13839561
    -0.00302014     -0.09148534      0.29498340
     0.00186315     -0.00102075      0.00014288
    -0.00085666      0.00121438      0.00247289
    -0.00197806      0.00065102      0.00253056
    -0.00120021     -0.00363752     -0.00187670
    -0.00641483      0.02161934     -0.01317833
    -0.00599427      0.00486843      0.00462496
     0.10731612      0.03309455     -0.06147523
     0.01635716     -0.05424112      0.05804975
    -0.05198388     -0.03451351     -0.05164485
vibration 80
    -0.00053584      0.00328696      0.00635122
    -0.00305775      0.00179064     -0.01503969
     0.00007500     -0.00003034      0.00022473
    -0.00013273      0.00023253     -0.00019055
    -0.00009097      0.00001845      0.00000712
    -0.00006269     -0.00000119     -0.00004458
    -0.00000352     -0.00006932     -0.00001410
     0.00004049     -0.00010622      0.00002769
     0.00012703      0.00035701      0.00010312
     0.00038238      0.00000370      0.00038288
    -0.00030179      0.00339407     -0.00241226
    -0.01440893     -0.04228781     -0.01839385
    -0.03698186      0.01567127     -0.02335315
     0.00017672      0.00099983      0.00016694
     0.00002593      0.00000345      0.00028767
     0.00957310     -0.03666493     -0.07598507
     0.04193713     -0.02020035      0.18127666
     0.00015223     -0.00309040      0.00361413
    -0.00014119      0.00502149     -0.00441617
     0.31433374      0.27305445     -0.22791616
    -0.14659438      0.20879233      0.44547978
     0.42806018     -0.02848862     -0.18704048
    -0.00343054     -0.14684997      0.45862831
    -0.00320944      0.00136293     -0.00028320
     0.00141088     -0.00249092     -0.00477808
    -0.00230367      0.00076439      0.00289952
    -0.00190657     -0.00594637     -0.00307304
     0.01440148     -0.04472543      0.03035218
    -0.00324551      0.00287606      0.00269736
     0.06032952      0.01840562     -0.03476282
     0.00933192     -0.03132000      0.03305011
    -0.03106271     -0.02197185     -0.03228449
vibration 81
    -0.00124184      0.00523268      0.01099952
     0.00180630     -0.00115006      0.00748895
    -0.00034576      0.00019601      0.00028184
     0.00006920      0.00019939      0.00008886
     0.00003712     -0.00001015     -0.00005505
     0.00004533     -0.00001143     -0.00007928
    -0.00005289     -0.00000991      0.00000410
     0.00004141     -0.00006212     -0.00002849
     0.00001517      0.00005949     -0.00011108
     0.00009264      0.00012548     -0.00003846
     0.00206519     -0.00338234      0.00205071
     0.03950707      0.00927278     -0.05451675
    -0.03722775     -0.00863282      0.05170905
    -0.00060308     -0.00037661      0.00069499
    -0.00004967      0.00011044     -0.00009121
     0.01429617     -0.06387102     -0.12945780
    -0.02018564      0.01113106     -0.09309231
     0.00003605     -0.00091649      0.00105169
    -0.00001525     -0.00028401      0.00030166
    -0.34770694     -0.31361268      0.23632391
    -0.12520032      0.20437654      0.41318383
     0.45539249     -0.03358492     -0.18157831
    -0.01101016      0.13878127     -0.43542316
    -0.00011343      0.00002300     -0.00002234
    -0.00020037      0.00031519      0.00059063
    -0.00038723      0.00017709      0.00058034
    -0.00053327     -0.00150700     -0.00080608
    -0.01563118      0.04013491     -0.02941006
     0.00299249      0.00451668     -0.00176268
    -0.02248890     -0.00770442      0.01155169
     0.01062899     -0.03109579      0.03426260
    -0.02210985     -0.01479318     -0.02513482
vibration 82
     0.00761621     -0.03374852     -0.06936734
    -0.00205664      0.00160429     -0.00851800
     0.00151811     -0.00067557     -0.00180802
    -0.00003273      0.00049824     -0.00009085
    -0.00013672      0.00010824      0.00030557
    -0.00007929     -0.00000813      0.00064906
    -0.00004644     -0.00008121     -0.00000075
     0.00004878     -0.00015350     -0.00004117
     0.00000054      0.00010915      0.00030587
    -0.00054977      0.00050071     -0.00008895
    -0.00168077      0.00227914     -0.00221984
    -0.00789265     -0.00460543      0.00775256
    -0.01957683     -0.00398131      0.02514416
    -0.00075864      0.00004673      0.00019487
    -0.00008168      0.00027853      0.00030700
    -0.09239315      0.40034529      0.82300498
     0.02608246     -0.01318389      0.10407503
    -0.00013140      0.00024161     -0.00039607
     0.00027667     -0.00642958      0.00562016
     0.08229165      0.07511831     -0.05576168
     0.01222898     -0.01924385     -0.03550928
     0.24035545     -0.01834744     -0.09604289
    -0.00567743      0.06587878     -0.20293194
    -0.00089654      0.00025730     -0.00008563
     0.00101101     -0.00173933     -0.00333050
     0.00322305     -0.00110873     -0.00462601
     0.00158786      0.00299754      0.00167289
     0.01418449     -0.03482727      0.02479608
     0.00256288      0.00339286     -0.00131529
    -0.01967732     -0.00661500      0.01053015
     0.00786032     -0.02239774      0.02436412
    -0.01737897     -0.01149760     -0.01926979
vibration 83
    -0.00253246      0.01181494      0.02398336
     0.00170142     -0.00106453      0.00717163
    -0.00041066      0.00022365      0.00068764
    -0.00004661      0.00027451      0.00003905
     0.00002803     -0.00004193     -0.00013505
    -0.00001206      0.00000116     -0.00033165
     0.00001587     -0.00003464      0.00000810
     0.00013454     -0.00014659     -0.00006419
     0.00014471      0.00002674     -0.00058134
     0.00014869     -0.00091315      0.00010942
    -0.00175500      0.00324149     -0.00111923
    -0.03667133     -0.00676298      0.05214389
    -0.03302241     -0.00836506      0.04724581
    -0.00018618     -0.00078406      0.00075339
     0.00025875     -0.00012869     -0.00060438
     0.03268555     -0.13860359     -0.28580443
    -0.01947861      0.01125747     -0.08918787
     0.00019233     -0.00274845      0.00310264
    -0.00014279      0.00652504     -0.00592672
     0.31468319      0.28628374     -0.21602837
     0.12509796     -0.20434407     -0.40805132
     0.40821499     -0.03265897     -0.16344628
    -0.01103484      0.13140203     -0.40122464
    -0.00065667      0.00031328     -0.00015473
    -0.00132080      0.00217457      0.00407110
    -0.00165435      0.00041031      0.00224352
     0.00068106      0.00328301      0.00171683
     0.01135893     -0.03084632      0.02262958
     0.01169017      0.01528042     -0.00940256
    -0.11732054     -0.03610704      0.06512098
     0.03731519     -0.10565111      0.11494758
    -0.05977325     -0.03957854     -0.06720794
vibration 84
     0.00002695     -0.00047081     -0.00047606
     0.00003641      0.00002698     -0.00002472
     0.00005437      0.00014857     -0.00009197
    -0.00021438      0.00000824     -0.00002499
     0.00000746      0.00032859     -0.00003848
    -0.00001847      0.00016579      0.00000930
     0.00009248      0.00003006      0.00001393
     0.00005949     -0.00002342      0.00000669
     0.00149662     -0.00136236     -0.00020181
    -0.01333245     -0.09304997      0.01186990
    -0.00010560      0.00025260     -0.00024033
     0.00048860      0.00005959     -0.00071278
     0.00039423      0.00007899     -0.00051634
     0.00001232     -0.00000919      0.00000165
    -0.00001153      0.00002298      0.00000619
    -0.00081291      0.00293623      0.00597037
     0.00015499     -0.00007645      0.00058514
     0.00008763      0.00458636     -0.00577560
    -0.00295442      0.52040994     -0.48056931
    -0.00407032     -0.00367398      0.00273678
    -0.00178323      0.00291029      0.00585595
    -0.00481552      0.00040664      0.00191678
     0.00010024     -0.00137310      0.00422384
    -0.01507269      0.00695225     -0.00095187
    -0.00250228      0.00452751      0.00951825
    -0.01548297     -0.01404463      0.01869361
     0.17660995      0.59433563      0.32120991
     0.00134054     -0.00316553      0.00235567
     0.00078216      0.00090086     -0.00054785
    -0.00775474     -0.00230417      0.00441199
     0.00210288     -0.00592730      0.00641606
    -0.00383816     -0.00252750     -0.00413398
vibration 85
    -0.00027157      0.00139214      0.00291846
     0.00082884     -0.00047884      0.00164232
    -0.00005766      0.00002571      0.00011645
     0.00056626     -0.00071579     -0.00001918
     0.00000992      0.00000772     -0.00002776
     0.00000281      0.00001371     -0.00006930
    -0.00022153      0.00009752     -0.00005548
    -0.00046097      0.00030768      0.00016240
    -0.00019198      0.00028640      0.00015378
    -0.00018313     -0.00156447      0.00021301
    -0.00043391      0.00084204     -0.00020085
    -0.00665150     -0.00132471      0.00933907
    -0.01124504     -0.00254237      0.01571077
    -0.00158674     -0.00061908      0.00158225
     0.00011339      0.00028738     -0.00039827
     0.00428433     -0.01701204     -0.03559406
    -0.00448254      0.00303384     -0.02307692
     0.00007012     -0.00075071      0.00080491
    -0.00005489      0.00901562     -0.00827732
     0.05806567      0.05313415     -0.03992957
     0.02259492     -0.03696562     -0.07289999
     0.14238003     -0.01009229     -0.05523503
    -0.00343273      0.04204519     -0.13341678
     0.00198469     -0.00086310      0.00019858
     0.00080074     -0.00144491     -0.00258149
    -0.00041578     -0.00017916      0.00053227
     0.00281358      0.00950969      0.00518046
     0.00251121     -0.00696841      0.00496327
    -0.04985268     -0.06073021      0.04091240
     0.52651271      0.15646684     -0.29732208
    -0.15012006      0.41912929     -0.45209291
     0.22782721      0.14966006      0.25323605
vibration 86
     0.00004009     -0.00018312     -0.00035408
    -0.00000395      0.00006271     -0.00040374
     0.00001087     -0.00001582     -0.00020274
     0.00005465      0.00002037      0.00019723
    -0.00002265     -0.00000680      0.00004566
     0.00002861      0.00003098      0.00010553
    -0.00008308     -0.00005566      0.00038157
    -0.00005205     -0.00003403      0.00012028
     0.00858031      0.01319028     -0.09381434
    -0.00021274      0.00022779      0.00044632
     0.00003908     -0.00009970      0.00006283
     0.00012840     -0.00000869     -0.00020362
     0.00013846      0.00006005     -0.00028686
     0.00001343      0.00002683      0.00001129
    -0.00000053      0.00000354      0.00002163
    -0.00041493      0.00219405      0.00437678
     0.00026642     -0.00050115      0.00211595
     0.03756100     -0.45531875      0.51831871
    -0.00004423      0.00053362     -0.00031207
    -0.00095970     -0.00088392      0.00067764
    -0.00057526      0.00094643      0.00189300
    -0.00178213      0.00012833      0.00072898
     0.00007901     -0.00088647      0.00275382
     0.06161351     -0.02451651     -0.01283804
    -0.20045605      0.32335043      0.60342510
     0.00309942     -0.00085389     -0.00393653
    -0.00059254     -0.00234248     -0.00131055
    -0.00041671      0.00101115     -0.00075975
     0.00030612     -0.00018213      0.00064691
     0.00084702      0.00023701     -0.00028061
    -0.00124057      0.00414516     -0.00435962
    -0.00321478     -0.00222108     -0.00314513
vibration 87
     0.00064474     -0.00078961     -0.00253471
     0.00005585      0.00085602     -0.00116836
     0.00019842     -0.00017247      0.00108069
     0.00008570      0.00013722      0.00002290
    -0.00014653      0.00004192     -0.00009514
     0.00005983      0.00012722     -0.00050750
    -0.00008218     -0.00001332     -0.00002269
    -0.00002089     -0.00003789     -0.00001308
    -0.00018795      0.00018706      0.00016937
     0.00023616     -0.00051623     -0.00051011
     0.02489665     -0.06560590      0.04927884
    -0.00598242     -0.00448651      0.00313889
    -0.00196282      0.00072131     -0.00048979
    -0.00033761      0.00127327     -0.00025797
     0.00021905     -0.00046342     -0.00021282
    -0.00449930      0.01157096      0.02808994
     0.00244429     -0.00153310      0.01105360
    -0.00007518     -0.00009424      0.00012416
    -0.00018878      0.00100618     -0.00116079
     0.06440106      0.05581955     -0.04025509
     0.00207267     -0.00170085     -0.00004241
     0.01520110     -0.00101416     -0.00631646
     0.00004738     -0.00180287      0.00761586
     0.00165943     -0.00082768      0.00018740
     0.00068005     -0.00124071     -0.00231008
    -0.00438349      0.00133315      0.00532150
     0.00121210      0.00407327      0.00206706
    -0.28910490      0.75479000     -0.57063101
     0.00321874      0.00001985      0.00418022
    -0.00248444     -0.00119396      0.00244923
    -0.00617841      0.02132889     -0.02243846
    -0.02970885     -0.02089431     -0.03023171
vibration 88
     0.00010468     -0.00014423     -0.00035408
    -0.00001725      0.00005543     -0.00048021
     0.00000299     -0.00003771     -0.00002729
     0.00016247     -0.00020435     -0.00002258
    -0.00001424      0.00000566      0.00001132
     0.00000859      0.00002219      0.00001894
    -0.00003169      0.00002076     -0.00003639
    -0.00007795      0.00007475      0.00029420
    -0.00009414      0.00026600     -0.00069351
    -0.00007148     -0.00007630      0.00014298
     0.00152451     -0.00395966      0.00277100
    -0.00030067     -0.00016531      0.00001726
    -0.00070498      0.00039897      0.00047610
    -0.00116082      0.00023874     -0.00135173
     0.00022323     -0.00021352      0.00028037
    -0.00071493      0.00206911      0.00457687
     0.00080476     -0.00062568      0.00674325
     0.00032345     -0.00392707      0.00453821
    -0.00002071      0.00094578     -0.00083734
     0.00331517      0.00239212     -0.00187018
    -0.00006133      0.00056808      0.00194503
     0.01117387      0.00045952     -0.00403810
     0.00004295     -0.00021573      0.00188181
     0.00230568     -0.00101356      0.00004354
    -0.00123519      0.00193706      0.00351686
     0.00080176     -0.00029034     -0.00104475
     0.00007716      0.00022650      0.00015415
    -0.01653882      0.04346006     -0.03272912
    -0.05795399      0.00021647     -0.07195734
     0.07024312      0.02563664     -0.05857721
     0.11288722     -0.38623429      0.40002786
     0.51153220      0.35666776      0.51773651
vibration 89
     0.00000005     -0.00002938     -0.00004357
    -0.00001367      0.00000335     -0.00003880
    -0.00074253      0.00006597     -0.00104631
    -0.00005140     -0.00001191     -0.00001704
    -0.00020615      0.00001886      0.00033514
     0.00023309      0.00000266      0.00052462
    -0.00000406     -0.00000381      0.00002540
     0.00001282     -0.00000641      0.00000331
     0.00297284     -0.00213455     -0.00057614
     0.03849984     -0.01596030     -0.08466014
    -0.00018210      0.00046883     -0.00035555
     0.00004373     -0.00001406     -0.00006452
    -0.00000177      0.00001166     -0.00002915
    -0.00000987     -0.00000166     -0.00000767
     0.00001314      0.00000152      0.00001231
     0.00021614      0.00062077      0.00141884
     0.00019323     -0.00008885      0.00053835
     0.00032886      0.00402787     -0.00559878
     0.00592925     -0.24590905      0.19554458
    -0.00022079     -0.00021916      0.00013563
    -0.00020696      0.00030037      0.00062713
     0.00012546     -0.00000852     -0.00005371
     0.00001051     -0.00016528      0.00047431
    -0.03064059      0.01398737     -0.00282444
    -0.00444489      0.00734285      0.01522809
    -0.53777521      0.17983270      0.69609176
     0.08129181      0.25513121      0.11399582
     0.00198579     -0.00547565      0.00410123
    -0.00013783     -0.00001514     -0.00012525
     0.00045118      0.00015074     -0.00029641
     0.00019419     -0.00070229      0.00071971
     0.00102377      0.00073525      0.00106397
vibration 90
    -0.00000058     -0.00000343      0.00005225
     0.00001628     -0.00005211     -0.00002848
    -0.00018239      0.00004694     -0.00005726
     0.00027714      0.00122946      0.00015864
     0.00005997     -0.00000968     -0.00000373
     0.00005000     -0.00000459      0.00003903
     0.00024461     -0.00025359     -0.00001541
     0.00001638     -0.00053821     -0.00005880
    -0.07556583      0.05671234      0.00154782
     0.00092262     -0.00251570     -0.00322865
    -0.00008000      0.00021213     -0.00014486
     0.00001666      0.00002933      0.00001031
     0.00001675     -0.00000343     -0.00001626
     0.00001594      0.00001703     -0.00001222
     0.00000376     -0.00002081      0.00000621
     0.00006057     -0.00031532     -0.00055467
    -0.00002893     -0.00020903      0.00024461
    -0.00126216     -0.16691767      0.21328937
     0.00034708     -0.00140296      0.00032199
    -0.00025142     -0.00024632      0.00018931
     0.00009379     -0.00016145     -0.00033515
    -0.00021747     -0.00000990      0.00007741
     0.00002578     -0.00005613      0.00020786
     0.81074963     -0.36919198      0.06907323
     0.08281216     -0.14045225     -0.30127107
    -0.01929810      0.00608960      0.02509315
     0.00798038      0.02565038      0.01283596
     0.00087443     -0.00243536      0.00183668
     0.00031640      0.00022818      0.00000830
    -0.00225516     -0.00074626      0.00127423
     0.00040517     -0.00073512      0.00084607
    -0.00194070     -0.00133440     -0.00224448
[INT]
    1.778355
    0.298484
    2.841559
    2.224523
    0.725201
    0.510844
    0.165048
    1.090520
    0.083723
    2.107191
    2.887404
    0.935597
    3.766827
    7.091019
    5.369066
    2.577563
    3.024614
    0.532753
   14.320412
   13.577438
   15.406903
    8.384634
    4.307662
    4.304411
    3.519006
    6.619376
    2.426788
   28.036549
   10.510985
    2.129956
    1.930999
   10.335349
   15.272272
    1.772407
   12.263959
    2.837418
   11.557186
   22.135402
   44.178104
   29.347078
   45.348874
   16.538941
   25.720076
    4.854883
    0.717480
   36.178776
  190.196038
    6.810906
   34.510896
    7.823207
   24.109820
    4.122742
   34.228202
  428.367901
   72.078576
   12.030459
   23.533819
    1.087931
   10.593375
   23.247927
   52.371449
   13.206366
    8.215129
   22.873228
    6.079953
    4.842063
    9.213522
   15.084487
    3.748923
    4.113973
    7.851744
    6.932092
  271.192019
  199.656697
   33.330056
   11.939112
   35.526331
    6.283457
   32.998663
   34.797520
    0.291699
    4.942105
   32.714049
   22.762138
   28.096584
   14.150010
   18.659881
   11.223773
   16.645753
   12.724221

======= END OF MOLDEN-FORMATTED INPUT FILE =======


        *************************************************************
        *                                                           *
        *  Thank you very much for using Q-Chem.  Have a nice day.  *
        *                                                           *
        *************************************************************


