mFile = /opt/software/qchem/qchem-5.0.1//bin/mpi/machines
Process 0 of 1 is on vega03.cac.cornell.edu - thread support 0
initial socket setup ...start
initial socket setup ...done 
now start server 0 ... 
vega03 10.84.3
Q-Chem Developer Version! Running on 10.84.3.*
                  Welcome to Q-Chem
     A Quantum Leap Into The Future Of Chemistry


 Q-Chem 5.0, Q-Chem, Inc., Pleasanton, CA (2017)

 Yihan Shao,  Zhengting Gan,  E. Epifanovsky,  A. T. B. Gilbert,  M. Wormit,  
 J. Kussmann,  A. W. Lange,  A. Behn,  Jia Deng,  Xintian Feng,  D. Ghosh,  
 M. Goldey,  P. R. Horn,  L. D. Jacobson,  I. Kaliman,  T. Kus,  A. Landau,  
 Jie Liu,  E. I. Proynov,  R. M. Richard,  R. P. Steele,  E. J. Sundstrom,  
 H. L. Woodcock III,  P. M. Zimmerman,  D. Zuev,  B. Albrecht,  E. Alguire,  
 S. A. Baeppler,  Z. Benda,  Y. A. Bernard,  E. J. Berquist,  K. B. Bravaya,  
 D. Casanova,  Chun-Min Chang,  Yunqing Chen,  A. Chien,  K. D. Closser,  
 M. P. Coons,  S. Dasgupta,  M. Diedenhofen,  Hainam Do,  R. G. Edgar,  
 Po-Tung Fang,  S. Fatehi,  Qingguo Feng,  Qinghui Ge,  A. Ghysels,  
 J. Gomes,  J. Gonthier,  A. Gunina,  M. W. D. Hanson-Heine,  
 P. H. P. Harbach,  A. W. Hauser,  J. E. Herr,  E. G. Hohenstein,  
 Z. C. Holden,  Kerwin Hui,  T.-C. Jagau,  Hyunjun Ji,  B. Kaduk,  
 K. Khistyaev,  Jaehoon Kim,  P. Klunzinger,  K. Koh,  D. Kosenkov,  
 T. Kowalczyk,  C. M. Krauter,  A. Kunitsa,  Ka Un Lao,  A. Laurent,  
 K. V. Lawler,  Joonho Lee,  D. Lefrancois,  S. Lehtola,  D. S. Levine,  
 Yi-Pei Li,  You-Sheng Lin,  Fenglai Liu,  E. Livshits,  A. Luenser,  
 P. Manohar,  E. Mansoor,  S. F. Manzer,  Shan-Ping Mao,  Yuezhi Mao,  
 N. Mardirossian,  A. V. Marenich,  L. A. Martinez-Martinez,  S. A. Maurer,  
 N. J. Mayhall,  S. C. McKenzie,  J.-M. Mewes,  A. F. Morrison,  K. Nanda,  
 T. S. Nguyen-Beck,  R. Olivares-Amaya,  J. A. Parkhill,  T. M. Perrine,  
 F. Plasser,  S. Prager,  A. Prociuk,  D. R. Rehn,  F. Rob,  M. Schneider,  
 N. Sergueev,  S. M. Sharada,  S. Sharma,  D. W. Small,  T. Stauch,  
 T. Stein,  Yu-Chuan Su,  A. J. W. Thom,  T. Tsuchimochi,  L. Vogt,  
 O. Vydrov,  M. A. Watson,  J. Wenzel,  M. de Wergifosse,  T. A. Wesolowski,  
 A. White,  J. Witte,  A. Yamada,  Jun Yang,  K. Yao,  S. Yeganeh,  
 S. R. Yost,  Zhi-Qiang You,  A. Zech,  Igor Ying Zhang,  Xing Zhang,  
 Yan Zhao,  Ying Zhu,  B. R. Brooks,  G. K. L. Chan,  C. J. Cramer,  
 M. S. Gordon,  W. J. Hehre,  A. Klamt,  M. W. Schmidt,  C. D. Sherrill,  
 D. G. Truhlar,  A. Aspuru-Guzik,  R. Baer,  A. T. Bell,  N. A. Besley,  
 Jeng-Da Chai,  A. Dreuw,  B. D. Dunietz,  T. R. Furlani,  Chao-Ping Hsu,  
 Yousung Jung,  Jing Kong,  D. S. Lambrecht,  WanZhen Liang,  C. Ochsenfeld,  
 V. A. Rassolov,  L. V. Slipchenko,  J. E. Subotnik,  T. Van Voorhis,  
 J. M. Herbert,  A. I. Krylov,  P. M. W. Gill,  M. Head-Gordon

 Contributors to earlier versions of Q-Chem not listed above: 
 R. D. Adamson,  B. Austin,  J. Baker,  G. J. O. Beran,  K. Brandhorst,  
 S. T. Brown,  E. F. C. Byrd,  A. K. Chakraborty,  C.-L. Cheng,  
 Siu Hung Chien,  D. M. Chipman,  D. L. Crittenden,  H. Dachsel,  
 R. A. DiStasio Jr.,  R. J. Doerksen,  A. D. Dutoi,  L. Fusti-Molnar,  
 W. A. Goddard III,  A. Golubeva-Zadorozhnaya,  S. R. Gwaltney,  G. Hawkins,  
 A. Heyden,  S. Hirata,  G. Kedziora,  F. J. Keil,  C. Kelley,  Jihan Kim,  
 R. A. King,  R. Z. Khaliullin,  P. P. Korambath,  W. Kurlancheek,  
 A. M. Lee,  M. S. Lee,  S. V. Levchenko,  Ching Yeh Lin,  D. Liotard,  
 R. C. Lochan,  I. Lotan,  P. E. Maslen,  N. Nair,  D. P. O'Neill,  
 D. Neuhauser,  E. Neuscamman,  C. M. Oana,  R. Olson,  B. Peters,  
 R. Peverati,  P. A. Pieniazek,  Y. M. Rhee,  J. Ritchie,  M. A. Rohrdanz,  
 E. Rosta,  N. J. Russ,  H. F. Schaefer III,  N. E. Schultz,  N. Shenvi,  
 A. C. Simmonett,  A. Sodt,  D. Stuck,  K. S. Thanthiriwatte,  V. Vanovschi,  
 Tao Wang,  A. Warshel,  C. F. Williams,  Q. Wu,  X. Xu,  W. Zhang

 Please cite Q-Chem as follows:
 Y. Shao et al., Mol. Phys. 113, 184-215 (2015)
 DOI: 10.1080/00268976.2014.952696

 Q-Chem 5.0.1 for Intel X86 EM64T Linux

 Parts of Q-Chem use Armadillo 5.200.1 (Boston Tea Smuggler).
 http://arma.sourceforge.net/

 Q-Chem begins on Mon Apr  2 17:10:23 2018  

Host: vega03.cac.cornell.edu
0

     Scratch files written to /scratch/jj585/vdw/11n01_distance_5.200_11.save//
 Parallel job on  1  processors

Checking the input file for inconsistencies... 	...done.

--------------------------------------------------------------
User input:
--------------------------------------------------------------
$molecule
0  1
--
0  1
C        -0.54444000        -0.68370000        -0.06689000
C        -0.55709000        +0.71878000        +0.05493000
C        +0.74969000        -1.43776000        -0.09374000
C        +0.72843000        +1.48436000        +0.06598000
O        +1.53645000        -1.09176000        +0.94813000
O        +1.04702000        -2.28405000        -0.90088000
O        +1.53784000        +1.08301000        -0.93877000
O        +1.01035000        +2.37097000        +0.83478000
C        +2.83449000        +1.70121000        -0.99358000
C        +2.82316000        -1.73208000        +1.00475000
C        -1.74320000        -1.41616000        -0.12552000
C        -2.93952000        -0.70056000        -0.05285000
C        -2.95313000        +0.68255000        +0.06934000
C        -1.77161000        +1.42404000        +0.12810000
H        +2.73835000        +2.77989000        -1.12464000
H        +2.70778000        -2.81319000        +1.09555000
H        -3.90354000        +1.20325000        +0.11710000
H        +3.38998000        +1.50093000        -0.07544000
H        +3.33184000        +1.25269000        -1.85067000
H        +3.31095000        -1.32281000        +1.88650000
H        +3.39889000        -1.50934000        +0.10459000
H        -3.87892000        -1.24211000        -0.08988000
C        -1.83960000        +2.92746000        +0.24839000
H        -1.24214000        +3.42352000        -0.52065000
H        -1.45503000        +3.26427000        +1.21284000
H        -2.87211000        +3.26623000        +0.14638000
H        -1.73878000        -2.44393000        -0.21875000
--
0  1
C        -0.50866000        -1.13710000        +5.11318000
C        -0.52131000        +0.26538000        +5.23500000
C        +0.78547000        -1.89116000        +5.08633000
C        +0.76421000        +1.03096000        +5.24605000
O        +1.57223000        -1.54516000        +6.12820000
O        +1.08280000        -2.73745000        +4.27919000
O        +1.57362000        +0.62961000        +4.24130000
O        +1.04613000        +1.91757000        +6.01485000
C        +2.87027000        +1.24781000        +4.18649000
C        +2.85894000        -2.18548000        +6.18482000
C        -1.70742000        -1.86956000        +5.05455000
C        -2.90374000        -1.15396000        +5.12722000
C        -2.91735000        +0.22915000        +5.24941000
C        -1.73583000        +0.97064000        +5.30817000
H        +2.77413000        +2.32649000        +4.05543000
H        +2.74356000        -3.26659000        +6.27562000
H        -3.86776000        +0.74985000        +5.29717000
H        +3.42576000        +1.04753000        +5.10463000
H        +3.36762000        +0.79929000        +3.32940000
H        +3.34673000        -1.77621000        +7.06657000
H        +3.43467000        -1.96274000        +5.28466000
H        -3.84314000        -1.69551000        +5.09019000
C        -1.80382000        +2.47406000        +5.42846000
H        -1.20636000        +2.97012000        +4.65942000
H        -1.41925000        +2.81087000        +6.39291000
H        -2.83633000        +2.81283000        +5.32645000
H        -1.70300000        -2.89733000        +4.96132000
$end

$rem
JOBTYPE                   SP
METHOD                    B3LYP
DFT_D                     d3_op
BASIS                     6-311++G(d,p)
SYMMETRY                  False
THRESH                    12
SCF_CONVERGENCE           8
MAX_SUB_FILE_NUM          128
MEM_STATIC                400
MEM_TOTAL                 4000
$end
--------------------------------------------------------------
 Adding empirical dispersion correction 
 ----------------------------------------------------------------
 Doing -D3(op) with
 s6 =   1.00000
 s8 =   0.78311
 a1 =   0.30000
 a2 =   4.25000
 n  =  10.00000
 -D3 energy without 3body term =     -0.0644351258 hartrees
 ----------------------------------------------------------------
             Standard Nuclear Orientation (Angstroms)
    I     Atom           X                Y                Z
 ----------------------------------------------------------------
    1      C      -2.5577769543     0.2236363338     1.2230306039
    2      C      -2.6390316397     0.7239268565    -0.0903837840
    3      C      -2.4507788972    -1.2490696367     1.4755942656
    4      C      -2.7130787312    -0.2178858791    -1.2506864638
    5      O      -1.4543211553    -1.7968686573     0.7467674026
    6      O      -3.1219817887    -1.8724404738     2.2610765063
    7      O      -3.6337690421    -1.1822734103    -1.0315176381
    8      O      -2.0743236049    -0.1261393626    -2.2705806171
    9      C      -3.7515842327    -2.1894603374    -2.0504242448
   10      C      -1.2812247285    -3.2179931414     0.8856233660
   11      C      -2.5338766728     1.0922415166     2.3284330098
   12      C      -2.5881073888     2.4632467205     2.0716264842
   13      C      -2.6662311545     2.9578308548     0.7764847500
   14      C      -2.6916362022     2.1084814836    -0.3313103110
   15      H      -4.0381407349    -1.7390208552    -3.0017180005
   16      H      -1.0382728591    -3.4737938988     1.9180459433
   17      H      -2.7123116705     4.0299731349     0.6181301073
   18      H      -2.8035505377    -2.7159872078    -2.1755795319
   19      H      -4.5254744117    -2.8674998920    -1.6975973266
   20      H      -0.4581090050    -3.4748826014     0.2227414830
   21      H      -2.1926652297    -3.7426158360     0.5933676439
   22      H      -2.5652186683     3.1556356081     2.9066077524
   23      C      -2.7899878576     2.6950830414    -1.7189664590
   24      H      -3.6105481082     2.2526049994    -2.2893615450
   25      H      -1.8766438572     2.5157519349    -2.2891786605
   26      H      -2.9597102191     3.7716688962    -1.6606117653
   27      H      -2.4783414405     0.7298923321     3.2931306042
   28      C       2.6333873771     0.3879967291     0.9685202541
   29      C       2.5521326917     0.8882872518    -0.3448941338
   30      C       2.7403854342    -1.0847092414     1.2210839158
   31      C       2.4780856002    -0.0535254838    -1.5051968136
   32      O       3.7368431761    -1.6325082620     0.4922570529
   33      O       2.0691825427    -1.7080800785     2.0065661566
   34      O       1.5573952893    -1.0179130149    -1.2860279878
   35      O       3.1168407265     0.0382210327    -2.5250909668
   36      C       1.4395800987    -2.0250999421    -2.3049345946
   37      C       3.9099396029    -3.0536327461     0.6311130162
   38      C       2.6572876586     1.2566019119     2.0739226601
   39      C       2.6030569426     2.6276071158     1.8171161345
   40      C       2.5249331769     3.1221912501     0.5219744003
   41      C       2.4995281292     2.2728418789    -0.5858206608
   42      H       1.1530235965    -1.5746604599    -3.2562283502
   43      H       4.1528914723    -3.3094335035     1.6635355935
   44      H       2.4788526609     4.1943335302     0.3636197575
   45      H       2.3876137937    -2.5516268125    -2.4300898817
   46      H       0.6656899197    -2.7031394967    -1.9521076763
   47      H       4.7330553264    -3.3105222061    -0.0317688667
   48      H       2.9984991017    -3.5782554407     0.3388572941
   49      H       2.6259456631     3.3199960034     2.6520974027
   50      C       2.4011764739     2.8594434367    -1.9734768087
   51      H       1.5806162232     2.4169653947    -2.5438718948
   52      H       3.3145204742     2.6801123303    -2.5436890103
   53      H       2.2314541123     3.9360292915    -1.9151221151
   54      H       2.7128228909     0.8942527274     3.0386202545
 ----------------------------------------------------------------
 Molecular Point Group                 C1    NOp =  1
 Largest Abelian Subgroup              C1    NOp =  1
 Nuclear Repulsion Energy =  3091.7351939517 hartrees
 There are      110 alpha and      110 beta electrons
 Requested basis set is 6-311++G(d,p)
 There are 300 shells and 828 basis functions

 Total QAlloc Memory Limit   4000 MB
 Mega-Array Size       392 MB
 MEM_STATIC part       400 MB
 A cutoff of  1.0D-12 yielded  31463 shell pairs
 There are    240398 function pairs (    255160 Cartesian)
 
 -------------------------------------------------------
 OpenMP Integral Computing Module                       
 Release: version 1.0, May 2013, Q-Chem Inc. Pittsburgh 
 -------------------------------------------------------
 Integral Job Info:
 Integral job number is                      11
 Integral operator is                         1
 short-range coefficients                     0
 long-range coefficients              100000000
 Omega coefficients                           0
 if combine SR and LR in K                    0
 Integral screening is                        0
 Integral computing path is                   2
 max size of driver memory is            800000
 size of driver memory is                593474
 size of scratch memory is              2361544
 max col of scratch BK array               1296
 max len of scratch array in speh3          155
 max len of scratch index in speh4           18
 max int batch size is                      520
 min int batch size is                       52
 fixed nKL is                                52
 max L of basis functions is                  2
 order of int derivative is                   0
 number of shells is                        300
 number of basis is                         858
 number of cartesian basis is               858
 number of contracted shell pairs         31463
 number of primitive shell pairs          68321
 maxK2 (contraction) of shell pair           36
 max number of K2 of shell pair               1
 max number of CS2 of shell pair           6295
 max number of PS2 of shell pair          11496
 mem total for path MDJ                  460712
 -------------------------------------------------------
 Smallest overlap matrix eigenvalue = 7.34E-08
 Linear dependence detected in AO basis
 Number of orthogonalized atomic orbitals = 822
 Maximum deviation from orthogonality = 2.985E-10

 Scale SEOQF with 1.000000e-01/1.000000e-01/1.000000e-01

 Standard Electronic Orientation quadrupole field applied
 Nucleus-field energy     =     0.0000000583 hartrees
 Guess from superposition of atomic densities
 Warning:  Energy on first SCF cycle will be non-variational
 A restricted hybrid HF-DFT SCF calculation will be
 performed using Pulay DIIS extrapolation
 Exchange:     0.2000 Hartree-Fock + 0.0800 Slater + 0.7200 B88
 Correlation:  0.1900 VWN1RPA + 0.8100 LYP
 Using SG-1 standard quadrature grid
 Dispersion:   Grimme D3
 SCF converges when DIIS error is below 1.0E-08
 using 2 threads for integral computing
 -------------------------------------------------------
 OpenMP Integral computing Module                
 Release: version 1.0, May 2013, Q-Chem Inc. Pittsburgh 
 -------------------------------------------------------
 -------------------------------------------------------
 OpenMP BLAS3 based DFT computing Module                
 Release: version 1.0, May 2013, Q-Chem Inc. Pittsburgh 
 -------------------------------------------------------
 ---------------------------------------
  Cycle       Energy         DIIS Error
 ---------------------------------------
    1   -1461.3654268505      2.26E-02
    2   -1454.4957063982      2.91E-03
    3   -1453.4658624053      5.05E-03
    4   -1454.9851107654      1.22E-03
    5   -1455.0870687120      3.00E-04
    6   -1455.0918745650      1.24E-04
    7   -1455.0928219017      2.98E-05
    8   -1455.0928645663      1.62E-05
    9   -1455.0928799052      3.65E-06
   10   -1455.0928807379      8.94E-07
   11   -1455.0928807938      2.31E-07
   12   -1455.0928807972      1.10E-07
   13   -1455.0928807979      4.13E-08
   14   -1455.0928807978      1.10E-08
   15   -1455.0928807977      6.37E-09 Convergence criterion met
 ---------------------------------------
 SCF time:  CPU 3374.82 s  wall 1694.58 s
 SCF   energy in the final basis set = -1455.09288080
 Total energy in the final basis set = -1455.09288080
 
 --------------------------------------------------------------
 
                    Orbital Energies (a.u.)
 --------------------------------------------------------------
 
 Alpha MOs
 -- Occupied --
-19.177 -19.176 -19.172 -19.169 -19.120 -19.119 -19.116 -19.113
-10.312 -10.311 -10.308 -10.306 -10.233 -10.232 -10.228 -10.225
-10.208 -10.207 -10.205 -10.205 -10.204 -10.204 -10.191 -10.190
-10.189 -10.187 -10.187 -10.187 -10.173 -10.170  -1.120  -1.119
 -1.112  -1.109  -1.032  -1.030  -1.027  -1.024  -0.883  -0.883
 -0.799  -0.798  -0.792  -0.792  -0.744  -0.744  -0.729  -0.727
 -0.702  -0.701  -0.652  -0.651  -0.624  -0.624  -0.579  -0.577
 -0.574  -0.570  -0.547  -0.546  -0.519  -0.517  -0.511  -0.510
 -0.490  -0.490  -0.486  -0.485  -0.481  -0.478  -0.476  -0.474
 -0.469  -0.468  -0.445  -0.443  -0.434  -0.432  -0.430  -0.429
 -0.427  -0.424  -0.411  -0.409  -0.404  -0.402  -0.393  -0.393
 -0.382  -0.380  -0.376  -0.374  -0.368  -0.367  -0.363  -0.362
 -0.360  -0.358  -0.320  -0.319  -0.310  -0.308  -0.295  -0.294
 -0.291  -0.289  -0.267  -0.265  -0.262  -0.260
 -- Virtual --
 -0.057  -0.055  -0.037  -0.034  -0.016  -0.011  -0.004   0.002
  0.005   0.009   0.010   0.011   0.014   0.018   0.020   0.023
  0.026   0.028   0.029   0.034   0.036   0.041   0.042   0.042
  0.046   0.047   0.050   0.051   0.059   0.062   0.064   0.067
  0.070   0.072   0.075   0.082   0.084   0.089   0.091   0.091
  0.094   0.100   0.101   0.105   0.108   0.109   0.110   0.111
  0.112   0.114   0.115   0.118   0.119   0.122   0.124   0.125
  0.127   0.130   0.131   0.132   0.134   0.137   0.138   0.140
  0.141   0.143   0.144   0.146   0.149   0.150   0.153   0.154
  0.157   0.158   0.160   0.161   0.164   0.164   0.170   0.172
  0.172   0.177   0.179   0.181   0.182   0.182   0.186   0.187
  0.191   0.193   0.195   0.197   0.199   0.202   0.205   0.206
  0.211   0.212   0.215   0.218   0.219   0.221   0.224   0.225
  0.228   0.231   0.234   0.235   0.237   0.239   0.239   0.244
  0.247   0.250   0.253   0.254   0.256   0.257   0.260   0.265
  0.266   0.267   0.269   0.273   0.276   0.279   0.281   0.283
  0.286   0.287   0.287   0.292   0.293   0.294   0.297   0.300
  0.301   0.304   0.307   0.312   0.315   0.319   0.319   0.322
  0.326   0.329   0.330   0.333   0.336   0.338   0.341   0.344
  0.345   0.351   0.354   0.358   0.360   0.363   0.366   0.367
  0.371   0.372   0.374   0.378   0.385   0.385   0.386   0.390
  0.394   0.395   0.398   0.402   0.403   0.407   0.410   0.410
  0.414   0.417   0.420   0.431   0.436   0.437   0.441   0.450
  0.456   0.460   0.464   0.469   0.471   0.474   0.482   0.494
  0.498   0.507   0.510   0.514   0.518   0.525   0.527   0.531
  0.533   0.540   0.541   0.543   0.556   0.557   0.561   0.565
  0.568   0.570   0.571   0.576   0.584   0.585   0.588   0.598
  0.601   0.604   0.606   0.610   0.614   0.617   0.621   0.625
  0.627   0.633   0.636   0.641   0.651   0.655   0.657   0.659
  0.666   0.671   0.671   0.674   0.678   0.679   0.685   0.687
  0.688   0.691   0.693   0.695   0.698   0.703   0.708   0.710
  0.713   0.720   0.722   0.726   0.734   0.737   0.740   0.742
  0.749   0.752   0.756   0.759   0.764   0.768   0.772   0.777
  0.780   0.783   0.790   0.796   0.802   0.802   0.806   0.809
  0.820   0.824   0.826   0.830   0.836   0.845   0.854   0.858
  0.861   0.868   0.877   0.886   0.891   0.896   0.907   0.910
  0.921   0.929   0.938   0.940   0.955   0.961   0.968   0.977
  0.986   0.989   0.995   1.009   1.011   1.021   1.028   1.034
  1.035   1.048   1.057   1.064   1.067   1.071   1.074   1.081
  1.085   1.090   1.097   1.111   1.117   1.121   1.128   1.134
  1.142   1.158   1.164   1.178   1.181   1.186   1.197   1.202
  1.212   1.220   1.224   1.238   1.241   1.249   1.252   1.261
  1.266   1.272   1.279   1.290   1.298   1.305   1.311   1.314
  1.319   1.324   1.325   1.338   1.344   1.349   1.362   1.366
  1.379   1.383   1.390   1.398   1.403   1.405   1.409   1.411
  1.423   1.427   1.441   1.445   1.455   1.470   1.471   1.473
  1.478   1.483   1.490   1.493   1.494   1.511   1.521   1.526
  1.529   1.533   1.535   1.546   1.555   1.558   1.559   1.563
  1.567   1.573   1.579   1.582   1.587   1.592   1.597   1.602
  1.605   1.609   1.617   1.621   1.627   1.634   1.636   1.647
  1.654   1.666   1.670   1.675   1.679   1.691   1.694   1.702
  1.711   1.716   1.721   1.724   1.728   1.731   1.732   1.737
  1.744   1.750   1.757   1.762   1.773   1.777   1.786   1.790
  1.792   1.797   1.798   1.801   1.809   1.816   1.818   1.825
  1.833   1.846   1.855   1.862   1.869   1.871   1.878   1.893
  1.899   1.906   1.923   1.924   1.930   1.936   1.940   1.952
  1.957   1.962   1.974   1.981   1.993   2.001   2.009   2.012
  2.016   2.024   2.038   2.047   2.066   2.067   2.070   2.082
  2.095   2.101   2.104   2.113   2.126   2.129   2.133   2.139
  2.155   2.156   2.164   2.170   2.194   2.197   2.206   2.215
  2.237   2.241   2.251   2.254   2.284   2.295   2.312   2.316
  2.343   2.349   2.384   2.390   2.415   2.420   2.445   2.454
  2.458   2.465   2.488   2.492   2.496   2.504   2.508   2.513
  2.516   2.521   2.527   2.531   2.544   2.549   2.552   2.563
  2.577   2.582   2.587   2.592   2.595   2.601   2.607   2.613
  2.621   2.636   2.649   2.652   2.661   2.666   2.669   2.677
  2.696   2.699   2.709   2.715   2.721   2.737   2.749   2.751
  2.756   2.765   2.771   2.775   2.783   2.789   2.790   2.795
  2.802   2.820   2.836   2.838   2.843   2.846   2.855   2.861
  2.876   2.879   2.880   2.884   2.893   2.902   2.903   2.910
  2.912   2.914   2.918   2.922   2.938   2.942   2.955   2.960
  2.973   2.976   3.015   3.016   3.039   3.041   3.051   3.057
  3.065   3.073   3.083   3.093   3.106   3.108   3.128   3.131
  3.137   3.141   3.183   3.190   3.216   3.225   3.229   3.231
  3.245   3.251   3.260   3.262   3.263   3.270   3.289   3.291
  3.321   3.326   3.375   3.379   3.386   3.388   3.415   3.419
  3.455   3.464   3.526   3.530   3.566   3.573   3.595   3.600
  3.628   3.632   3.660   3.667   3.706   3.721   3.745   3.770
  3.779   3.782   3.795   3.796   3.798   3.800   3.835   3.841
  3.865   3.869   3.878   3.886   3.928   3.948   4.043   4.043
  4.049   4.053   4.080   4.082   4.117   4.128   4.156   4.162
  4.163   4.174   4.277   4.285   4.342   4.355   4.363   4.370
  4.844   4.846   5.056   5.078   5.108   5.152   5.169   5.176
  5.220   5.227   5.248   5.264   5.270   5.288   5.406   5.409
  5.445   5.451   5.624   5.625   5.635   5.636   5.888   5.891
  5.907   5.916  23.584  23.644  23.853  23.859  23.864  23.881
 23.930  23.932  23.935  23.937  23.945  23.949  23.958  23.976
 23.995  24.025  24.061  24.066  24.081  24.085  24.176  24.177
 49.896  49.897  49.933  49.934  50.018  50.024  50.034  50.037
 --------------------------------------------------------------
 
          Ground-State Mulliken Net Atomic Charges

     Atom                 Charge (a.u.)
  ----------------------------------------
      1 C                     0.416266
      2 C                     1.133834
      3 C                    -0.489037
      4 C                    -1.012526
      5 O                     0.112050
      6 O                    -0.176768
      7 O                     0.094193
      8 O                    -0.098644
      9 C                    -0.184121
     10 C                    -0.340154
     11 C                    -0.539054
     12 C                    -0.200193
     13 C                    -0.420606
     14 C                     0.200791
     15 H                     0.166414
     16 H                     0.204257
     17 H                     0.149250
     18 H                     0.179000
     19 H                     0.172690
     20 H                     0.097232
     21 H                     0.186387
     22 H                     0.183516
     23 C                    -0.545371
     24 H                     0.173977
     25 H                     0.191853
     26 H                     0.147069
     27 H                     0.193758
     28 C                     0.597134
     29 C                     0.872844
     30 C                    -0.884761
     31 C                    -0.750368
     32 O                     0.082169
     33 O                    -0.105428
     34 O                     0.102510
     35 O                    -0.150552
     36 C                    -0.324169
     37 C                    -0.172456
     38 C                    -0.534083
     39 C                    -0.192079
     40 C                    -0.494093
     41 C                     0.392361
     42 H                     0.197286
     43 H                     0.169804
     44 H                     0.149188
     45 H                     0.195566
     46 H                     0.104622
     47 H                     0.172716
     48 H                     0.173612
     49 H                     0.185331
     50 C                    -0.513676
     51 H                     0.200320
     52 H                     0.214293
     53 H                     0.135141
     54 H                     0.180705
  ----------------------------------------
  Sum of atomic charges =     0.000000

 -----------------------------------------------------------------
                    Cartesian Multipole Moments
 -----------------------------------------------------------------
    Charge (ESU x 10^10)
                 0.0000
    Dipole Moment (Debye)
         X       0.2533      Y       0.3688      Z      -0.8040
       Tot       0.9201
    Quadrupole Moments (Debye-Ang)
        XX    -182.5606     XY      -7.3287     YY    -144.6057
        XZ      16.9265     YZ      14.2257     ZZ    -180.3532
    Octopole Moments (Debye-Ang^2)
       XXX       7.7592    XXY     -38.9576    XYY      20.0042
       YYY     -56.0102    XXZ     -24.2622    XYZ     -24.7060
       YYZ     -27.0693    XZZ      -7.6131    YZZ       9.0270
       ZZZ      10.8749
    Hexadecapole Moments (Debye-Ang^3)
      XXXX   -8033.7041   XXXY    -160.4531   XXYY   -1817.3475
      XYYY     -57.4993   YYYY   -4034.6392   XXXZ     366.8513
      XXYZ     100.5430   XYYZ      53.9832   YYYZ      45.0467
      XXZZ   -1849.4659   XYZZ     -20.2501   YYZZ   -1166.6498
      XZZZ     114.6206   YZZZ     115.2315   ZZZZ   -2910.2814
 -----------------------------------------------------------------
Archival summary:
1\1\vega03.cac.cornell.edu\SP\ProcedureUnspecified\BasisUnspecified\82224\jj585\MonApr217:38:402018MonApr217:38:402018\0\\#,ProcedureUnspecified,BasisUnspecified,\\0,1\O\C,1,1.3512\O,2,1.2069,1,123.501\C,1,1.43752,2,116.164,3,4.8931,0\H,4,1.08772,1,105.376,2,179.706,0\H,4,1.09086,1,110.507,2,-60.681,0\H,4,1.09163,1,110.367,2,60.0909,0\C,2,1.49626,1,110.928,3,178.057,0\C,8,1.40634,2,119.012,1,-130.615,0\C,9,1.39616,8,117.536,2,177.857,0\H,10,1.08475,9,118.991,8,-179.6,0\C,10,1.38856,9,121.629,8,0.183585,0\H,12,1.08495,10,119.453,9,179.671,0\C,12,1.3959,10,121.575,9,-0.129654,0\H,14,1.032,12,121.26,10,-179.84,0\C,14,1.40604,12,117.481,10,0.160349,0\C,16,1.49803,14,118.266,12,177.84,0\O,17,1.20668,16,125.302,14,50.5403,0\O,17,1.35063,16,111.128,14,-126.75,0\C,19,1.43835,17,115.94,16,-178.519,0\H,20,1.08762,19,105.403,17,179.104,0\H,20,1.09103,19,110.475,17,-61.3232,0\H,20,1.0915,19,110.399,17,59.3962,0\C,9,1.50976,8,122.848,2,-1.37569,0\H,24,1.09144,9,110.135,8,171.975,0\H,24,1.09156,9,111.21,8,-67.4939,0\H,24,1.09291,9,111.796,8,51.7903,0\H,5,2.5668,4,140.693,1,-23.7248,0\C,28,1.08762,5,140.963,4,88.2626,0\H,29,1.09103,28,110.661,5,-148.175,0\H,29,1.0915,28,110.808,5,90.7113,0\O,29,1.43835,28,105.403,5,-28.7252,0\C,32,1.35063,29,115.94,28,179.104,0\O,33,1.20668,32,123.512,29,4.13325,0\C,33,1.49803,32,111.128,29,-178.519,0\C,35,1.40604,33,118.266,32,-126.75,0\H,36,1.032,35,121.26,33,-2.16035,0\C,36,1.3959,35,117.481,33,177.84,0\H,38,1.08495,36,118.972,35,-179.641,0\C,38,1.38856,36,121.575,35,0.160349,0\H,40,1.08475,38,119.38,36,179.653,0\C,40,1.39616,38,121.629,36,-0.129654,0\C,42,1.40634,40,117.536,38,0.183585,0\C,43,1.49626,42,119.012,40,177.857,0\O,44,1.2069,43,125.54,42,47.3939,0\O,44,1.3512,43,110.928,42,-130.615,0\C,46,1.43752,44,116.164,43,-177.05,0\H,47,1.08772,46,105.376,44,179.706,0\H,47,1.09086,46,110.507,44,-60.681,0\H,47,1.09163,46,110.367,44,60.0909,0\C,42,1.50976,40,119.611,38,179.442,0\H,51,1.09144,42,110.135,40,-7.24194,0\H,51,1.09156,42,111.21,40,113.289,0\H,51,1.09291,42,111.796,40,-127.427,0\\\@

 Total job time:  1696.46s(wall), 3377.18s(cpu) 
 Mon Apr  2 17:38:40 2018

        *************************************************************
        *                                                           *
        *  Thank you very much for using Q-Chem.  Have a nice day.  *
        *                                                           *
        *************************************************************


0 sent ACK to 0 
now end server 0 ... 
