mFile = /opt/software/qchem/qchem-5.0.1//bin/mpi/machines
Process 0 of 1 is on vega03.cac.cornell.edu - thread support 0
initial socket setup ...start
initial socket setup ...done 
now start server 0 ... 
vega03 10.84.3
Q-Chem Developer Version! Running on 10.84.3.*
                  Welcome to Q-Chem
     A Quantum Leap Into The Future Of Chemistry


 Q-Chem 5.0, Q-Chem, Inc., Pleasanton, CA (2017)

 Yihan Shao,  Zhengting Gan,  E. Epifanovsky,  A. T. B. Gilbert,  M. Wormit,  
 J. Kussmann,  A. W. Lange,  A. Behn,  Jia Deng,  Xintian Feng,  D. Ghosh,  
 M. Goldey,  P. R. Horn,  L. D. Jacobson,  I. Kaliman,  T. Kus,  A. Landau,  
 Jie Liu,  E. I. Proynov,  R. M. Richard,  R. P. Steele,  E. J. Sundstrom,  
 H. L. Woodcock III,  P. M. Zimmerman,  D. Zuev,  B. Albrecht,  E. Alguire,  
 S. A. Baeppler,  Z. Benda,  Y. A. Bernard,  E. J. Berquist,  K. B. Bravaya,  
 D. Casanova,  Chun-Min Chang,  Yunqing Chen,  A. Chien,  K. D. Closser,  
 M. P. Coons,  S. Dasgupta,  M. Diedenhofen,  Hainam Do,  R. G. Edgar,  
 Po-Tung Fang,  S. Fatehi,  Qingguo Feng,  Qinghui Ge,  A. Ghysels,  
 J. Gomes,  J. Gonthier,  A. Gunina,  M. W. D. Hanson-Heine,  
 P. H. P. Harbach,  A. W. Hauser,  J. E. Herr,  E. G. Hohenstein,  
 Z. C. Holden,  Kerwin Hui,  T.-C. Jagau,  Hyunjun Ji,  B. Kaduk,  
 K. Khistyaev,  Jaehoon Kim,  P. Klunzinger,  K. Koh,  D. Kosenkov,  
 T. Kowalczyk,  C. M. Krauter,  A. Kunitsa,  Ka Un Lao,  A. Laurent,  
 K. V. Lawler,  Joonho Lee,  D. Lefrancois,  S. Lehtola,  D. S. Levine,  
 Yi-Pei Li,  You-Sheng Lin,  Fenglai Liu,  E. Livshits,  A. Luenser,  
 P. Manohar,  E. Mansoor,  S. F. Manzer,  Shan-Ping Mao,  Yuezhi Mao,  
 N. Mardirossian,  A. V. Marenich,  L. A. Martinez-Martinez,  S. A. Maurer,  
 N. J. Mayhall,  S. C. McKenzie,  J.-M. Mewes,  A. F. Morrison,  K. Nanda,  
 T. S. Nguyen-Beck,  R. Olivares-Amaya,  J. A. Parkhill,  T. M. Perrine,  
 F. Plasser,  S. Prager,  A. Prociuk,  D. R. Rehn,  F. Rob,  M. Schneider,  
 N. Sergueev,  S. M. Sharada,  S. Sharma,  D. W. Small,  T. Stauch,  
 T. Stein,  Yu-Chuan Su,  A. J. W. Thom,  T. Tsuchimochi,  L. Vogt,  
 O. Vydrov,  M. A. Watson,  J. Wenzel,  M. de Wergifosse,  T. A. Wesolowski,  
 A. White,  J. Witte,  A. Yamada,  Jun Yang,  K. Yao,  S. Yeganeh,  
 S. R. Yost,  Zhi-Qiang You,  A. Zech,  Igor Ying Zhang,  Xing Zhang,  
 Yan Zhao,  Ying Zhu,  B. R. Brooks,  G. K. L. Chan,  C. J. Cramer,  
 M. S. Gordon,  W. J. Hehre,  A. Klamt,  M. W. Schmidt,  C. D. Sherrill,  
 D. G. Truhlar,  A. Aspuru-Guzik,  R. Baer,  A. T. Bell,  N. A. Besley,  
 Jeng-Da Chai,  A. Dreuw,  B. D. Dunietz,  T. R. Furlani,  Chao-Ping Hsu,  
 Yousung Jung,  Jing Kong,  D. S. Lambrecht,  WanZhen Liang,  C. Ochsenfeld,  
 V. A. Rassolov,  L. V. Slipchenko,  J. E. Subotnik,  T. Van Voorhis,  
 J. M. Herbert,  A. I. Krylov,  P. M. W. Gill,  M. Head-Gordon

 Contributors to earlier versions of Q-Chem not listed above: 
 R. D. Adamson,  B. Austin,  J. Baker,  G. J. O. Beran,  K. Brandhorst,  
 S. T. Brown,  E. F. C. Byrd,  A. K. Chakraborty,  C.-L. Cheng,  
 Siu Hung Chien,  D. M. Chipman,  D. L. Crittenden,  H. Dachsel,  
 R. A. DiStasio Jr.,  R. J. Doerksen,  A. D. Dutoi,  L. Fusti-Molnar,  
 W. A. Goddard III,  A. Golubeva-Zadorozhnaya,  S. R. Gwaltney,  G. Hawkins,  
 A. Heyden,  S. Hirata,  G. Kedziora,  F. J. Keil,  C. Kelley,  Jihan Kim,  
 R. A. King,  R. Z. Khaliullin,  P. P. Korambath,  W. Kurlancheek,  
 A. M. Lee,  M. S. Lee,  S. V. Levchenko,  Ching Yeh Lin,  D. Liotard,  
 R. C. Lochan,  I. Lotan,  P. E. Maslen,  N. Nair,  D. P. O'Neill,  
 D. Neuhauser,  E. Neuscamman,  C. M. Oana,  R. Olson,  B. Peters,  
 R. Peverati,  P. A. Pieniazek,  Y. M. Rhee,  J. Ritchie,  M. A. Rohrdanz,  
 E. Rosta,  N. J. Russ,  H. F. Schaefer III,  N. E. Schultz,  N. Shenvi,  
 A. C. Simmonett,  A. Sodt,  D. Stuck,  K. S. Thanthiriwatte,  V. Vanovschi,  
 Tao Wang,  A. Warshel,  C. F. Williams,  Q. Wu,  X. Xu,  W. Zhang

 Please cite Q-Chem as follows:
 Y. Shao et al., Mol. Phys. 113, 184-215 (2015)
 DOI: 10.1080/00268976.2014.952696

 Q-Chem 5.0.1 for Intel X86 EM64T Linux

 Parts of Q-Chem use Armadillo 5.200.1 (Boston Tea Smuggler).
 http://arma.sourceforge.net/

 Q-Chem begins on Mon Apr  2 00:58:46 2018  

Host: vega03.cac.cornell.edu
0

     Scratch files written to /scratch/jj585/vdw/11n11_distance_5.600_10.save//
 Parallel job on  1  processors

Checking the input file for inconsistencies... 	...done.

--------------------------------------------------------------
User input:
--------------------------------------------------------------
$molecule
0  1
C        -0.54444000        -0.68370000        -0.06689000
C        -0.55709000        +0.71878000        +0.05493000
C        +0.74969000        -1.43776000        -0.09374000
C        +0.72843000        +1.48436000        +0.06598000
O        +1.53645000        -1.09176000        +0.94813000
O        +1.04702000        -2.28405000        -0.90088000
O        +1.53784000        +1.08301000        -0.93877000
O        +1.01035000        +2.37097000        +0.83478000
C        +2.83449000        +1.70121000        -0.99358000
C        +2.82316000        -1.73208000        +1.00475000
C        -1.74320000        -1.41616000        -0.12552000
C        -2.93952000        -0.70056000        -0.05285000
C        -2.95313000        +0.68255000        +0.06934000
C        -1.77161000        +1.42404000        +0.12810000
H        +2.73835000        +2.77989000        -1.12464000
H        +2.70778000        -2.81319000        +1.09555000
H        -3.90354000        +1.20325000        +0.11710000
H        +3.38998000        +1.50093000        -0.07544000
H        +3.33184000        +1.25269000        -1.85067000
H        +3.31095000        -1.32281000        +1.88650000
H        +3.39889000        -1.50934000        +0.10459000
H        -3.87892000        -1.24211000        -0.08988000
C        -1.83960000        +2.92746000        +0.24839000
C        -1.78103000        -2.92226000        -0.24590000
H        -1.39752000        -3.25223000        -1.21323000
H        -2.80572000        -3.28175000        -0.13627000
H        -1.16958000        -3.40777000        +0.51926000
H        -1.24214000        +3.42352000        -0.52065000
H        -1.45503000        +3.26427000        +1.21284000
H        -2.87211000        +3.26623000        +0.14638000
@C        -0.50590000        -1.17197000        +5.51165000
@C        -0.51855000        +0.23051000        +5.63347000
@C        +0.78823000        -1.92603000        +5.48480000
@C        +0.76697000        +0.99609000        +5.64452000
@O        +1.57499000        -1.58003000        +6.52667000
@O        +1.08556000        -2.77232000        +4.67766000
@O        +1.57638000        +0.59474000        +4.63977000
@O        +1.04889000        +1.88270000        +6.41332000
@C        +2.87303000        +1.21294000        +4.58496000
@C        +2.86170000        -2.22035000        +6.58329000
@C        -1.70466000        -1.90443000        +5.45302000
@C        -2.90098000        -1.18883000        +5.52569000
@C        -2.91459000        +0.19428000        +5.64788000
@C        -1.73307000        +0.93577000        +5.70664000
@H        +2.77689000        +2.29162000        +4.45390000
@H        +2.74632000        -3.30146000        +6.67409000
@H        -3.86500000        +0.71498000        +5.69564000
@H        +3.42852000        +1.01266000        +5.50310000
@H        +3.37038000        +0.76442000        +3.72787000
@H        +3.34949000        -1.81108000        +7.46504000
@H        +3.43743000        -1.99761000        +5.68313000
@H        -3.84038000        -1.73038000        +5.48866000
@C        -1.80106000        +2.43919000        +5.82693000
@C        -1.74249000        -3.41053000        +5.33264000
@H        -1.35898000        -3.74050000        +4.36531000
@H        -2.76718000        -3.77002000        +5.44227000
@H        -1.13104000        -3.89604000        +6.09780000
@H        -1.20360000        +2.93525000        +5.05789000
@H        -1.41649000        +2.77600000        +6.79138000
@H        -2.83357000        +2.77796000        +5.72492000
$end

$rem
JOBTYPE                   SP
METHOD                    B3LYP
DFT_D                     d3_op
BASIS                     6-311++G(d,p)
SYMMETRY                  False
THRESH                    12
SCF_CONVERGENCE           8
MAX_SUB_FILE_NUM          128
MEM_STATIC                400
MEM_TOTAL                 4000
$end
--------------------------------------------------------------
 Adding empirical dispersion correction 
 ----------------------------------------------------------------
 Doing -D3(op) with
 s6 =   1.00000
 s8 =   0.78311
 a1 =   0.30000
 a2 =   4.25000
 n  =  10.00000
 -D3 energy without 3body term =     -0.0335599997 hartrees
 ----------------------------------------------------------------
             Standard Nuclear Orientation (Angstroms)
    I     Atom           X                Y                Z
 ----------------------------------------------------------------
    1      C      -0.5444400000    -0.6837000000    -0.0668900000
    2      C      -0.5570900000     0.7187800000     0.0549300000
    3      C       0.7496900000    -1.4377600000    -0.0937400000
    4      C       0.7284300000     1.4843600000     0.0659800000
    5      O       1.5364500000    -1.0917600000     0.9481300000
    6      O       1.0470200000    -2.2840500000    -0.9008800000
    7      O       1.5378400000     1.0830100000    -0.9387700000
    8      O       1.0103500000     2.3709700000     0.8347800000
    9      C       2.8344900000     1.7012100000    -0.9935800000
   10      C       2.8231600000    -1.7320800000     1.0047500000
   11      C      -1.7432000000    -1.4161600000    -0.1255200000
   12      C      -2.9395200000    -0.7005600000    -0.0528500000
   13      C      -2.9531300000     0.6825500000     0.0693400000
   14      C      -1.7716100000     1.4240400000     0.1281000000
   15      H       2.7383500000     2.7798900000    -1.1246400000
   16      H       2.7077800000    -2.8131900000     1.0955500000
   17      H      -3.9035400000     1.2032500000     0.1171000000
   18      H       3.3899800000     1.5009300000    -0.0754400000
   19      H       3.3318400000     1.2526900000    -1.8506700000
   20      H       3.3109500000    -1.3228100000     1.8865000000
   21      H       3.3988900000    -1.5093400000     0.1045900000
   22      H      -3.8789200000    -1.2421100000    -0.0898800000
   23      C      -1.8396000000     2.9274600000     0.2483900000
   24      C      -1.7810300000    -2.9222600000    -0.2459000000
   25      H      -1.3975200000    -3.2522300000    -1.2132300000
   26      H      -2.8057200000    -3.2817500000    -0.1362700000
   27      H      -1.1695800000    -3.4077700000     0.5192600000
   28      H      -1.2421400000     3.4235200000    -0.5206500000
   29      H      -1.4550300000     3.2642700000     1.2128400000
   30      H      -2.8721100000     3.2662300000     0.1463800000
   31      GH     -0.5059000000    -1.1719700000     5.5116500000
   32      GH     -0.5185500000     0.2305100000     5.6334700000
   33      GH      0.7882300000    -1.9260300000     5.4848000000
   34      GH      0.7669700000     0.9960900000     5.6445200000
   35      GH      1.5749900000    -1.5800300000     6.5266700000
   36      GH      1.0855600000    -2.7723200000     4.6776600000
   37      GH      1.5763800000     0.5947400000     4.6397700000
   38      GH      1.0488900000     1.8827000000     6.4133200000
   39      GH      2.8730300000     1.2129400000     4.5849600000
   40      GH      2.8617000000    -2.2203500000     6.5832900000
   41      GH     -1.7046600000    -1.9044300000     5.4530200000
   42      GH     -2.9009800000    -1.1888300000     5.5256900000
   43      GH     -2.9145900000     0.1942800000     5.6478800000
   44      GH     -1.7330700000     0.9357700000     5.7066400000
   45      GH      2.7768900000     2.2916200000     4.4539000000
   46      GH      2.7463200000    -3.3014600000     6.6740900000
   47      GH     -3.8650000000     0.7149800000     5.6956400000
   48      GH      3.4285200000     1.0126600000     5.5031000000
   49      GH      3.3703800000     0.7644200000     3.7278700000
   50      GH      3.3494900000    -1.8110800000     7.4650400000
   51      GH      3.4374300000    -1.9976100000     5.6831300000
   52      GH     -3.8403800000    -1.7303800000     5.4886600000
   53      GH     -1.8010600000     2.4391900000     5.8269300000
   54      GH     -1.7424900000    -3.4105300000     5.3326400000
   55      GH     -1.3589800000    -3.7405000000     4.3653100000
   56      GH     -2.7671800000    -3.7700200000     5.4422700000
   57      GH     -1.1310400000    -3.8960400000     6.0978000000
   58      GH     -1.2036000000     2.9352500000     5.0578900000
   59      GH     -1.4164900000     2.7760000000     6.7913800000
   60      GH     -2.8335700000     2.7779600000     5.7249200000
 ----------------------------------------------------------------
 Nuclear Repulsion Energy =  1146.4724567292 hartrees
 There are       59 alpha and       59 beta electrons
 Requested basis set is 6-311++G(d,p)
 There are 332 shells and 900 basis functions

 Total QAlloc Memory Limit   4000 MB
 Mega-Array Size       392 MB
 MEM_STATIC part       400 MB
 A cutoff of  1.0D-12 yielded  37496 shell pairs
 There are    274790 function pairs (    291163 Cartesian)
 
 -------------------------------------------------------
 OpenMP Integral Computing Module                       
 Release: version 1.0, May 2013, Q-Chem Inc. Pittsburgh 
 -------------------------------------------------------
 Integral Job Info:
 Integral job number is                      11
 Integral operator is                         1
 short-range coefficients                     0
 long-range coefficients              100000000
 Omega coefficients                           0
 if combine SR and LR in K                    0
 Integral screening is                        0
 Integral computing path is                   2
 max size of driver memory is            800000
 size of driver memory is                593474
 size of scratch memory is              2361544
 max col of scratch BK array               1296
 max len of scratch array in speh3          155
 max len of scratch index in speh4           18
 max int batch size is                      520
 min int batch size is                       52
 fixed nKL is                                52
 max L of basis functions is                  2
 order of int derivative is                   0
 number of shells is                        332
 number of basis is                         932
 number of cartesian basis is               932
 number of contracted shell pairs         37496
 number of primitive shell pairs          80222
 maxK2 (contraction) of shell pair           36
 max number of K2 of shell pair               1
 max number of CS2 of shell pair           7705
 max number of PS2 of shell pair          12714
 mem total for path MDJ                  506010
 -------------------------------------------------------
 Smallest overlap matrix eigenvalue = 1.80E-08
 Linear dependence detected in AO basis
 Number of orthogonalized atomic orbitals = 891
 Maximum deviation from orthogonality = 1.919E-10

 Scale SEOQF with 1.000000e-01/1.000000e-01/1.000000e-02

 Standard Electronic Orientation quadrupole field applied
 Nucleus-field energy     =     0.0000000441 hartrees
 Guess from superposition of atomic densities
 Warning:  Energy on first SCF cycle will be non-variational

 Q-Chem warning in module /opt/software/qchem/qchem-5.0.1/libgen/Atomic_PolEc.C, line 58:

 No atomic polarizability available.


 Q-Chem warning in module /opt/software/qchem/qchem-5.0.1/libgen/Atomic_PolEc.C, line 73:

 No atomic polarizability available.


 Q-Chem warning in module /opt/software/qchem/qchem-5.0.1/libgen/Atomic_PolEc.C, line 58:

 No atomic polarizability available.


 Q-Chem warning in module /opt/software/qchem/qchem-5.0.1/libgen/Atomic_PolEc.C, line 73:

 No atomic polarizability available.


 Q-Chem warning in module /opt/software/qchem/qchem-5.0.1/libgen/Atomic_PolEc.C, line 58:

 No atomic polarizability available.


 Q-Chem warning in module /opt/software/qchem/qchem-5.0.1/libgen/Atomic_PolEc.C, line 73:

 No atomic polarizability available.


 Q-Chem warning in module /opt/software/qchem/qchem-5.0.1/libgen/Atomic_PolEc.C, line 58:

 No atomic polarizability available.


 Q-Chem warning in module /opt/software/qchem/qchem-5.0.1/libgen/Atomic_PolEc.C, line 73:

 No atomic polarizability available.


 Q-Chem warning in module /opt/software/qchem/qchem-5.0.1/libgen/Atomic_PolEc.C, line 58:

 No atomic polarizability available.


 Q-Chem warning in module /opt/software/qchem/qchem-5.0.1/libgen/Atomic_PolEc.C, line 73:

 No atomic polarizability available.


 Q-Chem warning in module /opt/software/qchem/qchem-5.0.1/libgen/Atomic_PolEc.C, line 58:

 No atomic polarizability available.


 Q-Chem warning in module /opt/software/qchem/qchem-5.0.1/libgen/Atomic_PolEc.C, line 73:

 No atomic polarizability available.


 Q-Chem warning in module /opt/software/qchem/qchem-5.0.1/libgen/Atomic_PolEc.C, line 58:

 No atomic polarizability available.


 Q-Chem warning in module /opt/software/qchem/qchem-5.0.1/libgen/Atomic_PolEc.C, line 73:

 No atomic polarizability available.


 Q-Chem warning in module /opt/software/qchem/qchem-5.0.1/libgen/Atomic_PolEc.C, line 58:

 No atomic polarizability available.


 Q-Chem warning in module /opt/software/qchem/qchem-5.0.1/libgen/Atomic_PolEc.C, line 73:

 No atomic polarizability available.


 Q-Chem warning in module /opt/software/qchem/qchem-5.0.1/libgen/Atomic_PolEc.C, line 58:

 No atomic polarizability available.


 Q-Chem warning in module /opt/software/qchem/qchem-5.0.1/libgen/Atomic_PolEc.C, line 73:

 No atomic polarizability available.


 Q-Chem warning in module /opt/software/qchem/qchem-5.0.1/libgen/Atomic_PolEc.C, line 58:

 No atomic polarizability available.


 Q-Chem warning in module /opt/software/qchem/qchem-5.0.1/libgen/Atomic_PolEc.C, line 73:

 No atomic polarizability available.


 Q-Chem warning in module /opt/software/qchem/qchem-5.0.1/libgen/Atomic_PolEc.C, line 58:

 No atomic polarizability available.


 Q-Chem warning in module /opt/software/qchem/qchem-5.0.1/libgen/Atomic_PolEc.C, line 73:

 No atomic polarizability available.


 Q-Chem warning in module /opt/software/qchem/qchem-5.0.1/libgen/Atomic_PolEc.C, line 58:

 No atomic polarizability available.


 Q-Chem warning in module /opt/software/qchem/qchem-5.0.1/libgen/Atomic_PolEc.C, line 73:

 No atomic polarizability available.


 Q-Chem warning in module /opt/software/qchem/qchem-5.0.1/libgen/Atomic_PolEc.C, line 58:

 No atomic polarizability available.


 Q-Chem warning in module /opt/software/qchem/qchem-5.0.1/libgen/Atomic_PolEc.C, line 73:

 No atomic polarizability available.


 Q-Chem warning in module /opt/software/qchem/qchem-5.0.1/libgen/Atomic_PolEc.C, line 58:

 No atomic polarizability available.


 Q-Chem warning in module /opt/software/qchem/qchem-5.0.1/libgen/Atomic_PolEc.C, line 73:

 No atomic polarizability available.


 Q-Chem warning in module /opt/software/qchem/qchem-5.0.1/libgen/Atomic_PolEc.C, line 58:

 No atomic polarizability available.


 Q-Chem warning in module /opt/software/qchem/qchem-5.0.1/libgen/Atomic_PolEc.C, line 73:

 No atomic polarizability available.


 Q-Chem warning in module /opt/software/qchem/qchem-5.0.1/libgen/Atomic_PolEc.C, line 58:

 No atomic polarizability available.


 Q-Chem warning in module /opt/software/qchem/qchem-5.0.1/libgen/Atomic_PolEc.C, line 73:

 No atomic polarizability available.


 Q-Chem warning in module /opt/software/qchem/qchem-5.0.1/libgen/Atomic_PolEc.C, line 58:

 No atomic polarizability available.


 Q-Chem warning in module /opt/software/qchem/qchem-5.0.1/libgen/Atomic_PolEc.C, line 73:

 No atomic polarizability available.


 Q-Chem warning in module /opt/software/qchem/qchem-5.0.1/libgen/Atomic_PolEc.C, line 58:

 No atomic polarizability available.


 Q-Chem warning in module /opt/software/qchem/qchem-5.0.1/libgen/Atomic_PolEc.C, line 73:

 No atomic polarizability available.


 Q-Chem warning in module /opt/software/qchem/qchem-5.0.1/libgen/Atomic_PolEc.C, line 58:

 No atomic polarizability available.


 Q-Chem warning in module /opt/software/qchem/qchem-5.0.1/libgen/Atomic_PolEc.C, line 73:

 No atomic polarizability available.


 Q-Chem warning in module /opt/software/qchem/qchem-5.0.1/libgen/Atomic_PolEc.C, line 58:

 No atomic polarizability available.


 Q-Chem warning in module /opt/software/qchem/qchem-5.0.1/libgen/Atomic_PolEc.C, line 73:

 No atomic polarizability available.


 Q-Chem warning in module /opt/software/qchem/qchem-5.0.1/libgen/Atomic_PolEc.C, line 58:

 No atomic polarizability available.


 Q-Chem warning in module /opt/software/qchem/qchem-5.0.1/libgen/Atomic_PolEc.C, line 73:

 No atomic polarizability available.


 Q-Chem warning in module /opt/software/qchem/qchem-5.0.1/libgen/Atomic_PolEc.C, line 58:

 No atomic polarizability available.


 Q-Chem warning in module /opt/software/qchem/qchem-5.0.1/libgen/Atomic_PolEc.C, line 73:

 No atomic polarizability available.


 Q-Chem warning in module /opt/software/qchem/qchem-5.0.1/libgen/Atomic_PolEc.C, line 58:

 No atomic polarizability available.


 Q-Chem warning in module /opt/software/qchem/qchem-5.0.1/libgen/Atomic_PolEc.C, line 73:

 No atomic polarizability available.


 Q-Chem warning in module /opt/software/qchem/qchem-5.0.1/libgen/Atomic_PolEc.C, line 58:

 No atomic polarizability available.


 Q-Chem warning in module /opt/software/qchem/qchem-5.0.1/libgen/Atomic_PolEc.C, line 73:

 No atomic polarizability available.


 Q-Chem warning in module /opt/software/qchem/qchem-5.0.1/libgen/Atomic_PolEc.C, line 58:

 No atomic polarizability available.


 Q-Chem warning in module /opt/software/qchem/qchem-5.0.1/libgen/Atomic_PolEc.C, line 73:

 No atomic polarizability available.


 Q-Chem warning in module /opt/software/qchem/qchem-5.0.1/libgen/Atomic_PolEc.C, line 58:

 No atomic polarizability available.


 Q-Chem warning in module /opt/software/qchem/qchem-5.0.1/libgen/Atomic_PolEc.C, line 73:

 No atomic polarizability available.


 Q-Chem warning in module /opt/software/qchem/qchem-5.0.1/libgen/Atomic_PolEc.C, line 58:

 No atomic polarizability available.


 Q-Chem warning in module /opt/software/qchem/qchem-5.0.1/libgen/Atomic_PolEc.C, line 73:

 No atomic polarizability available.


 Q-Chem warning in module /opt/software/qchem/qchem-5.0.1/libgen/Atomic_PolEc.C, line 58:

 No atomic polarizability available.


 Q-Chem warning in module /opt/software/qchem/qchem-5.0.1/libgen/Atomic_PolEc.C, line 73:

 No atomic polarizability available.


 Q-Chem warning in module /opt/software/qchem/qchem-5.0.1/libgen/Atomic_PolEc.C, line 58:

 No atomic polarizability available.


 Q-Chem warning in module /opt/software/qchem/qchem-5.0.1/libgen/Atomic_PolEc.C, line 73:

 No atomic polarizability available.


 Q-Chem warning in module /opt/software/qchem/qchem-5.0.1/libgen/Atomic_PolEc.C, line 58:

 No atomic polarizability available.


 Q-Chem warning in module /opt/software/qchem/qchem-5.0.1/libgen/Atomic_PolEc.C, line 73:

 No atomic polarizability available.

 A restricted hybrid HF-DFT SCF calculation will be
 performed using Pulay DIIS extrapolation
 Exchange:     0.2000 Hartree-Fock + 0.0800 Slater + 0.7200 B88
 Correlation:  0.1900 VWN1RPA + 0.8100 LYP
 Using SG-1 standard quadrature grid
 Dispersion:   Grimme D3
 SCF converges when DIIS error is below 1.0E-08
 using 2 threads for integral computing
 -------------------------------------------------------
 OpenMP Integral computing Module                
 Release: version 1.0, May 2013, Q-Chem Inc. Pittsburgh 
 -------------------------------------------------------
 -------------------------------------------------------
 OpenMP BLAS3 based DFT computing Module                
 Release: version 1.0, May 2013, Q-Chem Inc. Pittsburgh 
 -------------------------------------------------------
 ---------------------------------------
  Cycle       Energy         DIIS Error
 ---------------------------------------
    1    -770.1912332151      1.52E-02
    2    -766.5497191256      1.97E-03
    3    -766.0281994333      3.34E-03
    4    -766.8169098701      8.43E-04
    5    -766.8742747539      1.88E-04
    6    -766.8763631075      8.49E-05
    7    -766.8768884724      1.41E-05
    8    -766.8769021414      5.17E-06
    9    -766.8769044234      1.25E-06
   10    -766.8769045180      7.02E-07
   11    -766.8769045697      1.47E-07
   12    -766.8769045714      6.45E-08
   13    -766.8769045715      2.87E-08
   14    -766.8769045716      6.05E-09 Convergence criterion met
 ---------------------------------------
 SCF time:  CPU 4224.64 s  wall 2122.71 s
 SCF   energy in the final basis set = -766.87690457
 Total energy in the final basis set = -766.87690457
 
 --------------------------------------------------------------
 
                    Orbital Energies (a.u.)
 --------------------------------------------------------------
 
 Alpha MOs
 -- Occupied --
-19.176 -19.176 -19.119 -19.119 -10.311 -10.311 -10.232 -10.232
-10.205 -10.205 -10.201 -10.201 -10.187 -10.186 -10.171 -10.170
 -1.121  -1.114  -1.031  -1.030  -0.885  -0.807  -0.795  -0.747
 -0.734  -0.725  -0.675  -0.649  -0.620  -0.577  -0.565  -0.537
 -0.517  -0.515  -0.491  -0.489  -0.480  -0.477  -0.469  -0.442
 -0.434  -0.429  -0.420  -0.416  -0.411  -0.406  -0.396  -0.387
 -0.380  -0.373  -0.362  -0.359  -0.357  -0.321  -0.313  -0.293
 -0.292  -0.266  -0.253
 -- Virtual --
 -0.058  -0.034  -0.012  -0.005   0.000   0.009   0.011   0.014
  0.018   0.022   0.024   0.027   0.029   0.033   0.035   0.039
  0.044   0.046   0.048   0.053   0.054   0.056   0.057   0.061
  0.066   0.071   0.072   0.073   0.075   0.080   0.086   0.087
  0.089   0.092   0.092   0.097   0.097   0.103   0.104   0.105
  0.108   0.109   0.111   0.115   0.116   0.117   0.119   0.123
  0.125   0.127   0.130   0.132   0.135   0.137   0.138   0.139
  0.141   0.142   0.144   0.146   0.147   0.151   0.153   0.156
  0.157   0.160   0.161   0.162   0.166   0.167   0.171   0.172
  0.174   0.175   0.179   0.180   0.183   0.184   0.185   0.191
  0.194   0.194   0.196   0.197   0.199   0.199   0.203   0.207
  0.208   0.209   0.212   0.215   0.218   0.218   0.221   0.226
  0.226   0.229   0.231   0.234   0.238   0.238   0.242   0.246
  0.247   0.249   0.251   0.254   0.255   0.258   0.259   0.262
  0.264   0.267   0.270   0.272   0.272   0.275   0.276   0.279
  0.285   0.286   0.289   0.294   0.295   0.298   0.302   0.305
  0.306   0.310   0.311   0.312   0.316   0.319   0.321   0.323
  0.325   0.330   0.331   0.332   0.337   0.341   0.343   0.349
  0.349   0.354   0.356   0.358   0.360   0.365   0.366   0.368
  0.370   0.374   0.375   0.377   0.380   0.382   0.385   0.386
  0.389   0.393   0.398   0.401   0.403   0.406   0.407   0.413
  0.415   0.418   0.419   0.424   0.428   0.431   0.433   0.437
  0.438   0.441   0.448   0.452   0.456   0.462   0.466   0.467
  0.470   0.474   0.479   0.482   0.487   0.494   0.499   0.504
  0.505   0.510   0.515   0.522   0.524   0.525   0.531   0.537
  0.543   0.544   0.551   0.554   0.558   0.563   0.568   0.576
  0.577   0.580   0.582   0.587   0.589   0.598   0.604   0.607
  0.607   0.610   0.613   0.616   0.618   0.624   0.629   0.632
  0.636   0.642   0.643   0.647   0.651   0.652   0.655   0.659
  0.662   0.666   0.669   0.672   0.675   0.677   0.683   0.685
  0.689   0.696   0.699   0.701   0.703   0.707   0.711   0.717
  0.720   0.724   0.731   0.733   0.740   0.742   0.743   0.750
  0.755   0.756   0.758   0.767   0.770   0.774   0.777   0.782
  0.783   0.791   0.794   0.800   0.803   0.806   0.814   0.819
  0.823   0.833   0.843   0.845   0.857   0.861   0.874   0.875
  0.891   0.895   0.904   0.913   0.920   0.930   0.936   0.943
  0.946   0.955   0.956   0.971   0.975   0.980   0.984   0.988
  0.994   1.003   1.009   1.014   1.014   1.022   1.036   1.040
  1.044   1.050   1.055   1.061   1.067   1.067   1.072   1.077
  1.089   1.094   1.098   1.102   1.108   1.112   1.118   1.121
  1.127   1.133   1.147   1.149   1.153   1.162   1.167   1.175
  1.183   1.200   1.210   1.216   1.221   1.227   1.233   1.236
  1.240   1.247   1.250   1.261   1.271   1.275   1.302   1.303
  1.305   1.316   1.326   1.327   1.331   1.345   1.350   1.364
  1.378   1.379   1.385   1.396   1.399   1.404   1.418   1.421
  1.424   1.432   1.440   1.455   1.458   1.465   1.474   1.476
  1.481   1.487   1.490   1.502   1.512   1.522   1.525   1.535
  1.538   1.542   1.550   1.561   1.567   1.570   1.580   1.585
  1.589   1.592   1.601   1.603   1.608   1.610   1.614   1.623
  1.627   1.634   1.637   1.641   1.651   1.654   1.657   1.660
  1.678   1.687   1.700   1.709   1.713   1.720   1.729   1.730
  1.734   1.745   1.750   1.755   1.756   1.761   1.767   1.775
  1.782   1.784   1.788   1.796   1.800   1.802   1.808   1.812
  1.816   1.823   1.826   1.829   1.838   1.843   1.846   1.850
  1.854   1.857   1.867   1.871   1.878   1.885   1.888   1.896
  1.902   1.907   1.910   1.913   1.919   1.923   1.939   1.942
  1.953   1.958   1.958   1.962   1.972   1.990   2.002   2.008
  2.016   2.022   2.035   2.038   2.052   2.054   2.056   2.068
  2.084   2.088   2.098   2.098   2.104   2.109   2.113   2.121
  2.126   2.128   2.132   2.136   2.140   2.144   2.157   2.171
  2.179   2.181   2.182   2.191   2.201   2.212   2.215   2.219
  2.234   2.243   2.285   2.300   2.304   2.316   2.327   2.330
  2.334   2.336   2.340   2.342   2.348   2.365   2.377   2.378
  2.389   2.400   2.411   2.413   2.421   2.438   2.451   2.456
  2.471   2.478   2.487   2.494   2.496   2.500   2.504   2.510
  2.513   2.518   2.526   2.529   2.537   2.539   2.551   2.567
  2.572   2.577   2.580   2.589   2.594   2.597   2.603   2.614
  2.616   2.622   2.629   2.630   2.648   2.656   2.662   2.672
  2.676   2.679   2.681   2.692   2.697   2.700   2.708   2.722
  2.728   2.732   2.746   2.752   2.756   2.760   2.764   2.769
  2.782   2.793   2.798   2.805   2.808   2.814   2.822   2.851
  2.853   2.855   2.876   2.882   2.891   2.896   2.900   2.905
  2.907   2.916   2.921   2.924   2.938   2.941   2.952   2.959
  2.963   2.982   2.992   3.002   3.016   3.027   3.035   3.040
  3.044   3.051   3.057   3.064   3.071   3.074   3.085   3.102
  3.110   3.111   3.123   3.132   3.141   3.145   3.168   3.185
  3.198   3.211   3.217   3.226   3.234   3.240   3.243   3.247
  3.261   3.265   3.273   3.290   3.294   3.301   3.322   3.330
  3.341   3.354   3.356   3.386   3.395   3.403   3.409   3.415
  3.424   3.439   3.458   3.460   3.494   3.499   3.505   3.521
  3.524   3.532   3.535   3.543   3.556   3.560   3.563   3.577
  3.589   3.613   3.623   3.629   3.649   3.652   3.669   3.690
  3.695   3.725   3.749   3.759   3.780   3.783   3.791   3.797
  3.799   3.827   3.844   3.857   3.870   3.900   3.917   3.952
  3.957   4.028   4.045   4.055   4.074   4.081   4.092   4.137
  4.163   4.232   4.237   4.239   4.330   4.348   4.390   4.426
  4.540   4.554   4.576   4.590   4.678   4.712   4.731   4.765
  4.785   4.799   4.813   4.841   4.848   4.854   4.856   4.865
  4.870   4.900   4.910   4.919   4.947   4.967   4.973   4.991
  5.034   5.066   5.135   5.173   5.178   5.201   5.218   5.261
  5.285   5.298   5.316   5.348   5.407   5.440   5.568   5.584
  5.622   5.634   5.695   5.714   5.884   5.911   6.128   6.141
  7.091   7.179   7.187   7.280   7.308   7.388   7.397   7.453
  7.622   7.661   7.722   7.745   7.781   7.789   7.791   7.801
  7.813   7.821   7.831   7.859   7.864   7.872   7.892   7.928
  7.953   7.956   7.995   8.007   8.063   8.090   8.108   8.241
  8.495   8.518   8.653   9.041   9.720   9.990   9.999  10.016
 10.021  10.052  10.070  10.240  10.270  10.299  10.306  10.369
 13.559  13.610  13.633  13.700  13.711  13.749  13.863  13.926
 14.150  14.181  14.299  14.319  18.557  18.592  18.711  18.765
 23.568  23.856  23.869  23.922  23.935  23.942  23.954  23.957
 24.008  24.066  24.070  24.168  49.893  49.928  50.019  50.037
 69.713  69.905  69.927  69.929  69.949  69.958  69.965  70.023
 70.035  70.062  70.080  70.116 139.804 139.848 139.884 139.939
 --------------------------------------------------------------
 
          Ground-State Mulliken Net Atomic Charges

     Atom                 Charge (a.u.)
  ----------------------------------------
      1 C                     0.492846
      2 C                     0.764734
      3 C                    -0.710737
      4 C                    -1.044610
      5 O                     0.122497
      6 O                    -0.148127
      7 O                     0.071416
      8 O                    -0.078962
      9 C                    -0.187610
     10 C                    -0.321519
     11 C                     0.556643
     12 C                    -0.481946
     13 C                    -0.469067
     14 C                     0.349009
     15 H                     0.167068
     16 H                     0.186221
     17 H                     0.158550
     18 H                     0.176626
     19 H                     0.172571
     20 H                     0.111441
     21 H                     0.193022
     22 H                     0.153547
     23 C                    -0.646536
     24 C                    -0.629576
     25 H                     0.213617
     26 H                     0.138358
     27 H                     0.188119
     28 H                     0.171915
     29 H                     0.195638
     30 H                     0.139144
     31 GH                    0.013581
     32 GH                    0.011958
     33 GH                   -0.009608
     34 GH                    0.002312
     35 GH                    0.000095
     36 GH                    0.000017
     37 GH                   -0.004349
     38 GH                   -0.000073
     39 GH                   -0.002826
     40 GH                   -0.002524
     41 GH                    0.001356
     42 GH                    0.000408
     43 GH                   -0.001720
     44 GH                   -0.010192
     45 GH                   -0.000740
     46 GH                    0.000105
     47 GH                   -0.001033
     48 GH                    0.000558
     49 GH                    0.014649
     50 GH                   -0.000133
     51 GH                    0.001799
     52 GH                   -0.000313
     53 GH                   -0.007030
     54 GH                   -0.006072
     55 GH                   -0.004510
     56 GH                    0.000148
     57 GH                   -0.000017
     58 GH                   -0.000656
     59 GH                    0.000008
     60 GH                    0.000508
  ----------------------------------------
  Sum of atomic charges =     0.000000

 -----------------------------------------------------------------
                    Cartesian Multipole Moments
 -----------------------------------------------------------------
    Charge (ESU x 10^10)
                 0.0000
    Dipole Moment (Debye)
         X       0.0682      Y      -0.1073      Z       0.0784
       Tot       0.1494
    Quadrupole Moments (Debye-Ang)
        XX     -76.1524     XY      -0.0635     YY     -95.4342
        XZ       0.0773     YZ      -8.9455     ZZ     -99.5026
    Octopole Moments (Debye-Ang^2)
       XXX      46.0433    XXY      -0.5008    XYY      -4.6579
       YYY      -4.4349    XXZ       0.7294    XYZ     -19.0360
       YYZ       0.1387    XZZ      17.7171    YZZ      -0.0403
       ZZZ       1.1819
    Hexadecapole Moments (Debye-Ang^3)
      XXXX   -2037.5525   XXXY       6.5863   XXYY    -655.7691
      XYYY       3.6036   YYYY   -2002.3341   XXXZ       1.6259
      XXYZ     -32.6102   XYYZ       1.2102   YYYZ     -66.8417
      XXZZ    -435.1412   XYZZ       2.4294   YYZZ    -395.9880
      XZZZ       3.7928   YZZZ     -10.6613   ZZZZ    -334.8226
 -----------------------------------------------------------------
Archival summary:
1\1\vega03.cac.cornell.edu\SP\ProcedureUnspecified\BasisUnspecified\41214h30\jj585\MonApr201:34:112018MonApr201:34:112018\0\\#,ProcedureUnspecified,BasisUnspecified,\\0,1\O\C,1,1.3512\O,2,1.2069,1,123.501\C,1,1.43752,2,116.164,3,4.8931,0\H,4,1.08772,1,105.376,2,179.706,0\H,4,1.09086,1,110.507,2,-60.681,0\H,4,1.09163,1,110.367,2,60.0909,0\C,2,1.49626,1,110.928,3,178.057,0\C,8,1.40634,2,119.012,1,-130.615,0\C,9,1.39616,8,117.536,2,177.857,0\H,10,1.08475,9,118.991,8,-179.6,0\C,10,1.38856,9,121.629,8,0.183585,0\H,12,1.08495,10,119.453,9,179.671,0\C,12,1.3959,10,121.575,9,-0.129654,0\C,14,1.40604,12,117.481,10,0.160349,0\C,15,1.49803,14,118.266,12,177.84,0\O,16,1.20668,15,125.302,14,50.5403,0\O,16,1.35063,15,111.128,14,-126.75,0\C,18,1.43835,16,115.94,15,-178.519,0\H,19,1.08762,18,105.403,16,179.104,0\H,19,1.09103,18,110.475,16,-61.3232,0\H,19,1.0915,18,110.399,16,59.3962,0\C,9,1.50976,8,122.848,2,-1.37569,0\H,23,1.09144,9,110.135,8,171.975,0\H,23,1.09156,9,111.21,8,-67.4939,0\H,23,1.09291,9,111.796,8,51.7903,0\C,14,1.51138,12,119.574,10,179.468,0\H,27,1.09144,14,110.104,12,-7.00566,0\H,27,1.09164,14,111.284,12,113.49,0\H,27,1.09319,14,111.89,12,-127.081,0\Gh,20,2.78401,19,145.884,18,-19.873,0\Gh,31,1.08772,20,145.141,19,73.6152,0\Gh,32,1.09086,31,110.694,20,-133.794,0\Gh,32,1.09163,31,110.757,20,105.051,0\Gh,32,1.43752,31,105.376,20,-14.3045,0\Gh,35,1.3512,32,116.164,31,179.706,0\Gh,36,1.2069,35,123.501,32,4.8931,0\Gh,36,1.49626,35,110.928,32,-177.05,0\Gh,38,1.40634,36,119.012,35,-130.615,0\Gh,39,1.39616,38,117.536,36,177.857,0\Gh,40,1.08475,39,118.991,38,-179.6,0\Gh,40,1.38856,39,121.629,38,0.183585,0\Gh,42,1.08495,40,119.453,39,179.671,0\Gh,42,1.3959,40,121.575,39,-0.129654,0\Gh,44,1.40604,42,117.481,40,0.160349,0\Gh,45,1.49803,44,118.266,42,177.84,0\Gh,46,1.20668,45,125.302,44,50.5403,0\Gh,46,1.35063,45,111.128,44,-126.75,0\Gh,48,1.43835,46,115.94,45,-178.519,0\Gh,49,1.08762,48,105.403,46,179.104,0\Gh,49,1.09103,48,110.475,46,-61.3232,0\Gh,49,1.0915,48,110.399,46,59.3962,0\Gh,39,1.50976,38,122.848,36,-1.37569,0\Gh,53,1.09144,39,110.135,38,171.975,0\Gh,53,1.09156,39,111.21,38,-67.4939,0\Gh,53,1.09291,39,111.796,38,51.7903,0\Gh,44,1.51138,42,119.574,40,179.468,0\Gh,57,1.09144,44,110.104,42,-7.00566,0\Gh,57,1.09164,44,111.284,42,113.49,0\Gh,57,1.09319,44,111.89,42,-127.081,0\\\@

 Total job time:  2125.55s(wall), 4228.03s(cpu) 
 Mon Apr  2 01:34:11 2018

        *************************************************************
        *                                                           *
        *  Thank you very much for using Q-Chem.  Have a nice day.  *
        *                                                           *
        *************************************************************


0 sent ACK to 0 
now end server 0 ... 
