
    -----------------------------------------------------------------------
          Psi4: An Open-Source Ab Initio Electronic Structure Package
                               Psi4 1.1 release

                         Git: Rev {HEAD} add49b9 


    R. M. Parrish, L. A. Burns, D. G. A. Smith, A. C. Simmonett,
    A. E. DePrince III, E. G. Hohenstein, U. Bozkaya, A. Yu. Sokolov,
    R. Di Remigio, R. M. Richard, J. F. Gonthier, A. M. James,
    H. R. McAlexander, A. Kumar, M. Saitow, X. Wang, B. P. Pritchard,
    P. Verma, H. F. Schaefer III, K. Patkowski, R. A. King, E. F. Valeev,
    F. A. Evangelista, J. M. Turney, T. D. Crawford, and C. D. Sherrill,
    J. Chem. Theory Comput. in press (2017).
    (doi: 10.1021/acs.jctc.7b00174)

    -----------------------------------------------------------------------


    Psi4 started on: Tuesday, 12 December 2017 11:08AM

    Process ID:  14708
    PSIDATADIR: /home/junteng/Softwares/psi4conda/share/psi4
    Memory:     500.0 MiB
    Threads:    1
    
  ==> Input File <==

--------------------------------------------------------------------------
memory 750000 mb

molecule mol {
0 1
C         -0.14230       -1.73813        0.16690
O          0.09691       -2.52407       -0.71074
O         -1.20077       -1.86228        1.00655
C         -2.14533       -2.89369        0.66941
H         -1.65689       -3.86851        0.63899
H         -2.59290       -2.68071       -0.30268
H         -2.89899       -2.86648        1.45383
--
0 1
C         -1.37019        0.85200       -0.17075
O         -1.67359        0.11515       -1.07440
O         -2.13335        1.89734        0.22345
C         -3.35128        2.10070       -0.51844
H         -3.13131        2.28038       -1.57184
H         -3.82220        2.97245       -0.06962
H         -3.99903        1.22707       -0.43181
--
0 1
C          2.65427       -1.20325       -1.06634
H          3.52625       -0.75591       -1.54978
H          2.99155       -2.03223       -0.43918
H          1.98235       -1.60404       -1.82059
H          0.52692        2.66149       -0.45716
C         -0.09292        0.81275        0.64111
C          0.68739       -0.54075        0.60387
C          0.95142        1.75590       -0.02848
C          2.14556        1.96475        0.92772
C          2.89769        0.61492        0.75433
C          1.96574       -0.15328       -0.22503
O          1.48433        0.92751       -1.05847
H         -0.32751        1.13183        1.65588
H          0.98485       -0.78601        1.62725
H          2.75369        2.80782        0.59695
H          1.82667        2.15972        1.95373
H          3.87084        0.76417        0.28330
H          3.05495        0.07903        1.69237

symmetry c1
no_reorient
no_com
}

set {
basis jun-cc-pvdz
scf_type df
guess sad
freeze_core true
}

energy('fisapt0')
--------------------------------------------------------------------------

  Memory set to 698.492 GiB by Python driver.

*** tstart() called on ThinkPad-P50
*** at Tue Dec 12 11:08:51 2017

   => Loading Basis Set <=

    Name: JUN-CC-PVDZ
    Role: ORBITAL
    Keyword: BASIS
    atoms 1, 4, 8, 11, 15, 20-25   entry C          line   157 file /home/junteng/Softwares/psi4conda/share/psi4/basis/jun-cc-pvdz.gbs 
    atoms 2-3, 9-10, 26            entry O          line   225 file /home/junteng/Softwares/psi4conda/share/psi4/basis/jun-cc-pvdz.gbs 
    atoms 5-7, 12-14, 16-19, 27-32 entry H          line    35 file /home/junteng/Softwares/psi4conda/share/psi4/basis/jun-cc-pvdz.gbs 


         ---------------------------------------------------------
                                   SCF
            by Justin Turney, Rob Parrish, and Andy Simmonett
                              RHF Reference
                        1 Threads, 715255 MiB Core
         ---------------------------------------------------------

  ==> Geometry <==

    Molecular point group: c1
    Full point group: C1

    Geometry (in Angstrom), charge = 0, multiplicity = 1:

       Center              X                  Y                   Z               Mass       
    ------------   -----------------  -----------------  -----------------  -----------------
           C         -0.142300000000    -1.738130000000     0.166900000000    12.000000000000
           O          0.096910000000    -2.524070000000    -0.710740000000    15.994914619560
           O         -1.200770000000    -1.862280000000     1.006550000000    15.994914619560
           C         -2.145330000000    -2.893690000000     0.669410000000    12.000000000000
           H         -1.656890000000    -3.868510000000     0.638990000000     1.007825032070
           H         -2.592900000000    -2.680710000000    -0.302680000000     1.007825032070
           H         -2.898990000000    -2.866480000000     1.453830000000     1.007825032070
           C         -1.370190000000     0.852000000000    -0.170750000000    12.000000000000
           O         -1.673590000000     0.115150000000    -1.074400000000    15.994914619560
           O         -2.133350000000     1.897340000000     0.223450000000    15.994914619560
           C         -3.351280000000     2.100700000000    -0.518440000000    12.000000000000
           H         -3.131310000000     2.280380000000    -1.571840000000     1.007825032070
           H         -3.822200000000     2.972450000000    -0.069620000000     1.007825032070
           H         -3.999030000000     1.227070000000    -0.431810000000     1.007825032070
           C          2.654270000000    -1.203250000000    -1.066340000000    12.000000000000
           H          3.526250000000    -0.755910000000    -1.549780000000     1.007825032070
           H          2.991550000000    -2.032230000000    -0.439180000000     1.007825032070
           H          1.982350000000    -1.604040000000    -1.820590000000     1.007825032070
           H          0.526920000000     2.661490000000    -0.457160000000     1.007825032070
           C         -0.092920000000     0.812750000000     0.641110000000    12.000000000000
           C          0.687390000000    -0.540750000000     0.603870000000    12.000000000000
           C          0.951420000000     1.755900000000    -0.028480000000    12.000000000000
           C          2.145560000000     1.964750000000     0.927720000000    12.000000000000
           C          2.897690000000     0.614920000000     0.754330000000    12.000000000000
           C          1.965740000000    -0.153280000000    -0.225030000000    12.000000000000
           O          1.484330000000     0.927510000000    -1.058470000000    15.994914619560
           H         -0.327510000000     1.131830000000     1.655880000000     1.007825032070
           H          0.984850000000    -0.786010000000     1.627250000000     1.007825032070
           H          2.753690000000     2.807820000000     0.596950000000     1.007825032070
           H          1.826670000000     2.159720000000     1.953730000000     1.007825032070
           H          3.870840000000     0.764170000000     0.283300000000     1.007825032070
           H          3.054950000000     0.079030000000     1.692370000000     1.007825032070

  Running in c1 symmetry.

  Rotational constants: A =      0.02233  B =      0.01775  C =      0.01176 [cm^-1]
  Rotational constants: A =    669.29507  B =    532.21922  C =    352.47308 [MHz]
  Nuclear repulsion = 1249.177223856446062

  Charge       = 0
  Multiplicity = 1
  Electrons    = 122
  Nalpha       = 61
  Nbeta        = 61

  ==> Algorithm <==

  SCF Algorithm Type is DF.
  DIIS enabled.
  MOM disabled.
  Fractional occupation disabled.
  Guess Type is SAD.
  Energy threshold   = 1.00e-08
  Density threshold  = 1.00e-08
  Integral threshold = 0.00e+00

  ==> Primary Basis <==

  Basis Set: JUN-CC-PVDZ
    Blend: JUN-CC-PVDZ
    Number of shells: 176
    Number of basis function: 368
    Number of Cartesian functions: 384
    Spherical Harmonics?: true
    Max angular momentum: 2

   => Loading Basis Set <=

    Name: (JUN-CC-PVDZ AUX)
    Role: JKFIT
    Keyword: DF_BASIS_SCF
    atoms 1, 4, 8, 11, 15, 20-25   entry C          line   145 file /home/junteng/Softwares/psi4conda/share/psi4/basis/jun-cc-pvdz-jkfit.gbs 
    atoms 2-3, 9-10, 26            entry O          line   257 file /home/junteng/Softwares/psi4conda/share/psi4/basis/jun-cc-pvdz-jkfit.gbs 
    atoms 5-7, 12-14, 16-19, 27-32 entry H          line    69 file /home/junteng/Softwares/psi4conda/share/psi4/basis/jun-cc-pvdz-jkfit.gbs 

  ==> Pre-Iterations <==

   -------------------------------------------------------
    Irrep   Nso     Nmo     Nalpha   Nbeta   Ndocc  Nsocc
   -------------------------------------------------------
     A        368     368       0       0       0       0
   -------------------------------------------------------
    Total     368     368      61      61      61       0
   -------------------------------------------------------

  ==> Integral Setup <==

  ==> DFJK: Density-Fitted J/K Matrices <==

    J tasked:                  Yes
    K tasked:                  Yes
    wK tasked:                  No
    OpenMP threads:              1
    Integrals threads:           1
    Memory (MB):            536441
    Algorithm:                Core
    Integral Cache:           NONE
    Schwarz Cutoff:          1E-12
    Fitting Condition:       1E-12

   => Auxiliary Basis Set <=

  Basis Set: (JUN-CC-PVDZ AUX)
    Blend: JUN-CC-PVDZ-JKFIT
    Number of shells: 576
    Number of basis function: 1632
    Number of Cartesian functions: 1856
    Spherical Harmonics?: true
    Max angular momentum: 3

  Minimum eigenvalue in the overlap matrix is 8.9025780433E-06.
  Using Symmetric Orthogonalization.

  SCF Guess: Superposition of Atomic Densities via on-the-fly atomic UHF.

  ==> Iterations <==

                           Total Energy        Delta E     RMS |[F,P]|

   @DF-RHF iter   0:  -807.85841829129845   -8.07858e+02   2.11363e-02 
   @DF-RHF iter   1:  -799.62832896272448    8.23009e+00   2.85172e-03 
   @DF-RHF iter   2:  -800.03394512705995   -4.05616e-01   1.99996e-03 DIIS
   @DF-RHF iter   3:  -800.24778615541231   -2.13841e-01   4.35397e-04 DIIS
   @DF-RHF iter   4:  -800.26563505781462   -1.78489e-02   1.51536e-04 DIIS
   @DF-RHF iter   5:  -800.26796407219240   -2.32901e-03   4.61857e-05 DIIS
   @DF-RHF iter   6:  -800.26828815509850   -3.24083e-04   2.10507e-05 DIIS
   @DF-RHF iter   7:  -800.26836090184031   -7.27467e-05   7.44709e-06 DIIS
   @DF-RHF iter   8:  -800.26837493812388   -1.40363e-05   2.96653e-06 DIIS
   @DF-RHF iter   9:  -800.26837758944646   -2.65132e-06   1.15567e-06 DIIS
   @DF-RHF iter  10:  -800.26837791859180   -3.29145e-07   4.52612e-07 DIIS
   @DF-RHF iter  11:  -800.26837796041480   -4.18230e-08   1.67942e-07 DIIS
   @DF-RHF iter  12:  -800.26837796607356   -5.65876e-09   7.31667e-08 DIIS
   @DF-RHF iter  13:  -800.26837796693781   -8.64247e-10   2.70073e-08 DIIS
   @DF-RHF iter  14:  -800.26837796708764   -1.49839e-10   1.15260e-08 DIIS
   @DF-RHF iter  15:  -800.26837796710720   -1.95541e-11   3.58488e-09 DIIS

  ==> Post-Iterations <==

    Orbital Energies (a.u.)
    -----------------------

    Doubly Occupied:                                                      

       1A    -20.614074     2A    -20.602002     3A    -20.564879  
       4A    -20.558017     5A    -20.548028     6A    -11.392226  
       7A    -11.386858     8A    -11.300387     9A    -11.299058  
      10A    -11.298211    11A    -11.287427    12A    -11.267151  
      13A    -11.265007    14A    -11.241934    15A    -11.237702  
      16A    -11.214776    17A     -1.469766    18A     -1.457802  
      19A     -1.402822    20A     -1.368872    21A     -1.359403  
      22A     -1.114688    23A     -1.062134    24A     -1.047146  
      25A     -0.994875    26A     -0.965212    27A     -0.927935  
      28A     -0.881690    29A     -0.818224    30A     -0.800501  
      31A     -0.772438    32A     -0.754396    33A     -0.721305  
      34A     -0.696709    35A     -0.687481    36A     -0.678567  
      37A     -0.667829    38A     -0.667210    39A     -0.659571  
      40A     -0.650355    41A     -0.627256    42A     -0.593330  
      43A     -0.583382    44A     -0.578340    45A     -0.564699  
      46A     -0.559375    47A     -0.542166    48A     -0.534374  
      49A     -0.525640    50A     -0.516544    51A     -0.511067  
      52A     -0.506063    53A     -0.504693    54A     -0.492109  
      55A     -0.476211    56A     -0.471060    57A     -0.467159  
      58A     -0.456227    59A     -0.447663    60A     -0.427178  
      61A     -0.422353  

    Virtual:                                                              

      62A      0.049768    63A      0.054993    64A      0.059054  
      65A      0.064262    66A      0.073010    67A      0.077855  
      68A      0.084693    69A      0.090906    70A      0.098892  
      71A      0.100336    72A      0.109004    73A      0.114240  
      74A      0.115558    75A      0.122439    76A      0.135698  
      77A      0.138622    78A      0.139723    79A      0.148539  
      80A      0.151772    81A      0.159219    82A      0.161582  
      83A      0.168019    84A      0.172829    85A      0.180253  
      86A      0.185927    87A      0.194775    88A      0.195963  
      89A      0.198514    90A      0.202580    91A      0.211751  
      92A      0.214320    93A      0.218573    94A      0.221373  
      95A      0.227705    96A      0.233093    97A      0.239668  
      98A      0.241879    99A      0.247173   100A      0.252735  
     101A      0.259248   102A      0.262659   103A      0.269102  
     104A      0.273028   105A      0.281481   106A      0.289392  
     107A      0.301759   108A      0.308015   109A      0.312256  
     110A      0.318948   111A      0.322290   112A      0.333093  
     113A      0.336902   114A      0.340704   115A      0.343362  
     116A      0.347918   117A      0.359532   118A      0.363452  
     119A      0.370604   120A      0.373170   121A      0.375047  
     122A      0.378995   123A      0.382211   124A      0.390068  
     125A      0.392569   126A      0.399853   127A      0.404865  
     128A      0.409314   129A      0.415656   130A      0.421104  
     131A      0.425594   132A      0.427825   133A      0.430792  
     134A      0.435474   135A      0.440329   136A      0.452557  
     137A      0.459925   138A      0.460515   139A      0.468701  
     140A      0.480922   141A      0.485800   142A      0.491799  
     143A      0.500984   144A      0.514064   145A      0.522602  
     146A      0.531316   147A      0.537139   148A      0.542447  
     149A      0.543972   150A      0.547050   151A      0.552536  
     152A      0.570362   153A      0.584215   154A      0.592891  
     155A      0.609566   156A      0.620294   157A      0.633740  
     158A      0.641057   159A      0.710680   160A      0.733804  
     161A      0.755355   162A      0.771762   163A      0.784779  
     164A      0.787020   165A      0.802811   166A      0.809138  
     167A      0.819492   168A      0.834263   169A      0.847673  
     170A      0.861630   171A      0.873590   172A      0.883835  
     173A      0.898076   174A      0.902198   175A      0.912818  
     176A      0.914680   177A      0.918123   178A      0.924285  
     179A      0.929525   180A      0.931415   181A      0.940974  
     182A      0.946582   183A      0.949279   184A      0.951794  
     185A      0.960508   186A      0.967745   187A      0.970235  
     188A      0.980480   189A      0.989121   190A      0.993195  
     191A      1.005803   192A      1.009140   193A      1.014053  
     194A      1.021584   195A      1.032564   196A      1.041900  
     197A      1.044265   198A      1.067541   199A      1.085204  
     200A      1.087864   201A      1.091548   202A      1.093678  
     203A      1.107814   204A      1.121218   205A      1.125632  
     206A      1.145177   207A      1.180487   208A      1.189060  
     209A      1.221537   210A      1.241609   211A      1.248272  
     212A      1.262050   213A      1.275417   214A      1.315057  
     215A      1.328465   216A      1.340380   217A      1.351353  
     218A      1.377674   219A      1.421434   220A      1.450217  
     221A      1.456799   222A      1.472945   223A      1.477892  
     224A      1.484274   225A      1.495082   226A      1.515788  
     227A      1.528654   228A      1.540020   229A      1.551744  
     230A      1.563206   231A      1.578145   232A      1.583962  
     233A      1.601077   234A      1.603381   235A      1.610336  
     236A      1.637610   237A      1.639558   238A      1.655769  
     239A      1.664426   240A      1.667991   241A      1.682178  
     242A      1.686686   243A      1.693720   244A      1.700762  
     245A      1.712734   246A      1.732673   247A      1.747649  
     248A      1.754904   249A      1.780574   250A      1.783334  
     251A      1.798328   252A      1.824261   253A      1.834201  
     254A      1.838397   255A      1.862419   256A      1.867998  
     257A      1.873503   258A      1.892475   259A      1.905098  
     260A      1.917476   261A      1.923963   262A      1.936882  
     263A      1.942546   264A      1.958065   265A      1.962696  
     266A      1.968046   267A      1.978091   268A      1.988308  
     269A      2.000291   270A      2.010742   271A      2.020147  
     272A      2.023560   273A      2.033194   274A      2.035965  
     275A      2.046005   276A      2.046666   277A      2.056531  
     278A      2.068629   279A      2.082486   280A      2.089786  
     281A      2.100290   282A      2.110382   283A      2.119409  
     284A      2.144544   285A      2.158098   286A      2.163001  
     287A      2.178145   288A      2.183173   289A      2.200743  
     290A      2.205237   291A      2.218759   292A      2.246782  
     293A      2.254087   294A      2.271289   295A      2.274672  
     296A      2.292272   297A      2.339252   298A      2.348716  
     299A      2.358657   300A      2.364086   301A      2.380181  
     302A      2.397779   303A      2.405627   304A      2.410124  
     305A      2.415903   306A      2.427009   307A      2.436550  
     308A      2.443624   309A      2.460462   310A      2.472684  
     311A      2.488781   312A      2.511447   313A      2.524936  
     314A      2.551692   315A      2.579164   316A      2.617779  
     317A      2.630941   318A      2.654999   319A      2.674593  
     320A      2.719972   321A      2.727415   322A      2.741198  
     323A      2.757025   324A      2.777435   325A      2.787317  
     326A      2.801761   327A      2.808378   328A      2.837224  
     329A      2.852681   330A      2.857636   331A      2.866657  
     332A      2.884765   333A      2.885755   334A      2.893394  
     335A      2.911366   336A      2.925792   337A      2.937459  
     338A      2.958218   339A      2.977381   340A      3.009336  
     341A      3.030095   342A      3.070569   343A      3.086093  
     344A      3.109631   345A      3.135203   346A      3.174062  
     347A      3.254432   348A      3.267617   349A      3.300445  
     350A      3.313299   351A      3.368303   352A      3.378254  
     353A      3.388477   354A      3.427916   355A      3.465838  
     356A      3.516655   357A      3.572030   358A      3.591344  
     359A      3.669865   360A      3.680191   361A      3.708031  
     362A      3.781813   363A      3.791602   364A      3.849388  
     365A      3.957860   366A      3.962984   367A      4.085578  
     368A      4.111930  

    Final Occupation by Irrep:
              A 
    DOCC [    61 ]

  Energy converged.

  @DF-RHF Final Energy:  -800.26837796710720

   => Energetics <=

    Nuclear Repulsion Energy =           1249.1772238564460622
    One-Electron Energy =               -3577.8680926675824594
    Two-Electron Energy =                1528.4224908440289710
    DFT Exchange-Correlation Energy =       0.0000000000000000
    Empirical Dispersion Energy =           0.0000000000000000
    PCM Polarization Energy =               0.0000000000000000
    EFP Energy =                            0.0000000000000000
    Total Energy =                       -800.2683779671071989



Properties will be evaluated at   0.000000,   0.000000,   0.000000 Bohr

Properties computed using the SCF density matrix

  Nuclear Dipole Moment: (a.u.)
     X:     1.6588      Y:    -1.2268      Z:     1.6565

  Electronic Dipole Moment: (a.u.)
     X:    -1.9540      Y:     2.0809      Z:    -0.1626

  Dipole Moment: (a.u.)
     X:    -0.2953      Y:     0.8541      Z:     1.4938     Total:     1.7459

  Dipole Moment: (Debye)
     X:    -0.7505      Y:     2.1709      Z:     3.7969     Total:     4.4376


*** tstop() called on ThinkPad-P50 at Tue Dec 12 11:11:02 2017
Module time:
	user time   =     130.41 seconds =       2.17 minutes
	system time =       1.03 seconds =       0.02 minutes
	total time  =        131 seconds =       2.18 minutes
Total time:
	user time   =     130.41 seconds =       2.17 minutes
	system time =       1.03 seconds =       0.02 minutes
	total time  =        131 seconds =       2.18 minutes
   => Loading Basis Set <=

    Name: (JUN-CC-PVDZ AUX)
    Role: JKFIT
    Keyword: DF_BASIS_SCF
    atoms 1, 4, 8, 11, 15, 20-25   entry C          line   145 file /home/junteng/Softwares/psi4conda/share/psi4/basis/jun-cc-pvdz-jkfit.gbs 
    atoms 2-3, 9-10, 26            entry O          line   257 file /home/junteng/Softwares/psi4conda/share/psi4/basis/jun-cc-pvdz-jkfit.gbs 
    atoms 5-7, 12-14, 16-19, 27-32 entry H          line    69 file /home/junteng/Softwares/psi4conda/share/psi4/basis/jun-cc-pvdz-jkfit.gbs 

   => Loading Basis Set <=

    Name: (JUN-CC-PVDZ AUX)
    Role: RIFIT
    Keyword: DF_BASIS_SAPT
    atoms 1, 4, 8, 11, 15, 20-25   entry C          line    99 file /home/junteng/Softwares/psi4conda/share/psi4/basis/jun-cc-pvdz-ri.gbs 
    atoms 2-3, 9-10, 26            entry O          line   187 file /home/junteng/Softwares/psi4conda/share/psi4/basis/jun-cc-pvdz-ri.gbs 
    atoms 5-7, 12-14, 16-19, 27-32 entry H          line    29 file /home/junteng/Softwares/psi4conda/share/psi4/basis/jun-cc-pvdz-ri.gbs 

   => Loading Basis Set <=

    Name: CC-PVTZ-MINAO
    Role: ORBITAL
    Keyword: BASIS
    atoms 1, 4, 8, 11, 15, 20-25   entry C          line   130 file /home/junteng/Softwares/psi4conda/share/psi4/basis/cc-pvtz-minao.gbs 
    atoms 2-3, 9-10, 26            entry O          line   190 file /home/junteng/Softwares/psi4conda/share/psi4/basis/cc-pvtz-minao.gbs 
    atoms 5-7, 12-14, 16-19, 27-32 entry H          line    19 file /home/junteng/Softwares/psi4conda/share/psi4/basis/cc-pvtz-minao.gbs 


*** tstart() called on ThinkPad-P50
*** at Tue Dec 12 11:11:04 2017

	 --------------------------------------------
	                    FISAPT0                  
	                  Rob Parrish                
	 --------------------------------------------

    Do F-SAPT =         Yes
    Do Plot   =          No
    Memory    =      78.580 [GD]

  ==> Localization (IBO) <==

  ==> IBO Localizer 2 <==

    MinAO Basis = CC-PVTZ-MINAO
    Use Ghosts  =       FALSE
    Use Stars   =       FALSE
    Condition   =   1.000E-07
    Power       =           4
    Convergence =   1.000E-12
    Maxiter     =        1000

    @IBO Iter:                   Metric       Gradient
    @IBO    1:   2.0000014254475547E+00   2.144607E+00
    @IBO    2:   2.2067842886458671E+00   2.460267E+00
    @IBO    3:   2.3126112036486539E+00   1.468754E+00
    @IBO    4:   2.3324196864003799E+00   1.647531E-01
    @IBO    5:   2.3326325298449286E+00   4.956017E-03
    @IBO    6:   2.3326327049733702E+00   1.039691E-04
    @IBO    7:   2.3326327051064757E+00   4.359828E-06
    @IBO    8:   2.3326327051067008E+00   2.009085E-07
    @IBO    9:   2.3326327051067017E+00   9.073930E-09
    @IBO   10:   2.3326327051067017E+00   4.044334E-10
    @IBO   11:   2.3326327051067013E+00   1.792575E-11
    @IBO   12:   2.3326327051067013E+00   7.939028E-13

    IBO Localizer 2 converged.

  ==> Partitioning <==

   => Atomic Partitioning <= 

    Monomer A:   7 atoms
    Monomer B:   7 atoms
    Monomer C:  18 atoms

   => Link Bond Identification <=

    Link Bond Selection = AUTOMATIC

    Charge Completeness = 0.800

    Total Link Bonds = 2

    --------------------------
    N     Orb Type Aind1 Aind2
    --------------------------
    1      28   AC     1    21
    2      58   BC     8    20
    --------------------------

   => Link Bond Assignment <=

    Link Bond Assignment      = C

   => Partition Summary <=

    Monomer A:  0 charge,  30 protons,  30 electrons,  15 docc
    Monomer B:  0 charge,  30 protons,  30 electrons,  15 docc
    Monomer C:  0 charge,  62 protons,  62 electrons,  31 docc

  ==> Overlap Integrals <==

  ==> Kinetic Integrals <==

  ==> Nuclear Integrals <==

    Nuclear Repulsion Tot:   1.2491772238564472E+03 [Eh]

  ==> Coulomb Integrals <==

  ==> DFJK: Density-Fitted J/K Matrices <==

    J tasked:                  Yes
    K tasked:                  Yes
    wK tasked:                  No
    OpenMP threads:              1
    Integrals threads:           1
    Memory (MB):            643730
    Algorithm:                Core
    Integral Cache:           NONE
    Schwarz Cutoff:          1E-12
    Fitting Condition:       1E-12

   => Auxiliary Basis Set <=

  Basis Set: (JUN-CC-PVDZ AUX)
    Blend: JUN-CC-PVDZ-JKFIT
    Number of shells: 576
    Number of basis function: 1632
    Number of Cartesian functions: 1856
    Spherical Harmonics?: true
    Max angular momentum: 3

  ==> Relaxed SCF Equations <==

  ==> SCF A: <==

    Maxiter =          50
    E Tol   =   1.000E-06
    D Tol   =   1.000E-08

    Max DIIS Vectors = 5

    Iter   N:                        E          dE         |D|
    Iter   1:  -2.2420936486076118E+02  -2.242E+02   7.113E-04 
    Iter   2:  -2.2422020220383601E+02  -1.084E-02   5.123E-05 DIIS
    Iter   3:  -2.2422040002985747E+02  -1.978E-04   2.312E-05 DIIS
    Iter   4:  -2.2422042572095529E+02  -2.569E-05   8.204E-06 DIIS
    Iter   5:  -2.2422043019300946E+02  -4.472E-06   1.355E-06 DIIS
    Iter   6:  -2.2422043039618003E+02  -2.032E-07   4.732E-07 DIIS
    Iter   7:  -2.2422043041950911E+02  -2.333E-08   1.433E-07 DIIS
    Iter   8:  -2.2422043042211072E+02  -2.602E-09   6.573E-08 DIIS
    Iter   9:  -2.2422043042253489E+02  -4.242E-10   2.494E-08 DIIS
    Iter  10:  -2.2422043042262496E+02  -9.007E-11   1.063E-08 DIIS
    Iter  11:  -2.2422043042263726E+02  -1.231E-11   5.885E-09 DIIS

    FISAPTSCF Converged.

    Final SCF Energy:  -2.2422043042263726E+02 [Eh]

   => Occupied Orbital Energies <=

       1  -20.602775     2  -20.553661     3  -11.390135  
       4  -11.293149     5   -1.437098     6   -1.360940  
       7   -0.958553     8   -0.764245     9   -0.672520  
      10   -0.661154    11   -0.619767    12   -0.544475  
      13   -0.535109    14   -0.477463    15   -0.461386  

   => Virtual Orbital Energies <=

      16    0.028838    17    0.055339    18    0.057836  
      19    0.065166    20    0.071951    21    0.076143  
      22    0.079203    23    0.082602    24    0.090707  
      25    0.097420    26    0.105621    27    0.108063  
      28    0.113498    29    0.123389    30    0.128746  
      31    0.136310    32    0.137688    33    0.139377  
      34    0.148131    35    0.151949    36    0.155745  
      37    0.160992    38    0.170158    39    0.172759  
      40    0.184337    41    0.189909    42    0.190215  
      43    0.195355    44    0.198904    45    0.199654  
      46    0.213124    47    0.213792    48    0.219613  
      49    0.225364    50    0.238254    51    0.241950  
      52    0.247782    53    0.250846    54    0.256943  
      55    0.258579    56    0.263652    57    0.269251  
      58    0.275655    59    0.280524    60    0.288904  
      61    0.296582    62    0.305842    63    0.310349  
      64    0.319935    65    0.321853    66    0.331488  
      67    0.334235    68    0.338974    69    0.341474  
      70    0.347219    71    0.349520    72    0.356388  
      73    0.359786    74    0.370958    75    0.373323  
      76    0.381325    77    0.382905    78    0.386802  
      79    0.395048    80    0.401429    81    0.404971  
      82    0.413129    83    0.416013    84    0.420953  
      85    0.423138    86    0.432383    87    0.436209  
      88    0.442253    89    0.450441    90    0.461594  
      91    0.467397    92    0.473786    93    0.479380  
      94    0.488504    95    0.498835    96    0.505655  
      97    0.511316    98    0.520783    99    0.533663  
     100    0.542518   101    0.544160   102    0.554992  
     103    0.561161   104    0.578422   105    0.582730  
     106    0.588501   107    0.601531   108    0.615577  
     109    0.623452   110    0.633880   111    0.635292  
     112    0.646081   113    0.650252   114    0.696770  
     115    0.708424   116    0.717075   117    0.760680  
     118    0.780925   119    0.793026   120    0.808123  
     121    0.819684   122    0.833803   123    0.839999  
     124    0.853975   125    0.871043   126    0.886812  
     127    0.899394   128    0.907343   129    0.913044  
     130    0.922475   131    0.927705   132    0.934618  
     133    0.941710   134    0.950070   135    0.956112  
     136    0.960362   137    0.962805   138    0.971102  
     139    0.975069   140    0.988926   141    0.995074  
     142    1.005357   143    1.008072   144    1.020471  
     145    1.027184   146    1.038068   147    1.041735  
     148    1.049510   149    1.059962   150    1.075627  
     151    1.080565   152    1.093505   153    1.098472  
     154    1.109367   155    1.121647   156    1.124453  
     157    1.149550   158    1.154679   159    1.162038  
     160    1.164758   161    1.195327   162    1.229399  
     163    1.241070   164    1.262191   165    1.298000  
     166    1.324053   167    1.339051   168    1.350387  
     169    1.360100   170    1.403453   171    1.434628  
     172    1.455241   173    1.479934   174    1.488759  
     175    1.503253   176    1.519963   177    1.531120  
     178    1.537809   179    1.556375   180    1.561694  
     181    1.572164   182    1.579383   183    1.593070  
     184    1.613645   185    1.634142   186    1.646726  
     187    1.652711   188    1.671281   189    1.683693  
     190    1.694384   191    1.699187   192    1.712722  
     193    1.728063   194    1.738477   195    1.770283  
     196    1.772758   197    1.783340   198    1.787924  
     199    1.814361   200    1.827562   201    1.840267  
     202    1.844197   203    1.853215   204    1.877845  
     205    1.880358   206    1.895112   207    1.916614  
     208    1.923322   209    1.935919   210    1.945990  
     211    1.959066   212    1.972740   213    1.976733  
     214    1.988168   215    1.999228   216    2.004183  
     217    2.008354   218    2.026834   219    2.029074  
     220    2.031483   221    2.043367   222    2.054684  
     223    2.063410   224    2.083426   225    2.093788  
     226    2.102092   227    2.114601   228    2.125695  
     229    2.132468   230    2.141739   231    2.154078  
     232    2.158090   233    2.174253   234    2.188437  
     235    2.192150   236    2.201365   237    2.208498  
     238    2.217502   239    2.239758   240    2.258158  
     241    2.280155   242    2.297659   243    2.301549  
     244    2.319660   245    2.329566   246    2.344789  
     247    2.355447   248    2.359547   249    2.379799  
     250    2.390060   251    2.400251   252    2.412737  
     253    2.417151   254    2.432319   255    2.446469  
     256    2.453180   257    2.467502   258    2.480876  
     259    2.515104   260    2.528445   261    2.551515  
     262    2.566056   263    2.584625   264    2.599257  
     265    2.613519   266    2.633665   267    2.649258  
     268    2.666492   269    2.677886   270    2.685989  
     271    2.714122   272    2.731584   273    2.765807  
     274    2.784706   275    2.788427   276    2.797320  
     277    2.818436   278    2.834949   279    2.862168  
     280    2.866528   281    2.868038   282    2.873548  
     283    2.894765   284    2.897257   285    2.907613  
     286    2.925501   287    2.931768   288    2.940143  
     289    2.959493   290    2.981279   291    3.014293  
     292    3.036208   293    3.048992   294    3.067214  
     295    3.106633   296    3.153971   297    3.214079  
     298    3.269031   299    3.286590   300    3.313201  
     301    3.392107   302    3.423510   303    3.436062  
     304    3.536417   305    3.574006   306    3.609823  
     307    3.636400   308    3.691053   309    3.709173  
     310    3.763639   311    3.800659   312    3.875975  
     313    3.954652   314    3.959031   315    4.097792  
     316    4.172730   317    4.219035   318    4.436731  
     319    4.509537   320    4.541330   321    4.757876  
     322    4.941684   323    5.040580   324    5.063429  
     325    5.214533   326    5.318356   327    5.527367  
     328    5.604953   329    5.683787   330    5.878319  
     331    6.072697   332    6.341170   333    6.712077  
     334   13.362706   335   18.424315   336   33.421875  
     337   33.473471  

  ==> SCF B: <==

    Maxiter =          50
    E Tol   =   1.000E-06
    D Tol   =   1.000E-08

    Max DIIS Vectors = 5

    Iter   N:                        E          dE         |D|
    Iter   1:  -2.2397545512397397E+02  -2.240E+02   8.815E-04 
    Iter   2:  -2.2399072275154111E+02  -1.527E-02   4.961E-05 DIIS
    Iter   3:  -2.2399097629213199E+02  -2.535E-04   1.528E-05 DIIS
    Iter   4:  -2.2399099396351377E+02  -1.767E-05   7.161E-06 DIIS
    Iter   5:  -2.2399099769918169E+02  -3.736E-06   1.656E-06 DIIS
    Iter   6:  -2.2399099797201228E+02  -2.728E-07   6.166E-07 DIIS
    Iter   7:  -2.2399099801310439E+02  -4.109E-08   2.626E-07 DIIS
    Iter   8:  -2.2399099802175377E+02  -8.649E-09   9.134E-08 DIIS
    Iter   9:  -2.2399099802312634E+02  -1.373E-09   4.182E-08 DIIS
    Iter  10:  -2.2399099802342897E+02  -3.026E-10   1.387E-08 DIIS
    Iter  11:  -2.2399099802345404E+02  -2.507E-11   8.872E-09 DIIS

    FISAPTSCF Converged.

    Final SCF Energy:  -2.2399099802345404E+02 [Eh]

   => Occupied Orbital Energies <=

       1  -20.603472     2  -20.542357     3  -11.377343  
       4  -11.290816     5   -1.432538     6   -1.350325  
       7   -0.957220     8   -0.761072     9   -0.663486  
      10   -0.658254    11   -0.617347    12   -0.535812  
      13   -0.532268    14   -0.466144    15   -0.455756  

   => Virtual Orbital Energies <=

      16    0.034615    17    0.056181    18    0.057231  
      19    0.062724    20    0.072697    21    0.078351  
      22    0.081460    23    0.085270    24    0.096425  
      25    0.098711    26    0.101433    27    0.108319  
      28    0.116804    29    0.120379    30    0.126264  
      31    0.136006    32    0.138594    33    0.142901  
      34    0.145649    35    0.151925    36    0.159617  
      37    0.165892    38    0.170443    39    0.173303  
      40    0.179205    41    0.189772    42    0.197047  
      43    0.197981    44    0.202218    45    0.209687  
      46    0.213378    47    0.218881    48    0.224074  
      49    0.225020    50    0.238011    51    0.240051  
      52    0.243897    53    0.246831    54    0.250047  
      55    0.258896    56    0.263436    57    0.268791  
      58    0.273874    59    0.289000    60    0.291275  
      61    0.301168    62    0.305520    63    0.312012  
      64    0.316146    65    0.320556    66    0.328056  
      67    0.330939    68    0.339902    69    0.345803  
      70    0.348504    71    0.356530    72    0.357919  
      73    0.365144    74    0.371651    75    0.375361  
      76    0.378954    77    0.388944    78    0.394097  
      79    0.400405    80    0.409419    81    0.411656  
      82    0.415787    83    0.418247    84    0.424959  
      85    0.429818    86    0.435271    87    0.439843  
      88    0.444551    89    0.450636    90    0.458994  
      91    0.462211    92    0.468133    93    0.474308  
      94    0.489652    95    0.500651    96    0.505764  
      97    0.516864    98    0.524423    99    0.540604  
     100    0.549206   101    0.553486   102    0.560255  
     103    0.563711   104    0.579629   105    0.582209  
     106    0.599344   107    0.601760   108    0.611389  
     109    0.618555   110    0.626974   111    0.640969  
     112    0.660126   113    0.672268   114    0.693231  
     115    0.718567   116    0.745117   117    0.768426  
     118    0.777533   119    0.783790   120    0.800073  
     121    0.810064   122    0.827544   123    0.839099  
     124    0.852703   125    0.878711   126    0.888726  
     127    0.899465   128    0.913979   129    0.919844  
     130    0.930290   131    0.931234   132    0.939375  
     133    0.943176   134    0.946553   135    0.955621  
     136    0.960859   137    0.965142   138    0.976240  
     139    0.986524   140    0.989888   141    1.000186  
     142    1.006821   143    1.017842   144    1.019038  
     145    1.031074   146    1.035880   147    1.039334  
     148    1.055398   149    1.059598   150    1.067600  
     151    1.074294   152    1.083382   153    1.094104  
     154    1.111549   155    1.122086   156    1.129774  
     157    1.136994   158    1.149778   159    1.152457  
     160    1.185179   161    1.211098   162    1.220611  
     163    1.237795   164    1.265186   165    1.302286  
     166    1.305899   167    1.332644   168    1.358359  
     169    1.397730   170    1.405641   171    1.430144  
     172    1.449948   173    1.479101   174    1.484101  
     175    1.498648   176    1.505583   177    1.536540  
     178    1.554587   179    1.564120   180    1.570674  
     181    1.583765   182    1.604131   183    1.608301  
     184    1.623961   185    1.632671   186    1.647265  
     187    1.659663   188    1.662714   189    1.671233  
     190    1.691597   191    1.705127   192    1.716753  
     193    1.731666   194    1.744089   195    1.748811  
     196    1.761282   197    1.775963   198    1.813452  
     199    1.822316   200    1.830540   201    1.847896  
     202    1.853011   203    1.867151   204    1.874848  
     205    1.881217   206    1.900064   207    1.913293  
     208    1.928737   209    1.933475   210    1.947985  
     211    1.952036   212    1.972947   213    1.980735  
     214    1.997733   215    2.006381   216    2.011741  
     217    2.015601   218    2.030936   219    2.039980  
     220    2.043237   221    2.052857   222    2.056514  
     223    2.060622   224    2.081586   225    2.085716  
     226    2.112781   227    2.120321   228    2.126745  
     229    2.135331   230    2.139072   231    2.143789  
     232    2.157251   233    2.163600   234    2.183674  
     235    2.193092   236    2.205731   237    2.226577  
     238    2.244816   239    2.255049   240    2.267385  
     241    2.278471   242    2.300010   243    2.306968  
     244    2.336345   245    2.348048   246    2.360744  
     247    2.363820   248    2.368769   249    2.387187  
     250    2.390904   251    2.394951   252    2.405044  
     253    2.419762   254    2.426976   255    2.439734  
     256    2.442468   257    2.468626   258    2.481007  
     259    2.504654   260    2.533340   261    2.550086  
     262    2.563665   263    2.569342   264    2.588356  
     265    2.606445   266    2.641864   267    2.651738  
     268    2.673007   269    2.689661   270    2.703267  
     271    2.710109   272    2.730012   273    2.758102  
     274    2.785511   275    2.789478   276    2.807049  
     277    2.814713   278    2.842696   279    2.851946  
     280    2.863723   281    2.867367   282    2.881419  
     283    2.886285   284    2.905173   285    2.909248  
     286    2.912821   287    2.933601   288    2.941139  
     289    2.944765   290    2.996394   291    3.019497  
     292    3.032949   293    3.068989   294    3.079998  
     295    3.115754   296    3.144785   297    3.205508  
     298    3.267027   299    3.315027   300    3.337986  
     301    3.391393   302    3.431718   303    3.444024  
     304    3.537779   305    3.582269   306    3.594504  
     307    3.645748   308    3.700680   309    3.733429  
     310    3.793950   311    3.804272   312    3.880263  
     313    3.959928   314    3.977903   315    4.096952  
     316    4.143807   317    4.213030   318    4.437490  
     319    4.521814   320    4.547007   321    4.761995  
     322    4.947455   323    5.051444   324    5.073040  
     325    5.208848   326    5.331329   327    5.532471  
     328    5.627420   329    5.735439   330    5.857514  
     331    6.087646   332    6.341193   333    6.719162  
     334   13.391342   335   18.435895   336   33.432216  
     337   33.480962  

  ==> Frozen Core <==


    ------------------
    Range      A     B
    ------------------
    nbf      368   368
    nmo      337   337
    nocc      15    15
    nvir     322   322
    nfocc      4     4
    naocc     11    11
    navir    322   322
    nfvir      0     0
    ------------------

  ==> Unification <==

  ==> dHF <==

    E ABC(HF) =  -8.0026837796710720E+02 [Eh]
    E AC(0)   =  -5.7222111675204110E+02 [Eh]
    E BC(0)   =  -5.7225092050640944E+02 [Eh]
    E A(0)    =  -2.1265737726535417E+02 [Eh]
    E B(0)    =  -2.1266652940897259E+02 [Eh]
    E AC(HF)  =  -5.7221005119016536E+02 [Eh]
    E BC(HF)  =  -5.7223537760692886E+02 [Eh]
    E AB(HF)  =  -4.2528991010162821E+02 [Eh]
    E A(HF)   =  -2.1263766636495001E+02 [Eh]
    E B(HF)   =  -2.1264285330559133E+02 [Eh]
    E C       =  -3.4418644126107324E+02 [Eh]
    E HF      =   1.7218030270100826E-02 [Eh]

  ==> Electrostatics <==

    Elst10,r            =     0.011712435040 [Eh]

  ==> Exchange <==

    Exch10(S^2)         =     0.008171848283 [Eh]
    Exch10              =     0.008200161980 [Eh]

  ==> Induction <==

    Ind20,u (A<-B)      =    -0.001908242160 [Eh]
    Ind20,u (B<-A)      =    -0.002555012452 [Eh]
    Ind20,u             =    -0.004463254612 [Eh]
    Exch-Ind20,u (A<-B) =     0.000804734411 [Eh]
    Exch-Ind20,u (B<-A) =     0.001752011202 [Eh]
    Exch-Ind20,u        =     0.002556745612 [Eh]

  ==> CPHF Iterations <==

    Maxiter     =          50
    Convergence =   1.000E-08

    -----------------------------------------
    Iter   Monomer A    Monomer B    Time [s]
    -----------------------------------------
    1      2.030E-01    2.181E-01          31
    2      7.776E-02    8.443E-02          67
    3      1.988E-02    1.883E-02          98
    4      6.876E-03    8.093E-03         125
    5      1.940E-03    2.894E-03         154
    6      6.706E-04    1.418E-03         182
    7      2.312E-04    4.330E-04         211
    8      7.208E-05    1.597E-04         240
    9      1.793E-05    3.790E-05         266
    10     5.220E-06    1.340E-05         290
    11     1.824E-06    4.378E-06         323
    12     4.835E-07    9.565E-07         350
    13     1.650E-07    1.917E-07         374
    14     4.661E-08    5.158E-08         399
    15     1.144E-08    1.004E-08         434
    16     3.354E-09*   1.879E-09*        458
    -----------------------------------------

    Ind20,r (A<-B)      =    -0.002162966331 [Eh]
    Ind20,r (B<-A)      =    -0.003159618794 [Eh]
    Ind20,r             =    -0.005322585125 [Eh]
    Exch-Ind20,r (A<-B) =     0.000947560780 [Eh]
    Exch-Ind20,r (B<-A) =     0.002276096661 [Eh]
    Exch-Ind20,r        =     0.003223657442 [Eh]

  ==> F-SAPT Localization (IBO) <==

  Local Orbitals for Monomer A:

  ==> IBO Localizer 2 <==

    MinAO Basis = CC-PVTZ-MINAO
    Use Ghosts  =       FALSE
    Use Stars   =       FALSE
    Condition   =   1.000E-07
    Power       =           4
    Convergence =   1.000E-12
    Maxiter     =        1000

    @IBO Iter:                   Metric       Gradient
    @IBO    1:   1.4765436078912957E+00   1.484081E+00
    @IBO    2:   1.6819078781239887E+00   8.789364E-01
    @IBO    3:   1.7091987955498149E+00   2.795878E-01
    @IBO    4:   1.7110165172885803E+00   8.532256E-03
    @IBO    5:   1.7110245974886400E+00   3.729677E-04
    @IBO    6:   1.7110245993123103E+00   1.933712E-06
    @IBO    7:   1.7110245993123945E+00   4.915949E-08
    @IBO    8:   1.7110245993123945E+00   1.673839E-09
    @IBO    9:   1.7110245993123947E+00   6.390116E-11
    @IBO   10:   1.7110245993123947E+00   2.555031E-12
    @IBO   11:   1.7110245993123947E+00   1.038280E-13

    IBO Localizer 2 converged.

  Local Orbitals for Monomer B:

  ==> IBO Localizer 2 <==

    MinAO Basis = CC-PVTZ-MINAO
    Use Ghosts  =       FALSE
    Use Stars   =       FALSE
    Condition   =   1.000E-07
    Power       =           4
    Convergence =   1.000E-12
    Maxiter     =        1000

    @IBO Iter:                   Metric       Gradient
    @IBO    1:   1.4832323713785549E+00   1.567078E+00
    @IBO    2:   1.6750696970434829E+00   1.087201E+00
    @IBO    3:   1.7095601380094139E+00   3.278477E-01
    @IBO    4:   1.7108730673494930E+00   3.534923E-03
    @IBO    5:   1.7108734533606229E+00   1.149681E-04
    @IBO    6:   1.7108734535471881E+00   1.915093E-06
    @IBO    7:   1.7108734535472572E+00   5.148375E-08
    @IBO    8:   1.7108734535472572E+00   1.085773E-09
    @IBO    9:   1.7108734535472572E+00   2.428132E-11
    @IBO   10:   1.7108734535472572E+00   6.559575E-13

    IBO Localizer 2 converged.

  ==> F-SAPT Electrostatics <==

  ==> DFERI: Density Fitted 3-Index Tensors <==

    Schwarz cutoff =   0.000E+00
    J cutoff       =   1.000E-12
    Mem (GB)       =         628

   => Auxiliary Basis <=

  Basis Set: (JUN-CC-PVDZ AUX)
    Blend: JUN-CC-PVDZ-JKFIT
    Number of shells: 576
    Number of basis function: 1632
    Number of Cartesian functions: 1856
    Spherical Harmonics?: true
    Max angular momentum: 3

    Elst10,r            =     0.011712436056 [Eh]

  ==> F-SAPT Exchange <==

  ==> DFERI: Density Fitted 3-Index Tensors <==

    Schwarz cutoff =   0.000E+00
    J cutoff       =   1.000E-12
    Mem (GB)       =         628

   => Auxiliary Basis <=

  Basis Set: (JUN-CC-PVDZ AUX)
    Blend: JUN-CC-PVDZ-JKFIT
    Number of shells: 576
    Number of basis function: 1632
    Number of Cartesian functions: 1856
    Spherical Harmonics?: true
    Max angular momentum: 3

    Exch10(S^2)         =     0.008171848284 [Eh]

    Scaling F-SAPT Exch10(S^2) by   1.003E+00 to match Exch10

  ==> F-SAPT Induction <==

  ==> DFERI: Density Fitted 3-Index Tensors <==

    Schwarz cutoff =   0.000E+00
    J cutoff       =   1.000E-12
    Mem (GB)       =         628

   => Auxiliary Basis <=

  Basis Set: (JUN-CC-PVDZ AUX)
    Blend: JUN-CC-PVDZ-JKFIT
    Number of shells: 576
    Number of basis function: 1632
    Number of Cartesian functions: 1856
    Spherical Harmonics?: true
    Max angular momentum: 3

    Ind20,u (A<-B)      =    -0.001908242159 [Eh]
    Ind20,u (B<-A)      =    -0.002555012452 [Eh]
    Ind20,u             =    -0.004463254611 [Eh]
    Exch-Ind20,u (A<-B) =     0.000804734411 [Eh]
    Exch-Ind20,u (B<-A) =     0.001752011201 [Eh]
    Exch-Ind20,u        =     0.002556745612 [Eh]

    Scaling for delta HF        =   1.284E+00
    Scaling for response (A<-B) =   1.101E+00
    Scaling for response (B<-A) =   1.100E+00
    Scaling for total (A<-B)    =   1.414E+00
    Scaling for total (B<-A)    =   1.413E+00

  ==> F-SAPT Dispersion <==

  ==> DFERI: Density Fitted 3-Index Tensors <==

    Schwarz cutoff =   0.000E+00
    J cutoff       =   1.000E-12
    Mem (GB)       =         628

   => Auxiliary Basis <=

  Basis Set: (JUN-CC-PVDZ AUX)
    Blend: JUN-CC-PVDZ-RI
    Number of shells: 432
    Number of basis function: 1264
    Number of Cartesian functions: 1456
    Spherical Harmonics?: true
    Max angular momentum: 3

    Disp20              =    -0.004430008149 [Eh]
    Exch-Disp20         =     0.000648644317 [Eh]

  ==> F-SAPT Output <==

    F-SAPT Data Filepath = fsapt/

  ==> Results <==


    SAPT Results  
  --------------------------------------------------------------------------------------------------------
    Electrostatics                 11.71243504 [mEh]       7.34966426 [kcal/mol]      30.75099820 [kJ/mol]
      Elst10,r                     11.71243504 [mEh]       7.34966426 [kcal/mol]      30.75099820 [kJ/mol]

    Exchange                        8.20016198 [mEh]       5.14567954 [kcal/mol]      21.52952528 [kJ/mol]
      Exch10                        8.20016198 [mEh]       5.14567954 [kcal/mol]      21.52952528 [kJ/mol]
      Exch10(S^2)                   8.17184828 [mEh]       5.12791243 [kcal/mol]      21.45518767 [kJ/mol]

    Induction                      -2.69456675 [mEh]      -1.69086623 [kcal/mol]      -7.07458500 [kJ/mol]
      Ind20,r                      -5.32258512 [mEh]      -3.33997273 [kcal/mol]     -13.97444725 [kJ/mol]
      Exch-Ind20,r                  3.22365744 [mEh]       2.02287567 [kcal/mol]       8.46371261 [kJ/mol]
      delta HF,r (2)               -0.59563907 [mEh]      -0.37376917 [kcal/mol]      -1.56385037 [kJ/mol]
      Induction (A<-B)             -1.56031645 [mEh]      -0.97911339 [kcal/mol]      -4.09661083 [kJ/mol]
      Induction (B<-A)             -1.13425030 [mEh]      -0.71175284 [kcal/mol]      -2.97797417 [kJ/mol]

    Dispersion                     -3.78136383 [mEh]      -2.37284173 [kcal/mol]      -9.92797074 [kJ/mol]
      Disp20                       -4.43000815 [mEh]      -2.77987220 [kcal/mol]     -11.63098640 [kJ/mol]
      Exch-Disp20                   0.64864432 [mEh]       0.40703047 [kcal/mol]       1.70301565 [kJ/mol]

  Total HF                         17.21803027 [mEh]      10.80447757 [kcal/mol]      45.20593847 [kJ/mol]
  Total SAPT0                      13.43666644 [mEh]       8.43163584 [kcal/mol]      35.27796773 [kJ/mol]

  --------------------------------------------------------------------------------------------------------
    Han Solo: This is *not* gonna work.
    Luke Skywalker: Why didn't you say so before?
    Han Solo: I *did* say so before.

*** tstop() called on ThinkPad-P50 at Tue Dec 12 11:29:39 2017
Module time:
	user time   =    1094.11 seconds =      18.24 minutes
	system time =       7.61 seconds =       0.13 minutes
	total time  =       1115 seconds =      18.58 minutes
Total time:
	user time   =    1226.53 seconds =      20.44 minutes
	system time =       8.64 seconds =       0.14 minutes
	total time  =       1248 seconds =      20.80 minutes

*** Psi4 exiting successfully. Buy a developer a beer!
