
    -----------------------------------------------------------------------
          Psi4: An Open-Source Ab Initio Electronic Structure Package
                               Psi4 1.1 release

                         Git: Rev {HEAD} add49b9 


    R. M. Parrish, L. A. Burns, D. G. A. Smith, A. C. Simmonett,
    A. E. DePrince III, E. G. Hohenstein, U. Bozkaya, A. Yu. Sokolov,
    R. Di Remigio, R. M. Richard, J. F. Gonthier, A. M. James,
    H. R. McAlexander, A. Kumar, M. Saitow, X. Wang, B. P. Pritchard,
    P. Verma, H. F. Schaefer III, K. Patkowski, R. A. King, E. F. Valeev,
    F. A. Evangelista, J. M. Turney, T. D. Crawford, and C. D. Sherrill,
    J. Chem. Theory Comput. in press (2017).
    (doi: 10.1021/acs.jctc.7b00174)

    -----------------------------------------------------------------------


    Psi4 started on: Tuesday, 12 December 2017 11:29AM

    Process ID:  15624
    PSIDATADIR: /home/junteng/Softwares/psi4conda/share/psi4
    Memory:     500.0 MiB
    Threads:    1
    
  ==> Input File <==

--------------------------------------------------------------------------
memory 750000 mb

molecule mol {
0 1
C         -0.23982       -1.65055        0.37426
O          0.18447       -2.78016        0.33292
O         -1.54412       -1.35634        0.24292
C         -2.42732       -2.46165       -0.02327
H         -2.39236       -3.18239        0.79494
H         -2.14505       -2.95474       -0.95389
H         -3.41910       -2.02363       -0.10805
--
0 1
C         -1.27734        1.15395       -0.23637
O         -1.43988        1.08959       -1.42788
O         -2.26709        1.45906        0.63569
C         -3.57921        1.59359        0.06621
H         -3.87593        0.66533       -0.42531
H         -3.60269        2.40478       -0.66340
H         -4.24017        1.81189        0.90247
--
0 1
C          2.58623       -1.59219       -0.70839
H          3.50306       -1.31747       -1.23521
H          2.82412       -2.31989        0.06819
H          1.90521       -2.06477       -1.41467
H          0.87129        2.49330       -0.95575
C          0.04606        1.01189        0.49572
C          0.62294       -0.43870        0.69252
C          1.18974        1.66387       -0.32917
C          2.39451        1.93498        0.59484
C          2.95966        0.49692        0.76560
C          1.98303       -0.34121       -0.10961
O          1.64458        0.58919       -1.15161
H         -0.07456        1.49288        1.46592
H          0.85373       -0.58053        1.75238
H          3.11218        2.58871        0.09688
H          2.10465        2.40682        1.53594
H          3.96935        0.41718        0.35924
H          2.98798        0.15733        1.80281

symmetry c1
no_reorient
no_com
}

set {
basis jun-cc-pvdz
scf_type df
guess sad
freeze_core true
}

energy('fisapt0')
--------------------------------------------------------------------------

  Memory set to 698.492 GiB by Python driver.

*** tstart() called on ThinkPad-P50
*** at Tue Dec 12 11:29:40 2017

   => Loading Basis Set <=

    Name: JUN-CC-PVDZ
    Role: ORBITAL
    Keyword: BASIS
    atoms 1, 4, 8, 11, 15, 20-25   entry C          line   157 file /home/junteng/Softwares/psi4conda/share/psi4/basis/jun-cc-pvdz.gbs 
    atoms 2-3, 9-10, 26            entry O          line   225 file /home/junteng/Softwares/psi4conda/share/psi4/basis/jun-cc-pvdz.gbs 
    atoms 5-7, 12-14, 16-19, 27-32 entry H          line    35 file /home/junteng/Softwares/psi4conda/share/psi4/basis/jun-cc-pvdz.gbs 


         ---------------------------------------------------------
                                   SCF
            by Justin Turney, Rob Parrish, and Andy Simmonett
                              RHF Reference
                        1 Threads, 715255 MiB Core
         ---------------------------------------------------------

  ==> Geometry <==

    Molecular point group: c1
    Full point group: C1

    Geometry (in Angstrom), charge = 0, multiplicity = 1:

       Center              X                  Y                   Z               Mass       
    ------------   -----------------  -----------------  -----------------  -----------------
           C         -0.239820000000    -1.650550000000     0.374260000000    12.000000000000
           O          0.184470000000    -2.780160000000     0.332920000000    15.994914619560
           O         -1.544120000000    -1.356340000000     0.242920000000    15.994914619560
           C         -2.427320000000    -2.461650000000    -0.023270000000    12.000000000000
           H         -2.392360000000    -3.182390000000     0.794940000000     1.007825032070
           H         -2.145050000000    -2.954740000000    -0.953890000000     1.007825032070
           H         -3.419100000000    -2.023630000000    -0.108050000000     1.007825032070
           C         -1.277340000000     1.153950000000    -0.236370000000    12.000000000000
           O         -1.439880000000     1.089590000000    -1.427880000000    15.994914619560
           O         -2.267090000000     1.459060000000     0.635690000000    15.994914619560
           C         -3.579210000000     1.593590000000     0.066210000000    12.000000000000
           H         -3.875930000000     0.665330000000    -0.425310000000     1.007825032070
           H         -3.602690000000     2.404780000000    -0.663400000000     1.007825032070
           H         -4.240170000000     1.811890000000     0.902470000000     1.007825032070
           C          2.586230000000    -1.592190000000    -0.708390000000    12.000000000000
           H          3.503060000000    -1.317470000000    -1.235210000000     1.007825032070
           H          2.824120000000    -2.319890000000     0.068190000000     1.007825032070
           H          1.905210000000    -2.064770000000    -1.414670000000     1.007825032070
           H          0.871290000000     2.493300000000    -0.955750000000     1.007825032070
           C          0.046060000000     1.011890000000     0.495720000000    12.000000000000
           C          0.622940000000    -0.438700000000     0.692520000000    12.000000000000
           C          1.189740000000     1.663870000000    -0.329170000000    12.000000000000
           C          2.394510000000     1.934980000000     0.594840000000    12.000000000000
           C          2.959660000000     0.496920000000     0.765600000000    12.000000000000
           C          1.983030000000    -0.341210000000    -0.109610000000    12.000000000000
           O          1.644580000000     0.589190000000    -1.151610000000    15.994914619560
           H         -0.074560000000     1.492880000000     1.465920000000     1.007825032070
           H          0.853730000000    -0.580530000000     1.752380000000     1.007825032070
           H          3.112180000000     2.588710000000     0.096880000000     1.007825032070
           H          2.104650000000     2.406820000000     1.535940000000     1.007825032070
           H          3.969350000000     0.417180000000     0.359240000000     1.007825032070
           H          2.987980000000     0.157330000000     1.802810000000     1.007825032070

  Running in c1 symmetry.

  Rotational constants: A =      0.02523  B =      0.01670  C =      0.01158 [cm^-1]
  Rotational constants: A =    756.38032  B =    500.69011  C =    347.21125 [MHz]
  Nuclear repulsion = 1249.843235647734218

  Charge       = 0
  Multiplicity = 1
  Electrons    = 122
  Nalpha       = 61
  Nbeta        = 61

  ==> Algorithm <==

  SCF Algorithm Type is DF.
  DIIS enabled.
  MOM disabled.
  Fractional occupation disabled.
  Guess Type is SAD.
  Energy threshold   = 1.00e-08
  Density threshold  = 1.00e-08
  Integral threshold = 0.00e+00

  ==> Primary Basis <==

  Basis Set: JUN-CC-PVDZ
    Blend: JUN-CC-PVDZ
    Number of shells: 176
    Number of basis function: 368
    Number of Cartesian functions: 384
    Spherical Harmonics?: true
    Max angular momentum: 2

   => Loading Basis Set <=

    Name: (JUN-CC-PVDZ AUX)
    Role: JKFIT
    Keyword: DF_BASIS_SCF
    atoms 1, 4, 8, 11, 15, 20-25   entry C          line   145 file /home/junteng/Softwares/psi4conda/share/psi4/basis/jun-cc-pvdz-jkfit.gbs 
    atoms 2-3, 9-10, 26            entry O          line   257 file /home/junteng/Softwares/psi4conda/share/psi4/basis/jun-cc-pvdz-jkfit.gbs 
    atoms 5-7, 12-14, 16-19, 27-32 entry H          line    69 file /home/junteng/Softwares/psi4conda/share/psi4/basis/jun-cc-pvdz-jkfit.gbs 

  ==> Pre-Iterations <==

   -------------------------------------------------------
    Irrep   Nso     Nmo     Nalpha   Nbeta   Ndocc  Nsocc
   -------------------------------------------------------
     A        368     368       0       0       0       0
   -------------------------------------------------------
    Total     368     368      61      61      61       0
   -------------------------------------------------------

  ==> Integral Setup <==

  ==> DFJK: Density-Fitted J/K Matrices <==

    J tasked:                  Yes
    K tasked:                  Yes
    wK tasked:                  No
    OpenMP threads:              1
    Integrals threads:           1
    Memory (MB):            536441
    Algorithm:                Core
    Integral Cache:           NONE
    Schwarz Cutoff:          1E-12
    Fitting Condition:       1E-12

   => Auxiliary Basis Set <=

  Basis Set: (JUN-CC-PVDZ AUX)
    Blend: JUN-CC-PVDZ-JKFIT
    Number of shells: 576
    Number of basis function: 1632
    Number of Cartesian functions: 1856
    Spherical Harmonics?: true
    Max angular momentum: 3

  Minimum eigenvalue in the overlap matrix is 9.1137564230E-06.
  Using Symmetric Orthogonalization.

  SCF Guess: Superposition of Atomic Densities via on-the-fly atomic UHF.

  ==> Iterations <==

                           Total Energy        Delta E     RMS |[F,P]|

   @DF-RHF iter   0:  -806.77154340704351   -8.06772e+02   1.99931e-02 
   @DF-RHF iter   1:  -799.79372438429584    6.97782e+00   2.17369e-03 
   @DF-RHF iter   2:  -800.17566055242150   -3.81936e-01   1.06375e-03 DIIS
   @DF-RHF iter   3:  -800.24609399799283   -7.04334e-02   3.85902e-04 DIIS
   @DF-RHF iter   4:  -800.26155110213153   -1.54571e-02   8.30245e-05 DIIS
   @DF-RHF iter   5:  -800.26276870354184   -1.21760e-03   3.81507e-05 DIIS
   @DF-RHF iter   6:  -800.26304264757152   -2.73944e-04   1.58075e-05 DIIS
   @DF-RHF iter   7:  -800.26311102306283   -6.83755e-05   7.33315e-06 DIIS
   @DF-RHF iter   8:  -800.26312257812333   -1.15551e-05   3.14535e-06 DIIS
   @DF-RHF iter   9:  -800.26312508018987   -2.50207e-06   1.12639e-06 DIIS
   @DF-RHF iter  10:  -800.26312536904106   -2.88851e-07   4.26743e-07 DIIS
   @DF-RHF iter  11:  -800.26312540515414   -3.61131e-08   1.44436e-07 DIIS
   @DF-RHF iter  12:  -800.26312540872641   -3.57227e-09   5.65759e-08 DIIS
   @DF-RHF iter  13:  -800.26312540923857   -5.12159e-10   2.04726e-08 DIIS
   @DF-RHF iter  14:  -800.26312540930610   -6.75300e-11   8.83595e-09 DIIS

  ==> Post-Iterations <==

    Orbital Energies (a.u.)
    -----------------------

    Doubly Occupied:                                                      

       1A    -20.616783     2A    -20.606274     3A    -20.563120  
       4A    -20.557142     5A    -20.547587     6A    -11.397319  
       7A    -11.386869     8A    -11.302343     9A    -11.300047  
      10A    -11.293707    11A    -11.293584    12A    -11.273459  
      13A    -11.263644    14A    -11.239209    15A    -11.237757  
      16A    -11.218861    17A     -1.474841    18A     -1.459971  
      19A     -1.402950    20A     -1.370371    21A     -1.360107  
      22A     -1.112348    23A     -1.059317    24A     -1.048542  
      25A     -0.994566    26A     -0.971745    27A     -0.933127  
      28A     -0.884060    29A     -0.817140    30A     -0.801463  
      31A     -0.771202    32A     -0.762116    33A     -0.720919  
      34A     -0.700384    35A     -0.688628    36A     -0.679476  
      37A     -0.671625    38A     -0.662393    39A     -0.659134  
      40A     -0.656290    41A     -0.627570    42A     -0.593614  
      43A     -0.584119    44A     -0.580614    45A     -0.566756  
      46A     -0.564305    47A     -0.548466    48A     -0.529811  
      49A     -0.529256    50A     -0.516533    51A     -0.514414  
      52A     -0.507576    53A     -0.498729    54A     -0.492556  
      55A     -0.474741    56A     -0.469683    57A     -0.468239  
      58A     -0.453815    59A     -0.448472    60A     -0.429939  
      61A     -0.424158  

    Virtual:                                                              

      62A      0.049375    63A      0.053731    64A      0.059547  
      65A      0.068451    66A      0.070689    67A      0.076522  
      68A      0.086756    69A      0.092383    70A      0.095803  
      71A      0.104352    72A      0.110755    73A      0.113727  
      74A      0.117164    75A      0.122405    76A      0.132219  
      77A      0.137262    78A      0.141160    79A      0.144937  
      80A      0.152748    81A      0.157093    82A      0.160944  
      83A      0.165843    84A      0.174342    85A      0.176370  
      86A      0.178663    87A      0.193103    88A      0.194991  
      89A      0.197980    90A      0.202381    91A      0.208038  
      92A      0.210693    93A      0.217018    94A      0.220688  
      95A      0.226256    96A      0.230394    97A      0.237285  
      98A      0.243408    99A      0.251706   100A      0.252799  
     101A      0.257843   102A      0.263108   103A      0.267902  
     104A      0.270771   105A      0.277295   106A      0.287564  
     107A      0.296991   108A      0.304031   109A      0.309365  
     110A      0.314984   111A      0.318466   112A      0.328740  
     113A      0.336302   114A      0.341967   115A      0.344998  
     116A      0.355079   117A      0.361064   118A      0.363378  
     119A      0.367409   120A      0.371823   121A      0.373081  
     122A      0.377452   123A      0.383091   124A      0.391239  
     125A      0.394120   126A      0.397043   127A      0.404274  
     128A      0.408466   129A      0.409714   130A      0.419731  
     131A      0.425197   132A      0.430600   133A      0.430998  
     134A      0.436205   135A      0.442786   136A      0.448566  
     137A      0.464951   138A      0.466831   139A      0.470520  
     140A      0.474167   141A      0.476728   142A      0.488218  
     143A      0.499018   144A      0.500773   145A      0.512752  
     146A      0.516715   147A      0.531259   148A      0.539427  
     149A      0.543322   150A      0.553216   151A      0.565470  
     152A      0.574343   153A      0.584230   154A      0.597265  
     155A      0.610150   156A      0.625277   157A      0.637197  
     158A      0.658809   159A      0.707383   160A      0.721372  
     161A      0.752864   162A      0.765210   163A      0.783205  
     164A      0.789396   165A      0.791075   166A      0.809499  
     167A      0.818319   168A      0.826216   169A      0.842739  
     170A      0.861518   171A      0.877593   172A      0.881044  
     173A      0.886978   174A      0.896037   175A      0.908577  
     176A      0.913969   177A      0.915472   178A      0.921049  
     179A      0.926928   180A      0.933552   181A      0.940577  
     182A      0.944833   183A      0.949582   184A      0.954072  
     185A      0.959758   186A      0.963158   187A      0.975168  
     188A      0.983763   189A      0.987525   190A      0.997551  
     191A      1.000049   192A      1.002758   193A      1.009350  
     194A      1.024845   195A      1.035719   196A      1.051499  
     197A      1.057505   198A      1.069191   199A      1.073029  
     200A      1.082643   201A      1.088313   202A      1.108419  
     203A      1.110432   204A      1.116031   205A      1.137349  
     206A      1.149200   207A      1.180725   208A      1.191885  
     209A      1.207610   210A      1.223657   211A      1.239123  
     212A      1.247423   213A      1.280303   214A      1.306921  
     215A      1.314020   216A      1.339707   217A      1.345004  
     218A      1.356425   219A      1.411808   220A      1.428658  
     221A      1.449050   222A      1.472023   223A      1.474356  
     224A      1.493684   225A      1.501770   226A      1.512192  
     227A      1.525416   228A      1.547857   229A      1.555391  
     230A      1.560335   231A      1.573890   232A      1.580860  
     233A      1.598490   234A      1.609534   235A      1.623083  
     236A      1.631586   237A      1.639552   238A      1.649547  
     239A      1.652799   240A      1.662409   241A      1.673635  
     242A      1.678092   243A      1.690438   244A      1.702131  
     245A      1.713503   246A      1.721627   247A      1.737034  
     248A      1.750124   249A      1.760289   250A      1.771703  
     251A      1.797069   252A      1.819786   253A      1.836130  
     254A      1.849207   255A      1.864355   256A      1.871740  
     257A      1.877952   258A      1.890146   259A      1.904450  
     260A      1.918185   261A      1.921674   262A      1.938633  
     263A      1.942086   264A      1.958314   265A      1.966969  
     266A      1.975200   267A      1.979862   268A      1.987180  
     269A      1.998353   270A      2.010948   271A      2.018918  
     272A      2.023964   273A      2.031605   274A      2.044495  
     275A      2.052642   276A      2.054550   277A      2.061592  
     278A      2.070516   279A      2.080870   280A      2.090379  
     281A      2.109564   282A      2.131598   283A      2.132333  
     284A      2.146706   285A      2.149803   286A      2.167621  
     287A      2.181663   288A      2.187982   289A      2.193395  
     290A      2.208400   291A      2.221045   292A      2.245194  
     293A      2.259403   294A      2.281317   295A      2.287374  
     296A      2.300995   297A      2.327218   298A      2.333278  
     299A      2.357902   300A      2.361285   301A      2.384508  
     302A      2.389877   303A      2.392917   304A      2.405747  
     305A      2.417830   306A      2.420148   307A      2.426558  
     308A      2.446222   309A      2.450410   310A      2.461833  
     311A      2.493389   312A      2.503699   313A      2.527569  
     314A      2.556329   315A      2.570195   316A      2.601801  
     317A      2.624696   318A      2.656373   319A      2.681564  
     320A      2.692615   321A      2.711957   322A      2.759003  
     323A      2.767557   324A      2.771294   325A      2.779705  
     326A      2.789238   327A      2.818661   328A      2.830179  
     329A      2.846163   330A      2.856953   331A      2.869337  
     332A      2.877556   333A      2.888890   334A      2.897356  
     335A      2.906800   336A      2.925267   337A      2.944521  
     338A      2.968068   339A      2.989197   340A      3.004979  
     341A      3.015087   342A      3.051349   343A      3.078465  
     344A      3.123256   345A      3.139822   346A      3.179671  
     347A      3.246973   348A      3.271320   349A      3.300363  
     350A      3.319452   351A      3.365512   352A      3.388640  
     353A      3.408012   354A      3.430668   355A      3.478124  
     356A      3.527897   357A      3.565360   358A      3.581716  
     359A      3.665921   360A      3.697631   361A      3.706586  
     362A      3.776273   363A      3.791306   364A      3.853898  
     365A      3.943258   366A      3.969870   367A      4.075311  
     368A      4.103959  

    Final Occupation by Irrep:
              A 
    DOCC [    61 ]

  Energy converged.

  @DF-RHF Final Energy:  -800.26312540930610

   => Energetics <=

    Nuclear Repulsion Energy =           1249.8432356477342182
    One-Electron Energy =               -3579.0451475630425193
    Two-Electron Energy =                1528.9387865060023159
    DFT Exchange-Correlation Energy =       0.0000000000000000
    Empirical Dispersion Energy =           0.0000000000000000
    PCM Polarization Energy =               0.0000000000000000
    EFP Energy =                            0.0000000000000000
    Total Energy =                       -800.2631254093059852



Properties will be evaluated at   0.000000,   0.000000,   0.000000 Bohr

Properties computed using the SCF density matrix

  Nuclear Dipole Moment: (a.u.)
     X:     1.0512      Y:     0.4364      Z:     2.9723

  Electronic Dipole Moment: (a.u.)
     X:    -1.5339      Y:     0.0843      Z:    -1.6759

  Dipole Moment: (a.u.)
     X:    -0.4827      Y:     0.5207      Z:     1.2964     Total:     1.4781

  Dipole Moment: (Debye)
     X:    -1.2269      Y:     1.3234      Z:     3.2951     Total:     3.7569


*** tstop() called on ThinkPad-P50 at Tue Dec 12 11:32:33 2017
Module time:
	user time   =     171.16 seconds =       2.85 minutes
	system time =       1.41 seconds =       0.02 minutes
	total time  =        173 seconds =       2.88 minutes
Total time:
	user time   =     171.16 seconds =       2.85 minutes
	system time =       1.41 seconds =       0.02 minutes
	total time  =        173 seconds =       2.88 minutes
   => Loading Basis Set <=

    Name: (JUN-CC-PVDZ AUX)
    Role: JKFIT
    Keyword: DF_BASIS_SCF
    atoms 1, 4, 8, 11, 15, 20-25   entry C          line   145 file /home/junteng/Softwares/psi4conda/share/psi4/basis/jun-cc-pvdz-jkfit.gbs 
    atoms 2-3, 9-10, 26            entry O          line   257 file /home/junteng/Softwares/psi4conda/share/psi4/basis/jun-cc-pvdz-jkfit.gbs 
    atoms 5-7, 12-14, 16-19, 27-32 entry H          line    69 file /home/junteng/Softwares/psi4conda/share/psi4/basis/jun-cc-pvdz-jkfit.gbs 

   => Loading Basis Set <=

    Name: (JUN-CC-PVDZ AUX)
    Role: RIFIT
    Keyword: DF_BASIS_SAPT
    atoms 1, 4, 8, 11, 15, 20-25   entry C          line    99 file /home/junteng/Softwares/psi4conda/share/psi4/basis/jun-cc-pvdz-ri.gbs 
    atoms 2-3, 9-10, 26            entry O          line   187 file /home/junteng/Softwares/psi4conda/share/psi4/basis/jun-cc-pvdz-ri.gbs 
    atoms 5-7, 12-14, 16-19, 27-32 entry H          line    29 file /home/junteng/Softwares/psi4conda/share/psi4/basis/jun-cc-pvdz-ri.gbs 

   => Loading Basis Set <=

    Name: CC-PVTZ-MINAO
    Role: ORBITAL
    Keyword: BASIS
    atoms 1, 4, 8, 11, 15, 20-25   entry C          line   130 file /home/junteng/Softwares/psi4conda/share/psi4/basis/cc-pvtz-minao.gbs 
    atoms 2-3, 9-10, 26            entry O          line   190 file /home/junteng/Softwares/psi4conda/share/psi4/basis/cc-pvtz-minao.gbs 
    atoms 5-7, 12-14, 16-19, 27-32 entry H          line    19 file /home/junteng/Softwares/psi4conda/share/psi4/basis/cc-pvtz-minao.gbs 


*** tstart() called on ThinkPad-P50
*** at Tue Dec 12 11:32:35 2017

	 --------------------------------------------
	                    FISAPT0                  
	                  Rob Parrish                
	 --------------------------------------------

    Do F-SAPT =         Yes
    Do Plot   =          No
    Memory    =      78.580 [GD]

  ==> Localization (IBO) <==

  ==> IBO Localizer 2 <==

    MinAO Basis = CC-PVTZ-MINAO
    Use Ghosts  =       FALSE
    Use Stars   =       FALSE
    Condition   =   1.000E-07
    Power       =           4
    Convergence =   1.000E-12
    Maxiter     =        1000

    @IBO Iter:                   Metric       Gradient
    @IBO    1:   1.9941597993338678E+00   2.374261E+00
    @IBO    2:   2.2100900182842720E+00   2.645435E+00
    @IBO    3:   2.3196714164706140E+00   1.247057E+00
    @IBO    4:   2.3320380153658489E+00   1.657074E-01
    @IBO    5:   2.3321822781941917E+00   2.929580E-03
    @IBO    6:   2.3321823443708984E+00   8.816245E-05
    @IBO    7:   2.3321823444124399E+00   1.071076E-06
    @IBO    8:   2.3321823444124519E+00   4.393942E-08
    @IBO    9:   2.3321823444124523E+00   2.017199E-09
    @IBO   10:   2.3321823444124528E+00   9.489200E-11
    @IBO   11:   2.3321823444124523E+00   4.461438E-12
    @IBO   12:   2.3321823444124523E+00   2.091028E-13

    IBO Localizer 2 converged.

  ==> Partitioning <==

   => Atomic Partitioning <= 

    Monomer A:   7 atoms
    Monomer B:   7 atoms
    Monomer C:  18 atoms

   => Link Bond Identification <=

    Link Bond Selection = AUTOMATIC

    Charge Completeness = 0.800

    Total Link Bonds = 2

    --------------------------
    N     Orb Type Aind1 Aind2
    --------------------------
    1      47   BC     8    20
    2      53   AC     1    21
    --------------------------

   => Link Bond Assignment <=

    Link Bond Assignment      = C

   => Partition Summary <=

    Monomer A:  0 charge,  30 protons,  30 electrons,  15 docc
    Monomer B:  0 charge,  30 protons,  30 electrons,  15 docc
    Monomer C:  0 charge,  62 protons,  62 electrons,  31 docc

  ==> Overlap Integrals <==

  ==> Kinetic Integrals <==

  ==> Nuclear Integrals <==

    Nuclear Repulsion Tot:   1.2498432356477354E+03 [Eh]

  ==> Coulomb Integrals <==

  ==> DFJK: Density-Fitted J/K Matrices <==

    J tasked:                  Yes
    K tasked:                  Yes
    wK tasked:                  No
    OpenMP threads:              1
    Integrals threads:           1
    Memory (MB):            643730
    Algorithm:                Core
    Integral Cache:           NONE
    Schwarz Cutoff:          1E-12
    Fitting Condition:       1E-12

   => Auxiliary Basis Set <=

  Basis Set: (JUN-CC-PVDZ AUX)
    Blend: JUN-CC-PVDZ-JKFIT
    Number of shells: 576
    Number of basis function: 1632
    Number of Cartesian functions: 1856
    Spherical Harmonics?: true
    Max angular momentum: 3

  ==> Relaxed SCF Equations <==

  ==> SCF A: <==

    Maxiter =          50
    E Tol   =   1.000E-06
    D Tol   =   1.000E-08

    Max DIIS Vectors = 5

    Iter   N:                        E          dE         |D|
    Iter   1:  -2.2412698328889022E+02  -2.241E+02   1.012E-03 
    Iter   2:  -2.2414612077794465E+02  -1.914E-02   6.204E-05 DIIS
    Iter   3:  -2.2414641606436777E+02  -2.953E-04   2.430E-05 DIIS
    Iter   4:  -2.2414644723364214E+02  -3.117E-05   1.015E-05 DIIS
    Iter   5:  -2.2414645365278369E+02  -6.419E-06   1.723E-06 DIIS
    Iter   6:  -2.2414645396568025E+02  -3.129E-07   5.850E-07 DIIS
    Iter   7:  -2.2414645400642218E+02  -4.074E-08   1.680E-07 DIIS
    Iter   8:  -2.2414645400910257E+02  -2.680E-09   7.007E-08 DIIS
    Iter   9:  -2.2414645400946014E+02  -3.576E-10   2.408E-08 DIIS
    Iter  10:  -2.2414645400951773E+02  -5.758E-11   8.900E-09 DIIS

    FISAPTSCF Converged.

    Final SCF Energy:  -2.2414645400951773E+02 [Eh]

   => Occupied Orbital Energies <=

       1  -20.605700     2  -20.545398     3  -11.385525  
       4  -11.293282     5   -1.438193     6   -1.355168  
       7   -0.961468     8   -0.765506     9   -0.667552  
      10   -0.661748    11   -0.620256    12   -0.541122  
      13   -0.534617    14   -0.472043    15   -0.458636  

   => Virtual Orbital Energies <=

      16    0.030193    17    0.056528    18    0.058934  
      19    0.063868    20    0.069002    21    0.077745  
      22    0.079433    23    0.088835    24    0.092543  
      25    0.097453    26    0.105751    27    0.109976  
      28    0.115382    29    0.118555    30    0.127445  
      31    0.133756    32    0.135938    33    0.142579  
      34    0.150241    35    0.155349    36    0.156997  
      37    0.161294    38    0.166255    39    0.170525  
      40    0.181421    41    0.183910    42    0.194060  
      43    0.197657    44    0.204387    45    0.206348  
      46    0.208254    47    0.213835    48    0.222038  
      49    0.227834    50    0.231876    51    0.237867  
      52    0.242820    53    0.246223    54    0.254409  
      55    0.262242    56    0.263756    57    0.268171  
      58    0.277418    59    0.287331    60    0.289495  
      61    0.294405    62    0.307212    63    0.309059  
      64    0.312054    65    0.322224    66    0.325891  
      67    0.328372    68    0.333394    69    0.342495  
      70    0.347485    71    0.352337    72    0.363851  
      73    0.363966    74    0.369006    75    0.372475  
      76    0.386297    77    0.389806    78    0.394095  
      79    0.395235    80    0.402321    81    0.406523  
      82    0.407957    83    0.412684    84    0.420918  
      85    0.422548    86    0.426839    87    0.441550  
      88    0.448739    89    0.453792    90    0.455535  
      91    0.466566    92    0.472496    93    0.473862  
      94    0.487467    95    0.493834    96    0.502076  
      97    0.507158    98    0.514236    99    0.533759  
     100    0.539271   101    0.553609   102    0.555564  
     103    0.567231   104    0.576272   105    0.592140  
     106    0.600629   107    0.605997   108    0.615733  
     109    0.619681   110    0.623182   111    0.639286  
     112    0.649894   113    0.673798   114    0.696387  
     115    0.701800   116    0.739391   117    0.770868  
     118    0.781785   119    0.788412   120    0.801201  
     121    0.817370   122    0.825930   123    0.837510  
     124    0.858973   125    0.873764   126    0.882631  
     127    0.888717   128    0.899653   129    0.920190  
     130    0.926631   131    0.928931   132    0.934414  
     133    0.944561   134    0.950595   135    0.953058  
     136    0.963008   137    0.968197   138    0.978276  
     139    0.982427   140    0.990120   141    0.998768  
     142    1.001511   143    1.008735   144    1.016167  
     145    1.019643   146    1.028127   147    1.045692  
     148    1.056396   149    1.063922   150    1.074571  
     151    1.078908   152    1.106872   153    1.107346  
     154    1.114217   155    1.124921   156    1.128166  
     157    1.138129   158    1.151236   159    1.166249  
     160    1.181586   161    1.202958   162    1.221090  
     163    1.236764   164    1.274480   165    1.291100  
     166    1.308068   167    1.334692   168    1.343398  
     169    1.375124   170    1.381899   171    1.416016  
     172    1.437729   173    1.458133   174    1.475687  
     175    1.486285   176    1.516057   177    1.517476  
     178    1.536541   179    1.551062   180    1.559803  
     181    1.570968   182    1.591178   183    1.595629  
     184    1.597432   185    1.638268   186    1.641547  
     187    1.658181   188    1.664990   189    1.667617  
     190    1.701873   191    1.710851   192    1.716699  
     193    1.735235   194    1.743803   195    1.756989  
     196    1.769167   197    1.795224   198    1.797027  
     199    1.817099   200    1.822953   201    1.844188  
     202    1.850500   203    1.868324   204    1.884946  
     205    1.889412   206    1.900311   207    1.918024  
     208    1.927581   209    1.937477   210    1.944902  
     211    1.953953   212    1.976788   213    1.981120  
     214    1.987581   215    1.999004   216    2.009042  
     217    2.022152   218    2.027100   219    2.035994  
     220    2.048289   221    2.054542   222    2.061447  
     223    2.076776   224    2.085380   225    2.098936  
     226    2.106556   227    2.114823   228    2.120915  
     229    2.127492   230    2.133416   231    2.155820  
     232    2.168503   233    2.173885   234    2.179274  
     235    2.195731   236    2.220284   237    2.228365  
     238    2.235930   239    2.241333   240    2.271534  
     241    2.289077   242    2.298594   243    2.305802  
     244    2.314577   245    2.330933   246    2.344125  
     247    2.354496   248    2.364896   249    2.377339  
     250    2.384412   251    2.396521   252    2.410933  
     253    2.420008   254    2.430548   255    2.437893  
     256    2.443811   257    2.460764   258    2.495228  
     259    2.512225   260    2.528718   261    2.536922  
     262    2.566346   263    2.579701   264    2.596323  
     265    2.611003   266    2.648808   267    2.653134  
     268    2.668036   269    2.672026   270    2.678497  
     271    2.705769   272    2.725274   273    2.760699  
     274    2.781175   275    2.784069   276    2.799885  
     277    2.806884   278    2.839861   279    2.860398  
     280    2.863550   281    2.871240   282    2.879148  
     283    2.892203   284    2.901839   285    2.908480  
     286    2.921707   287    2.940009   288    2.951638  
     289    2.978466   290    3.002382   291    3.025799  
     292    3.040546   293    3.059273   294    3.085860  
     295    3.094300   296    3.151010   297    3.230889  
     298    3.267164   299    3.314008   300    3.338525  
     301    3.398152   302    3.425318   303    3.439613  
     304    3.534315   305    3.579946   306    3.608616  
     307    3.658165   308    3.690775   309    3.717889  
     310    3.795199   311    3.816738   312    3.875227  
     313    3.956634   314    3.964550   315    4.086867  
     316    4.144836   317    4.212611   318    4.443540  
     319    4.523872   320    4.554598   321    4.763304  
     322    4.947087   323    5.039420   324    5.064547  
     325    5.217423   326    5.326870   327    5.524214  
     328    5.590091   329    5.749333   330    5.851311  
     331    6.082700   332    6.328455   333    6.716888  
     334   13.386127   335   18.428874   336   33.433256  
     337   33.480567  

  ==> SCF B: <==

    Maxiter =          50
    E Tol   =   1.000E-06
    D Tol   =   1.000E-08

    Max DIIS Vectors = 5

    Iter   N:                        E          dE         |D|
    Iter   1:  -2.2402828046495424E+02  -2.240E+02   6.997E-04 
    Iter   2:  -2.2403811191855567E+02  -9.831E-03   4.049E-05 DIIS
    Iter   3:  -2.2403827984235176E+02  -1.679E-04   1.106E-05 DIIS
    Iter   4:  -2.2403829080886530E+02  -1.097E-05   5.115E-06 DIIS
    Iter   5:  -2.2403829276090161E+02  -1.952E-06   1.475E-06 DIIS
    Iter   6:  -2.2403829298658022E+02  -2.257E-07   5.174E-07 DIIS
    Iter   7:  -2.2403829302068181E+02  -3.410E-08   2.428E-07 DIIS
    Iter   8:  -2.2403829302741443E+02  -6.733E-09   8.046E-08 DIIS
    Iter   9:  -2.2403829302831326E+02  -8.988E-10   3.841E-08 DIIS
    Iter  10:  -2.2403829302855061E+02  -2.373E-10   1.312E-08 DIIS
    Iter  11:  -2.2403829302857571E+02  -2.510E-11   7.761E-09 DIIS

    FISAPTSCF Converged.

    Final SCF Energy:  -2.2403829302857571E+02 [Eh]

   => Occupied Orbital Energies <=

       1  -20.603924     2  -20.542639     3  -11.380636  
       4  -11.290440     5   -1.433502     6   -1.352199  
       7   -0.957096     8   -0.761655     9   -0.663342  
      10   -0.658965    11   -0.617867    12   -0.536523  
      13   -0.532185    14   -0.466718    15   -0.455536  

   => Virtual Orbital Energies <=

      16    0.028861    17    0.053080    18    0.059241  
      19    0.065054    20    0.071199    21    0.073938  
      22    0.086246    23    0.087511    24    0.091696  
      25    0.098427    26    0.100426    27    0.111468  
      28    0.115505    29    0.120432    30    0.130464  
      31    0.133740    32    0.137307    33    0.140758  
      34    0.145039    35    0.149165    36    0.159463  
      37    0.165139    38    0.169924    39    0.177132  
      40    0.184312    41    0.186460    42    0.193918  
      43    0.196637    44    0.199939    45    0.204518  
      46    0.212352    47    0.214701    48    0.220140  
      49    0.227252    50    0.235180    51    0.239204  
      52    0.243864    53    0.248505    54    0.255658  
      55    0.257661    56    0.261999    57    0.268510  
      58    0.274791    59    0.280791    60    0.287580  
      61    0.292796    62    0.300504    63    0.309392  
      64    0.315285    65    0.322689    66    0.324812  
      67    0.329405    68    0.335612    69    0.338092  
      70    0.344601    71    0.349781    72    0.354925  
      73    0.365501    74    0.370861    75    0.372682  
      76    0.380364    77    0.388111    78    0.392861  
      79    0.397533    80    0.403420    81    0.411432  
      82    0.417822    83    0.420562    84    0.426852  
      85    0.430974    86    0.435903    87    0.438406  
      88    0.446932    89    0.451060    90    0.456933  
      91    0.470480    92    0.472238    93    0.479917  
      94    0.488436    95    0.492924    96    0.502353  
      97    0.519292    98    0.520277    99    0.538533  
     100    0.553423   101    0.558305   102    0.566504  
     103    0.571102   104    0.580491   105    0.589262  
     106    0.595494   107    0.612337   108    0.619823  
     109    0.625810   110    0.634573   111    0.640195  
     112    0.646083   113    0.670581   114    0.685893  
     115    0.722036   116    0.738555   117    0.756723  
     118    0.765461   119    0.788756   120    0.793795  
     121    0.805457   122    0.828895   123    0.832393  
     124    0.855786   125    0.873852   126    0.888864  
     127    0.895207   128    0.911213   129    0.913824  
     130    0.917489   131    0.931273   132    0.934740  
     133    0.941334   134    0.947871   135    0.948848  
     136    0.958380   137    0.964931   138    0.968057  
     139    0.973123   140    0.989898   141    0.995683  
     142    0.997999   143    1.004579   144    1.006000  
     145    1.018107   146    1.021145   147    1.038638  
     148    1.044803   149    1.055522   150    1.060960  
     151    1.075735   152    1.095398   153    1.105869  
     154    1.110713   155    1.116846   156    1.123902  
     157    1.148738   158    1.158039   159    1.159057  
     160    1.180393   161    1.196276   162    1.229452  
     163    1.242678   164    1.268411   165    1.279793  
     166    1.300339   167    1.342943   168    1.360039  
     169    1.386233   170    1.397615   171    1.441346  
     172    1.457762   173    1.474049   174    1.494124  
     175    1.517173   176    1.531123   177    1.538027  
     178    1.546747   179    1.564021   180    1.572829  
     181    1.586758   182    1.603056   183    1.614783  
     184    1.615500   185    1.632725   186    1.643935  
     187    1.658742   188    1.664717   189    1.674124  
     190    1.679184   191    1.695120   192    1.705979  
     193    1.708604   194    1.733540   195    1.743806  
     196    1.768184   197    1.778605   198    1.799193  
     199    1.808712   200    1.815947   201    1.837123  
     202    1.861089   203    1.862733   204    1.880423  
     205    1.887748   206    1.902486   207    1.907513  
     208    1.911751   209    1.926973   210    1.952092  
     211    1.958122   212    1.964979   213    1.974793  
     214    1.995136   215    2.003754   216    2.014086  
     217    2.024910   218    2.027864   219    2.031792  
     220    2.040906   221    2.046404   222    2.048431  
     223    2.064701   224    2.092242   225    2.098412  
     226    2.108942   227    2.117682   228    2.126489  
     229    2.142252   230    2.147369   231    2.152204  
     232    2.162941   233    2.177166   234    2.190086  
     235    2.201148   236    2.203103   237    2.225844  
     238    2.232520   239    2.246585   240    2.259778  
     241    2.268638   242    2.283572   243    2.314856  
     244    2.318324   245    2.338800   246    2.341486  
     247    2.363672   248    2.368485   249    2.383425  
     250    2.389404   251    2.400541   252    2.404958  
     253    2.416319   254    2.428671   255    2.439266  
     256    2.449516   257    2.465576   258    2.484235  
     259    2.493146   260    2.511694   261    2.521397  
     262    2.568307   263    2.573380   264    2.582085  
     265    2.619450   266    2.625071   267    2.653669  
     268    2.663892   269    2.683193   270    2.693652  
     271    2.730474   272    2.736486   273    2.750154  
     274    2.769688   275    2.788191   276    2.807469  
     277    2.813722   278    2.836392   279    2.845151  
     280    2.860311   281    2.865105   282    2.878516  
     283    2.881803   284    2.900708   285    2.911167  
     286    2.913041   287    2.942487   288    2.949467  
     289    2.980787   290    3.000554   291    3.013445  
     292    3.023822   293    3.054914   294    3.069626  
     295    3.115364   296    3.130625   297    3.200499  
     298    3.270170   299    3.321209   300    3.351111  
     301    3.402207   302    3.444742   303    3.452640  
     304    3.534193   305    3.579227   306    3.603927  
     307    3.640513   308    3.694710   309    3.717587  
     310    3.750004   311    3.794768   312    3.877858  
     313    3.952266   314    4.008846   315    4.096227  
     316    4.142164   317    4.198424   318    4.446033  
     319    4.510180   320    4.533288   321    4.750187  
     322    4.946681   323    5.045480   324    5.067758  
     325    5.207495   326    5.326315   327    5.514248  
     328    5.578564   329    5.681431   330    5.830635  
     331    6.215414   332    6.335171   333    6.690383  
     334   13.374402   335   18.429016   336   33.414651  
     337   33.470099  

  ==> Frozen Core <==


    ------------------
    Range      A     B
    ------------------
    nbf      368   368
    nmo      337   337
    nocc      15    15
    nvir     322   322
    nfocc      4     4
    naocc     11    11
    navir    322   322
    nfvir      0     0
    ------------------

  ==> Unification <==

  ==> dHF <==

    E ABC(HF) =  -8.0026312540930610E+02 [Eh]
    E AC(0)   =  -5.7223951929977227E+02 [Eh]
    E BC(0)   =  -5.7223204028791815E+02 [Eh]
    E A(0)    =  -2.1265838213959901E+02 [Eh]
    E B(0)    =  -2.1266727900503253E+02 [Eh]
    E AC(HF)  =  -5.7222004857914510E+02 [Eh]
    E BC(HF)  =  -5.7222202772429659E+02 [Eh]
    E AB(HF)  =  -4.2529166168825509E+02 [Eh]
    E A(HF)   =  -2.1263026272635452E+02 [Eh]
    E B(HF)   =  -2.1264969290403127E+02 [Eh]
    E C       =  -3.4419065695199333E+02 [Eh]
    E HF      =   1.7777226390990108E-02 [Eh]

  ==> Electrostatics <==

    Elst10,r            =     0.010822271448 [Eh]

  ==> Exchange <==

    Exch10(S^2)         =     0.009306418082 [Eh]
    Exch10              =     0.009346172603 [Eh]

  ==> Induction <==

    Ind20,u (A<-B)      =    -0.002225637623 [Eh]
    Ind20,u (B<-A)      =    -0.001452402568 [Eh]
    Ind20,u             =    -0.003678040190 [Eh]
    Exch-Ind20,u (A<-B) =     0.001094972997 [Eh]
    Exch-Ind20,u (B<-A) =     0.001032368647 [Eh]
    Exch-Ind20,u        =     0.002127341644 [Eh]

  ==> CPHF Iterations <==

    Maxiter     =          50
    Convergence =   1.000E-08

    -----------------------------------------
    Iter   Monomer A    Monomer B    Time [s]
    -----------------------------------------
    1      2.186E-01    1.503E-01          25
    2      8.320E-02    5.279E-02          45
    3      2.099E-02    1.186E-02          63
    4      6.966E-03    5.283E-03          85
    5      1.979E-03    1.826E-03         101
    6      6.936E-04    8.289E-04         117
    7      1.810E-04    2.537E-04         134
    8      5.939E-05    1.070E-04         155
    9      1.756E-05    2.885E-05         184
    10     7.617E-06    7.270E-06         212
    11     2.048E-06    2.204E-06         239
    12     3.543E-07    6.876E-07         262
    13     9.881E-08    1.130E-07         284
    14     2.519E-08    2.640E-08         311
    15     6.569E-09*   8.535E-09*        344
    -----------------------------------------

    Ind20,r (A<-B)      =    -0.002629881589 [Eh]
    Ind20,r (B<-A)      =    -0.001666200517 [Eh]
    Ind20,r             =    -0.004296082106 [Eh]
    Exch-Ind20,r (A<-B) =     0.001406042041 [Eh]
    Exch-Ind20,r (B<-A) =     0.001225093053 [Eh]
    Exch-Ind20,r        =     0.002631135094 [Eh]

  ==> F-SAPT Localization (IBO) <==

  Local Orbitals for Monomer A:

  ==> IBO Localizer 2 <==

    MinAO Basis = CC-PVTZ-MINAO
    Use Ghosts  =       FALSE
    Use Stars   =       FALSE
    Condition   =   1.000E-07
    Power       =           4
    Convergence =   1.000E-12
    Maxiter     =        1000

    @IBO Iter:                   Metric       Gradient
    @IBO    1:   1.4818918793096210E+00   1.669844E+00
    @IBO    2:   1.6777386618832997E+00   9.291479E-01
    @IBO    3:   1.7087864585344463E+00   3.081259E-01
    @IBO    4:   1.7099577820104164E+00   2.434838E-03
    @IBO    5:   1.7099579499448974E+00   8.423400E-05
    @IBO    6:   1.7099579500328586E+00   1.384676E-06
    @IBO    7:   1.7099579500328972E+00   4.576553E-08
    @IBO    8:   1.7099579500328972E+00   1.174560E-09
    @IBO    9:   1.7099579500328970E+00   3.543590E-11
    @IBO   10:   1.7099579500328970E+00   1.263067E-12
    @IBO   11:   1.7099579500328970E+00   4.981279E-14

    IBO Localizer 2 converged.

  Local Orbitals for Monomer B:

  ==> IBO Localizer 2 <==

    MinAO Basis = CC-PVTZ-MINAO
    Use Ghosts  =       FALSE
    Use Stars   =       FALSE
    Condition   =   1.000E-07
    Power       =           4
    Convergence =   1.000E-12
    Maxiter     =        1000

    @IBO Iter:                   Metric       Gradient
    @IBO    1:   1.4824299146531994E+00   1.679209E+00
    @IBO    2:   1.6777629358861368E+00   9.343117E-01
    @IBO    3:   1.7097635902148187E+00   3.235446E-01
    @IBO    4:   1.7110521260122442E+00   2.893258E-03
    @IBO    5:   1.7110524083898102E+00   1.247264E-04
    @IBO    6:   1.7110524085856400E+00   2.404414E-06
    @IBO    7:   1.7110524085857526E+00   7.873587E-08
    @IBO    8:   1.7110524085857526E+00   2.467383E-09
    @IBO    9:   1.7110524085857526E+00   9.205147E-11
    @IBO   10:   1.7110524085857526E+00   3.738528E-12
    @IBO   11:   1.7110524085857526E+00   1.562932E-13

    IBO Localizer 2 converged.

  ==> F-SAPT Electrostatics <==

  ==> DFERI: Density Fitted 3-Index Tensors <==

    Schwarz cutoff =   0.000E+00
    J cutoff       =   1.000E-12
    Mem (GB)       =         628

   => Auxiliary Basis <=

  Basis Set: (JUN-CC-PVDZ AUX)
    Blend: JUN-CC-PVDZ-JKFIT
    Number of shells: 576
    Number of basis function: 1632
    Number of Cartesian functions: 1856
    Spherical Harmonics?: true
    Max angular momentum: 3

    Elst10,r            =     0.010822270710 [Eh]

  ==> F-SAPT Exchange <==

  ==> DFERI: Density Fitted 3-Index Tensors <==

    Schwarz cutoff =   0.000E+00
    J cutoff       =   1.000E-12
    Mem (GB)       =         628

   => Auxiliary Basis <=

  Basis Set: (JUN-CC-PVDZ AUX)
    Blend: JUN-CC-PVDZ-JKFIT
    Number of shells: 576
    Number of basis function: 1632
    Number of Cartesian functions: 1856
    Spherical Harmonics?: true
    Max angular momentum: 3

    Exch10(S^2)         =     0.009306418082 [Eh]

    Scaling F-SAPT Exch10(S^2) by   1.004E+00 to match Exch10

  ==> F-SAPT Induction <==

  ==> DFERI: Density Fitted 3-Index Tensors <==

    Schwarz cutoff =   0.000E+00
    J cutoff       =   1.000E-12
    Mem (GB)       =         628

   => Auxiliary Basis <=

  Basis Set: (JUN-CC-PVDZ AUX)
    Blend: JUN-CC-PVDZ-JKFIT
    Number of shells: 576
    Number of basis function: 1632
    Number of Cartesian functions: 1856
    Spherical Harmonics?: true
    Max angular momentum: 3

    Ind20,u (A<-B)      =    -0.002225637623 [Eh]
    Ind20,u (B<-A)      =    -0.001452402568 [Eh]
    Ind20,u             =    -0.003678040191 [Eh]
    Exch-Ind20,u (A<-B) =     0.001094972997 [Eh]
    Exch-Ind20,u (B<-A) =     0.001032368647 [Eh]
    Exch-Ind20,u        =     0.002127341644 [Eh]

    Scaling for delta HF        =   1.436E+00
    Scaling for response (A<-B) =   1.082E+00
    Scaling for response (B<-A) =   1.050E+00
    Scaling for total (A<-B)    =   1.555E+00
    Scaling for total (B<-A)    =   1.508E+00

  ==> F-SAPT Dispersion <==

  ==> DFERI: Density Fitted 3-Index Tensors <==

    Schwarz cutoff =   0.000E+00
    J cutoff       =   1.000E-12
    Mem (GB)       =         628

   => Auxiliary Basis <=

  Basis Set: (JUN-CC-PVDZ AUX)
    Blend: JUN-CC-PVDZ-RI
    Number of shells: 432
    Number of basis function: 1264
    Number of Cartesian functions: 1456
    Spherical Harmonics?: true
    Max angular momentum: 3

    Disp20              =    -0.004957512527 [Eh]
    Exch-Disp20         =     0.000668913220 [Eh]

  ==> F-SAPT Output <==

    F-SAPT Data Filepath = fsapt/

  ==> Results <==


    SAPT Results  
  --------------------------------------------------------------------------------------------------------
    Electrostatics                 10.82227145 [mEh]       6.79107815 [kcal/mol]      28.41387369 [kJ/mol]
      Elst10,r                     10.82227145 [mEh]       6.79107815 [kcal/mol]      28.41387369 [kJ/mol]

    Exchange                        9.34617260 [mEh]       5.86481210 [kcal/mol]      24.53837617 [kJ/mol]
      Exch10                        9.34617260 [mEh]       5.86481210 [kcal/mol]      24.53837617 [kJ/mol]
      Exch10(S^2)                   9.30641808 [mEh]       5.83986576 [kcal/mol]      24.43400067 [kJ/mol]

    Induction                      -2.39121766 [mEh]      -1.50051180 [kcal/mol]      -6.27814197 [kJ/mol]
      Ind20,r                      -4.29608211 [mEh]      -2.69583233 [kcal/mol]     -11.27936357 [kJ/mol]
      Exch-Ind20,r                  2.63113509 [mEh]       1.65106227 [kcal/mol]       6.90804519 [kJ/mol]
      delta HF,r (2)               -0.72627065 [mEh]      -0.45574173 [kcal/mol]      -1.90682359 [kJ/mol]
      Induction (A<-B)             -1.75769362 [mEh]      -1.10296944 [kcal/mol]      -4.61482460 [kJ/mol]
      Induction (B<-A)             -0.63352404 [mEh]      -0.39754235 [kcal/mol]      -1.66331737 [kJ/mol]

    Dispersion                     -4.28859931 [mEh]      -2.69113681 [kcal/mol]     -11.25971748 [kJ/mol]
      Disp20                       -4.95751253 [mEh]      -3.11088621 [kcal/mol]     -13.01594914 [kJ/mol]
      Exch-Disp20                   0.66891322 [mEh]       0.41974940 [kcal/mol]       1.75623166 [kJ/mol]

  Total HF                         17.77722639 [mEh]      11.15537844 [kcal/mol]      46.67410789 [kJ/mol]
  Total SAPT0                      13.48862708 [mEh]       8.46424164 [kcal/mol]      35.41439041 [kJ/mol]

  --------------------------------------------------------------------------------------------------------
    Han Solo: This is *not* gonna work.
    Luke Skywalker: Why didn't you say so before?
    Han Solo: I *did* say so before.

*** tstop() called on ThinkPad-P50 at Tue Dec 12 11:49:16 2017
Module time:
	user time   =     989.49 seconds =      16.49 minutes
	system time =       9.05 seconds =       0.15 minutes
	total time  =       1001 seconds =      16.68 minutes
Total time:
	user time   =    1162.58 seconds =      19.38 minutes
	system time =      10.46 seconds =       0.17 minutes
	total time  =       1176 seconds =      19.60 minutes

*** Psi4 exiting successfully. Buy a developer a beer!
