
    -----------------------------------------------------------------------
          Psi4: An Open-Source Ab Initio Electronic Structure Package
                               Psi4 1.1 release

                         Git: Rev {HEAD} add49b9 


    R. M. Parrish, L. A. Burns, D. G. A. Smith, A. C. Simmonett,
    A. E. DePrince III, E. G. Hohenstein, U. Bozkaya, A. Yu. Sokolov,
    R. Di Remigio, R. M. Richard, J. F. Gonthier, A. M. James,
    H. R. McAlexander, A. Kumar, M. Saitow, X. Wang, B. P. Pritchard,
    P. Verma, H. F. Schaefer III, K. Patkowski, R. A. King, E. F. Valeev,
    F. A. Evangelista, J. M. Turney, T. D. Crawford, and C. D. Sherrill,
    J. Chem. Theory Comput. in press (2017).
    (doi: 10.1021/acs.jctc.7b00174)

    -----------------------------------------------------------------------


    Psi4 started on: Wednesday, 18 October 2017 07:19PM

    Process ID:  37942
    PSIDATADIR: /opt/software/psi4/psi4conda/share/psi4
    Memory:     500.0 MiB
    Threads:    48
    
  ==> Input File <==

--------------------------------------------------------------------------
memory 750000 mb

molecule mol {
0 1
C          2.58623       -1.59219       -0.70839
H          3.50306       -1.31747       -1.23521
H          2.82412       -2.31989        0.06819
H          1.90521       -2.06477       -1.41467
--
0 1
C         -0.23982       -1.65055        0.37426
O          0.18447       -2.78016        0.33292
O         -1.54412       -1.35634        0.24292
C         -2.42732       -2.46165       -0.02327
H         -2.39236       -3.18239        0.79494
H         -2.14505       -2.95474       -0.95389
H         -3.41910       -2.02363       -0.10805
--
0 1
H          0.87129        2.49330       -0.95575
C         -1.27734        1.15395       -0.23637
O         -1.43988        1.08959       -1.42788
O         -2.26709        1.45906        0.63569
C         -3.57921        1.59359        0.06621
H         -3.87593        0.66533       -0.42531
H         -3.60269        2.40478       -0.66340
H         -4.24017        1.81189        0.90247
C          0.04606        1.01189        0.49572
C          0.62294       -0.43870        0.69252
C          1.18974        1.66387       -0.32917
C          2.39451        1.93498        0.59484
C          2.95966        0.49692        0.76560
C          1.98303       -0.34121       -0.10961
O          1.64458        0.58919       -1.15161
H         -0.07456        1.49288        1.46592
H          0.85373       -0.58053        1.75238
H          3.11218        2.58871        0.09688
H          2.10465        2.40682        1.53594
H          3.96935        0.41718        0.35924
H          2.98798        0.15733        1.80281

symmetry c1
no_reorient
no_com
}

set {
basis jun-cc-pvdz
scf_type df
guess sad
freeze_core true
}

energy('fisapt0')
--------------------------------------------------------------------------

  Memory set to 698.492 GiB by Python driver.

*** tstart() called on vega04.cac.cornell.edu
*** at Wed Oct 18 19:19:29 2017

   => Loading Basis Set <=

    Name: JUN-CC-PVDZ
    Role: ORBITAL
    Keyword: BASIS
    atoms 1, 5, 8, 13, 16, 20-25  entry C          line   157 file /opt/software/psi4/psi4conda/share/psi4/basis/jun-cc-pvdz.gbs 
    atoms 2-4, 9-12, 17-19, 27-32 entry H          line    35 file /opt/software/psi4/psi4conda/share/psi4/basis/jun-cc-pvdz.gbs 
    atoms 6-7, 14-15, 26          entry O          line   225 file /opt/software/psi4/psi4conda/share/psi4/basis/jun-cc-pvdz.gbs 


         ---------------------------------------------------------
                                   SCF
            by Justin Turney, Rob Parrish, and Andy Simmonett
                              RHF Reference
                       48 Threads, 715255 MiB Core
         ---------------------------------------------------------

  ==> Geometry <==

    Molecular point group: c1
    Full point group: C1

    Geometry (in Angstrom), charge = 0, multiplicity = 1:

       Center              X                  Y                   Z               Mass       
    ------------   -----------------  -----------------  -----------------  -----------------
           C          2.586230000000    -1.592190000000    -0.708390000000    12.000000000000
           H          3.503060000000    -1.317470000000    -1.235210000000     1.007825032070
           H          2.824120000000    -2.319890000000     0.068190000000     1.007825032070
           H          1.905210000000    -2.064770000000    -1.414670000000     1.007825032070
           C         -0.239820000000    -1.650550000000     0.374260000000    12.000000000000
           O          0.184470000000    -2.780160000000     0.332920000000    15.994914619560
           O         -1.544120000000    -1.356340000000     0.242920000000    15.994914619560
           C         -2.427320000000    -2.461650000000    -0.023270000000    12.000000000000
           H         -2.392360000000    -3.182390000000     0.794940000000     1.007825032070
           H         -2.145050000000    -2.954740000000    -0.953890000000     1.007825032070
           H         -3.419100000000    -2.023630000000    -0.108050000000     1.007825032070
           H          0.871290000000     2.493300000000    -0.955750000000     1.007825032070
           C         -1.277340000000     1.153950000000    -0.236370000000    12.000000000000
           O         -1.439880000000     1.089590000000    -1.427880000000    15.994914619560
           O         -2.267090000000     1.459060000000     0.635690000000    15.994914619560
           C         -3.579210000000     1.593590000000     0.066210000000    12.000000000000
           H         -3.875930000000     0.665330000000    -0.425310000000     1.007825032070
           H         -3.602690000000     2.404780000000    -0.663400000000     1.007825032070
           H         -4.240170000000     1.811890000000     0.902470000000     1.007825032070
           C          0.046060000000     1.011890000000     0.495720000000    12.000000000000
           C          0.622940000000    -0.438700000000     0.692520000000    12.000000000000
           C          1.189740000000     1.663870000000    -0.329170000000    12.000000000000
           C          2.394510000000     1.934980000000     0.594840000000    12.000000000000
           C          2.959660000000     0.496920000000     0.765600000000    12.000000000000
           C          1.983030000000    -0.341210000000    -0.109610000000    12.000000000000
           O          1.644580000000     0.589190000000    -1.151610000000    15.994914619560
           H         -0.074560000000     1.492880000000     1.465920000000     1.007825032070
           H          0.853730000000    -0.580530000000     1.752380000000     1.007825032070
           H          3.112180000000     2.588710000000     0.096880000000     1.007825032070
           H          2.104650000000     2.406820000000     1.535940000000     1.007825032070
           H          3.969350000000     0.417180000000     0.359240000000     1.007825032070
           H          2.987980000000     0.157330000000     1.802810000000     1.007825032070

  Running in c1 symmetry.

  Rotational constants: A =      0.02523  B =      0.01670  C =      0.01158 [cm^-1]
  Rotational constants: A =    756.38032  B =    500.69011  C =    347.21125 [MHz]
  Nuclear repulsion = 1249.843235647733991

  Charge       = 0
  Multiplicity = 1
  Electrons    = 122
  Nalpha       = 61
  Nbeta        = 61

  ==> Algorithm <==

  SCF Algorithm Type is DF.
  DIIS enabled.
  MOM disabled.
  Fractional occupation disabled.
  Guess Type is SAD.
  Energy threshold   = 1.00e-08
  Density threshold  = 1.00e-08
  Integral threshold = 0.00e+00

  ==> Primary Basis <==

  Basis Set: JUN-CC-PVDZ
    Blend: JUN-CC-PVDZ
    Number of shells: 176
    Number of basis function: 368
    Number of Cartesian functions: 384
    Spherical Harmonics?: true
    Max angular momentum: 2

   => Loading Basis Set <=

    Name: (JUN-CC-PVDZ AUX)
    Role: JKFIT
    Keyword: DF_BASIS_SCF
    atoms 1, 5, 8, 13, 16, 20-25  entry C          line   145 file /opt/software/psi4/psi4conda/share/psi4/basis/jun-cc-pvdz-jkfit.gbs 
    atoms 2-4, 9-12, 17-19, 27-32 entry H          line    69 file /opt/software/psi4/psi4conda/share/psi4/basis/jun-cc-pvdz-jkfit.gbs 
    atoms 6-7, 14-15, 26          entry O          line   257 file /opt/software/psi4/psi4conda/share/psi4/basis/jun-cc-pvdz-jkfit.gbs 

  ==> Pre-Iterations <==

   -------------------------------------------------------
    Irrep   Nso     Nmo     Nalpha   Nbeta   Ndocc  Nsocc
   -------------------------------------------------------
     A        368     368       0       0       0       0
   -------------------------------------------------------
    Total     368     368      61      61      61       0
   -------------------------------------------------------

  ==> Integral Setup <==

  ==> DFJK: Density-Fitted J/K Matrices <==

    J tasked:                  Yes
    K tasked:                  Yes
    wK tasked:                  No
    OpenMP threads:             48
    Integrals threads:          48
    Memory (MB):            536441
    Algorithm:                Core
    Integral Cache:           NONE
    Schwarz Cutoff:          1E-12
    Fitting Condition:       1E-12

   => Auxiliary Basis Set <=

  Basis Set: (JUN-CC-PVDZ AUX)
    Blend: JUN-CC-PVDZ-JKFIT
    Number of shells: 576
    Number of basis function: 1632
    Number of Cartesian functions: 1856
    Spherical Harmonics?: true
    Max angular momentum: 3

  Minimum eigenvalue in the overlap matrix is 9.1137564228E-06.
  Using Symmetric Orthogonalization.

  SCF Guess: Superposition of Atomic Densities via on-the-fly atomic UHF.

  ==> Iterations <==

                           Total Energy        Delta E     RMS |[F,P]|

   @DF-RHF iter   0:  -807.36717476447257   -8.07367e+02   1.05331e-01 
   @DF-RHF iter   1:  -799.70504381901333    7.66213e+00   1.64892e-02 
   @DF-RHF iter   2:  -800.08958970804497   -3.84546e-01   8.64543e-03 DIIS
   @DF-RHF iter   3:  -800.24309262767076   -1.53503e-01   2.69813e-03 DIIS
   @DF-RHF iter   4:  -800.26050253136782   -1.74099e-02   9.57863e-04 DIIS
   @DF-RHF iter   5:  -800.26261030403475   -2.10777e-03   3.26088e-04 DIIS
   @DF-RHF iter   6:  -800.26299715097775   -3.86847e-04   7.05068e-05 DIIS
   @DF-RHF iter   7:  -800.26310056826992   -1.03417e-04   4.50620e-05 DIIS
   @DF-RHF iter   8:  -800.26312197615459   -2.14079e-05   1.62996e-05 DIIS
   @DF-RHF iter   9:  -800.26312503237693   -3.05622e-06   8.55004e-06 DIIS
   @DF-RHF iter  10:  -800.26312536078308   -3.28406e-07   2.94563e-06 DIIS
   @DF-RHF iter  11:  -800.26312540813228   -4.73492e-08   1.18399e-06 DIIS
   @DF-RHF iter  12:  -800.26312541385801   -5.72572e-09   4.59813e-07 DIIS
   @DF-RHF iter  13:  -800.26312541462994   -7.71934e-10   1.67657e-07 DIIS
   @DF-RHF iter  14:  -800.26312541473351   -1.03569e-10   5.37275e-08 DIIS
   @DF-RHF iter  15:  -800.26312541474601   -1.25056e-11   2.41951e-08 DIIS
   @DF-RHF iter  16:  -800.26312541474692   -9.09495e-13   7.89671e-09 DIIS

  ==> Post-Iterations <==

    Orbital Energies (a.u.)
    -----------------------

    Doubly Occupied:                                                      

       1A    -20.616783     2A    -20.606273     3A    -20.563120  
       4A    -20.557141     5A    -20.547587     6A    -11.397320  
       7A    -11.386869     8A    -11.302343     9A    -11.300047  
      10A    -11.293707    11A    -11.293584    12A    -11.273459  
      13A    -11.263644    14A    -11.239209    15A    -11.237758  
      16A    -11.218861    17A     -1.474841    18A     -1.459971  
      19A     -1.402950    20A     -1.370371    21A     -1.360107  
      22A     -1.112348    23A     -1.059317    24A     -1.048542  
      25A     -0.994566    26A     -0.971745    27A     -0.933127  
      28A     -0.884060    29A     -0.817140    30A     -0.801463  
      31A     -0.771202    32A     -0.762116    33A     -0.720919  
      34A     -0.700384    35A     -0.688628    36A     -0.679476  
      37A     -0.671625    38A     -0.662393    39A     -0.659134  
      40A     -0.656290    41A     -0.627571    42A     -0.593614  
      43A     -0.584119    44A     -0.580614    45A     -0.566756  
      46A     -0.564305    47A     -0.548466    48A     -0.529811  
      49A     -0.529256    50A     -0.516533    51A     -0.514414  
      52A     -0.507576    53A     -0.498729    54A     -0.492556  
      55A     -0.474741    56A     -0.469682    57A     -0.468239  
      58A     -0.453815    59A     -0.448472    60A     -0.429939  
      61A     -0.424158  

    Virtual:                                                              

      62A      0.049375    63A      0.053731    64A      0.059547  
      65A      0.068451    66A      0.070689    67A      0.076522  
      68A      0.086756    69A      0.092383    70A      0.095803  
      71A      0.104352    72A      0.110755    73A      0.113727  
      74A      0.117164    75A      0.122405    76A      0.132219  
      77A      0.137262    78A      0.141160    79A      0.144937  
      80A      0.152748    81A      0.157093    82A      0.160944  
      83A      0.165843    84A      0.174342    85A      0.176370  
      86A      0.178663    87A      0.193103    88A      0.194991  
      89A      0.197980    90A      0.202381    91A      0.208037  
      92A      0.210693    93A      0.217018    94A      0.220688  
      95A      0.226256    96A      0.230394    97A      0.237285  
      98A      0.243408    99A      0.251706   100A      0.252799  
     101A      0.257843   102A      0.263108   103A      0.267902  
     104A      0.270771   105A      0.277295   106A      0.287564  
     107A      0.296991   108A      0.304030   109A      0.309365  
     110A      0.314985   111A      0.318466   112A      0.328740  
     113A      0.336302   114A      0.341967   115A      0.344998  
     116A      0.355079   117A      0.361064   118A      0.363378  
     119A      0.367409   120A      0.371823   121A      0.373081  
     122A      0.377452   123A      0.383091   124A      0.391239  
     125A      0.394120   126A      0.397043   127A      0.404274  
     128A      0.408466   129A      0.409714   130A      0.419730  
     131A      0.425197   132A      0.430600   133A      0.430998  
     134A      0.436205   135A      0.442786   136A      0.448566  
     137A      0.464951   138A      0.466831   139A      0.470520  
     140A      0.474167   141A      0.476728   142A      0.488218  
     143A      0.499018   144A      0.500773   145A      0.512752  
     146A      0.516715   147A      0.531260   148A      0.539427  
     149A      0.543322   150A      0.553216   151A      0.565470  
     152A      0.574343   153A      0.584230   154A      0.597265  
     155A      0.610150   156A      0.625277   157A      0.637198  
     158A      0.658809   159A      0.707383   160A      0.721372  
     161A      0.752864   162A      0.765210   163A      0.783205  
     164A      0.789396   165A      0.791074   166A      0.809499  
     167A      0.818319   168A      0.826216   169A      0.842739  
     170A      0.861518   171A      0.877593   172A      0.881044  
     173A      0.886978   174A      0.896037   175A      0.908577  
     176A      0.913969   177A      0.915472   178A      0.921049  
     179A      0.926928   180A      0.933552   181A      0.940577  
     182A      0.944833   183A      0.949582   184A      0.954072  
     185A      0.959757   186A      0.963158   187A      0.975168  
     188A      0.983763   189A      0.987525   190A      0.997551  
     191A      1.000049   192A      1.002758   193A      1.009350  
     194A      1.024845   195A      1.035719   196A      1.051499  
     197A      1.057505   198A      1.069191   199A      1.073029  
     200A      1.082643   201A      1.088313   202A      1.108419  
     203A      1.110432   204A      1.116031   205A      1.137349  
     206A      1.149199   207A      1.180725   208A      1.191885  
     209A      1.207610   210A      1.223657   211A      1.239123  
     212A      1.247423   213A      1.280303   214A      1.306921  
     215A      1.314020   216A      1.339707   217A      1.345004  
     218A      1.356425   219A      1.411808   220A      1.428658  
     221A      1.449050   222A      1.472023   223A      1.474356  
     224A      1.493684   225A      1.501770   226A      1.512192  
     227A      1.525416   228A      1.547857   229A      1.555391  
     230A      1.560335   231A      1.573890   232A      1.580860  
     233A      1.598490   234A      1.609534   235A      1.623083  
     236A      1.631586   237A      1.639552   238A      1.649547  
     239A      1.652799   240A      1.662409   241A      1.673635  
     242A      1.678092   243A      1.690438   244A      1.702131  
     245A      1.713503   246A      1.721627   247A      1.737034  
     248A      1.750124   249A      1.760289   250A      1.771703  
     251A      1.797069   252A      1.819786   253A      1.836130  
     254A      1.849207   255A      1.864355   256A      1.871740  
     257A      1.877952   258A      1.890146   259A      1.904449  
     260A      1.918185   261A      1.921674   262A      1.938633  
     263A      1.942086   264A      1.958314   265A      1.966969  
     266A      1.975200   267A      1.979862   268A      1.987180  
     269A      1.998353   270A      2.010948   271A      2.018918  
     272A      2.023964   273A      2.031605   274A      2.044495  
     275A      2.052642   276A      2.054550   277A      2.061592  
     278A      2.070516   279A      2.080870   280A      2.090379  
     281A      2.109564   282A      2.131598   283A      2.132333  
     284A      2.146706   285A      2.149803   286A      2.167621  
     287A      2.181663   288A      2.187982   289A      2.193395  
     290A      2.208400   291A      2.221045   292A      2.245194  
     293A      2.259403   294A      2.281317   295A      2.287374  
     296A      2.300995   297A      2.327218   298A      2.333278  
     299A      2.357902   300A      2.361285   301A      2.384508  
     302A      2.389877   303A      2.392917   304A      2.405747  
     305A      2.417830   306A      2.420148   307A      2.426558  
     308A      2.446222   309A      2.450410   310A      2.461833  
     311A      2.493389   312A      2.503699   313A      2.527569  
     314A      2.556329   315A      2.570195   316A      2.601801  
     317A      2.624696   318A      2.656373   319A      2.681564  
     320A      2.692615   321A      2.711957   322A      2.759003  
     323A      2.767557   324A      2.771293   325A      2.779705  
     326A      2.789238   327A      2.818661   328A      2.830178  
     329A      2.846163   330A      2.856953   331A      2.869337  
     332A      2.877556   333A      2.888890   334A      2.897356  
     335A      2.906800   336A      2.925267   337A      2.944521  
     338A      2.968068   339A      2.989197   340A      3.004979  
     341A      3.015087   342A      3.051349   343A      3.078465  
     344A      3.123256   345A      3.139822   346A      3.179671  
     347A      3.246974   348A      3.271320   349A      3.300363  
     350A      3.319452   351A      3.365512   352A      3.388640  
     353A      3.408012   354A      3.430668   355A      3.478124  
     356A      3.527897   357A      3.565360   358A      3.581717  
     359A      3.665921   360A      3.697631   361A      3.706586  
     362A      3.776273   363A      3.791306   364A      3.853898  
     365A      3.943259   366A      3.969870   367A      4.075312  
     368A      4.103959  

    Final Occupation by Irrep:
              A 
    DOCC [    61 ]

  Energy converged.

  @DF-RHF Final Energy:  -800.26312541474692

   => Energetics <=

    Nuclear Repulsion Energy =           1249.8432356477339908
    One-Electron Energy =               -3579.0451453634636891
    Two-Electron Energy =                1528.9387843009831158
    DFT Exchange-Correlation Energy =       0.0000000000000000
    Empirical Dispersion Energy =           0.0000000000000000
    PCM Polarization Energy =               0.0000000000000000
    EFP Energy =                            0.0000000000000000
    Total Energy =                       -800.2631254147468098



Properties will be evaluated at   0.000000,   0.000000,   0.000000 Bohr

Properties computed using the SCF density matrix

  Nuclear Dipole Moment: (a.u.)
     X:     1.0512      Y:     0.4364      Z:     2.9723

  Electronic Dipole Moment: (a.u.)
     X:    -1.5339      Y:     0.0843      Z:    -1.6759

  Dipole Moment: (a.u.)
     X:    -0.4827      Y:     0.5207      Z:     1.2964     Total:     1.4781

  Dipole Moment: (Debye)
     X:    -1.2269      Y:     1.3234      Z:     3.2951     Total:     3.7569


*** tstop() called on vega04.cac.cornell.edu at Wed Oct 18 19:20:06 2017
Module time:
	user time   =     709.56 seconds =      11.83 minutes
	system time =       5.39 seconds =       0.09 minutes
	total time  =         37 seconds =       0.62 minutes
Total time:
	user time   =     709.56 seconds =      11.83 minutes
	system time =       5.39 seconds =       0.09 minutes
	total time  =         37 seconds =       0.62 minutes
   => Loading Basis Set <=

    Name: (JUN-CC-PVDZ AUX)
    Role: JKFIT
    Keyword: DF_BASIS_SCF
    atoms 1, 5, 8, 13, 16, 20-25  entry C          line   145 file /opt/software/psi4/psi4conda/share/psi4/basis/jun-cc-pvdz-jkfit.gbs 
    atoms 2-4, 9-12, 17-19, 27-32 entry H          line    69 file /opt/software/psi4/psi4conda/share/psi4/basis/jun-cc-pvdz-jkfit.gbs 
    atoms 6-7, 14-15, 26          entry O          line   257 file /opt/software/psi4/psi4conda/share/psi4/basis/jun-cc-pvdz-jkfit.gbs 

   => Loading Basis Set <=

    Name: (JUN-CC-PVDZ AUX)
    Role: RIFIT
    Keyword: DF_BASIS_SAPT
    atoms 1, 5, 8, 13, 16, 20-25  entry C          line    99 file /opt/software/psi4/psi4conda/share/psi4/basis/jun-cc-pvdz-ri.gbs 
    atoms 2-4, 9-12, 17-19, 27-32 entry H          line    29 file /opt/software/psi4/psi4conda/share/psi4/basis/jun-cc-pvdz-ri.gbs 
    atoms 6-7, 14-15, 26          entry O          line   187 file /opt/software/psi4/psi4conda/share/psi4/basis/jun-cc-pvdz-ri.gbs 

   => Loading Basis Set <=

    Name: CC-PVTZ-MINAO
    Role: ORBITAL
    Keyword: BASIS
    atoms 1, 5, 8, 13, 16, 20-25  entry C          line   130 file /opt/software/psi4/psi4conda/share/psi4/basis/cc-pvtz-minao.gbs 
    atoms 2-4, 9-12, 17-19, 27-32 entry H          line    19 file /opt/software/psi4/psi4conda/share/psi4/basis/cc-pvtz-minao.gbs 
    atoms 6-7, 14-15, 26          entry O          line   190 file /opt/software/psi4/psi4conda/share/psi4/basis/cc-pvtz-minao.gbs 


*** tstart() called on vega04.cac.cornell.edu
*** at Wed Oct 18 19:20:07 2017

	 --------------------------------------------
	                    FISAPT0                  
	                  Rob Parrish                
	 --------------------------------------------

    Do F-SAPT =         Yes
    Do Plot   =          No
    Memory    =      78.580 [GD]

  ==> Localization (IBO) <==

  ==> IBO Localizer 2 <==

    MinAO Basis = CC-PVTZ-MINAO
    Use Ghosts  =       FALSE
    Use Stars   =       FALSE
    Condition   =   1.000E-07
    Power       =           4
    Convergence =   1.000E-12
    Maxiter     =        1000

    @IBO Iter:                   Metric       Gradient
    @IBO    1:   1.9941591711993711E+00   2.374251E+00
    @IBO    2:   2.2100859311332650E+00   2.645485E+00
    @IBO    3:   2.3196710607631443E+00   1.247066E+00
    @IBO    4:   2.3320380016640354E+00   1.657251E-01
    @IBO    5:   2.3321822870004234E+00   2.930647E-03
    @IBO    6:   2.3321823531996078E+00   8.815597E-05
    @IBO    7:   2.3321823532411456E+00   1.071308E-06
    @IBO    8:   2.3321823532411581E+00   4.395522E-08
    @IBO    9:   2.3321823532411581E+00   2.017964E-09
    @IBO   10:   2.3321823532411585E+00   9.492755E-11
    @IBO   11:   2.3321823532411585E+00   4.463041E-12
    @IBO   12:   2.3321823532411585E+00   2.092015E-13

    IBO Localizer 2 converged.

  ==> Partitioning <==

   => Atomic Partitioning <= 

    Monomer A:   4 atoms
    Monomer B:   7 atoms
    Monomer C:  21 atoms

   => Link Bond Identification <=

    Link Bond Selection = AUTOMATIC

    Charge Completeness = 0.800

    Total Link Bonds = 2

    --------------------------
    N     Orb Type Aind1 Aind2
    --------------------------
    1      22   AC     1    25
    2      53   BC     5    21
    --------------------------

   => Link Bond Assignment <=

    Link Bond Assignment      = C

   => Partition Summary <=

    Monomer A:  0 charge,   8 protons,   8 electrons,   4 docc
    Monomer B:  0 charge,  30 protons,  30 electrons,  15 docc
    Monomer C:  0 charge,  84 protons,  84 electrons,  42 docc

  ==> Overlap Integrals <==

  ==> Kinetic Integrals <==

  ==> Nuclear Integrals <==

    Nuclear Repulsion Tot:   1.2498432356477356E+03 [Eh]

  ==> Coulomb Integrals <==

  ==> DFJK: Density-Fitted J/K Matrices <==

    J tasked:                  Yes
    K tasked:                  Yes
    wK tasked:                  No
    OpenMP threads:             48
    Integrals threads:          48
    Memory (MB):            643730
    Algorithm:                Core
    Integral Cache:           NONE
    Schwarz Cutoff:          1E-12
    Fitting Condition:       1E-12

   => Auxiliary Basis Set <=

  Basis Set: (JUN-CC-PVDZ AUX)
    Blend: JUN-CC-PVDZ-JKFIT
    Number of shells: 576
    Number of basis function: 1632
    Number of Cartesian functions: 1856
    Spherical Harmonics?: true
    Max angular momentum: 3

  ==> Relaxed SCF Equations <==

  ==> SCF A: <==

    Maxiter =          50
    E Tol   =   1.000E-06
    D Tol   =   1.000E-08

    Max DIIS Vectors = 5

    Iter   N:                        E          dE         |D|
    Iter   1:  -3.6260634868269605E+01  -3.626E+01   1.767E-03 
    Iter   2:  -3.6263614263280374E+01  -2.979E-03   1.844E-04 DIIS
    Iter   3:  -3.6263692338191504E+01  -7.807E-05   3.609E-05 DIIS
    Iter   4:  -3.6263696529088151E+01  -4.191E-06   8.158E-06 DIIS
    Iter   5:  -3.6263696717596538E+01  -1.885E-07   1.564E-06 DIIS
    Iter   6:  -3.6263696726129950E+01  -8.533E-09   2.439E-07 DIIS
    Iter   7:  -3.6263696726323140E+01  -1.932E-10   2.862E-08 DIIS
    Iter   8:  -3.6263696726325804E+01  -2.665E-12   3.157E-09 DIIS

    FISAPTSCF Converged.

    Final SCF Energy:  -3.6263696726325804E+01 [Eh]

   => Occupied Orbital Energies <=

       1  -11.225351     2   -0.841905     3   -0.554303  
       4   -0.548478  

   => Virtual Orbital Energies <=

       5    0.028933     6    0.053233     7    0.059107  
       8    0.065105     9    0.071209    10    0.073953  
      11    0.086266    12    0.087539    13    0.091589  
      14    0.098237    15    0.100153    16    0.111273  
      17    0.115320    18    0.120484    19    0.130275  
      20    0.133686    21    0.137343    22    0.140882  
      23    0.145171    24    0.149193    25    0.159357  
      26    0.164917    27    0.169830    28    0.176934  
      29    0.184457    30    0.186573    31    0.193711  
      32    0.196757    33    0.199913    34    0.204461  
      35    0.212290    36    0.214344    37    0.219980  
      38    0.227281    39    0.235182    40    0.239185  
      41    0.243772    42    0.248469    43    0.255631  
      44    0.257443    45    0.261558    46    0.268451  
      47    0.274730    48    0.280766    49    0.287648  
      50    0.292403    51    0.300057    52    0.308989  
      53    0.315145    54    0.322130    55    0.324386  
      56    0.329155    57    0.335389    58    0.337710  
      59    0.344301    60    0.349062    61    0.354378  
      62    0.364957    63    0.370329    64    0.372235  
      65    0.379977    66    0.387732    67    0.392684  
      68    0.396667    69    0.402935    70    0.411068  
      71    0.416979    72    0.420103    73    0.426241  
      74    0.430124    75    0.435137    76    0.437855  
      77    0.446157    78    0.450694    79    0.456444  
      80    0.469708    81    0.471774    82    0.479555  
      83    0.487989    84    0.492440    85    0.501624  
      86    0.518491    87    0.519579    88    0.537765  
      89    0.553656    90    0.557492    91    0.565780  
      92    0.570182    93    0.579948    94    0.588543  
      95    0.595107    96    0.612306    97    0.619020  
      98    0.625197    99    0.634146   100    0.639526  
     101    0.645697   102    0.669973   103    0.685169  
     104    0.721609   105    0.738381   106    0.756655  
     107    0.764762   108    0.787796   109    0.793037  
     110    0.804345   111    0.828099   112    0.831551  
     113    0.854645   114    0.873356   115    0.887589  
     116    0.894343   117    0.910451   118    0.913159  
     119    0.917127   120    0.930467   121    0.933718  
     122    0.940349   123    0.946923   124    0.948066  
     125    0.958122   126    0.963641   127    0.967202  
     128    0.972556   129    0.989149   130    0.995094  
     131    0.997021   132    1.004173   133    1.005390  
     134    1.016636   135    1.020126   136    1.038228  
     137    1.043554   138    1.054850   139    1.059659  
     140    1.075034   141    1.094594   142    1.104840  
     143    1.110264   144    1.115849   145    1.123573  
     146    1.148318   147    1.157402   148    1.158446  
     149    1.180322   150    1.195401   151    1.228989  
     152    1.242187   153    1.267935   154    1.278634  
     155    1.299657   156    1.341678   157    1.359894  
     158    1.385312   159    1.396841   160    1.439896  
     161    1.456982   162    1.472853   163    1.493295  
     164    1.516250   165    1.530582   166    1.537239  
     167    1.546081   168    1.563629   169    1.572164  
     170    1.586134   171    1.602378   172    1.614145  
     173    1.615019   174    1.631794   175    1.642958  
     176    1.657556   177    1.663682   178    1.672823  
     179    1.678394   180    1.694554   181    1.705862  
     182    1.707804   183    1.732803   184    1.742340  
     185    1.767724   186    1.777731   187    1.798005  
     188    1.807669   189    1.815521   190    1.836397  
     191    1.860214   192    1.861703   193    1.879477  
     194    1.887310   195    1.901380   196    1.906455  
     197    1.910275   198    1.925940   199    1.951197  
     200    1.957393   201    1.964204   202    1.973911  
     203    1.994141   204    2.002911   205    2.012848  
     206    2.023732   207    2.026667   208    2.030240  
     209    2.040005   210    2.045876   211    2.047555  
     212    2.064008   213    2.091793   214    2.097193  
     215    2.108072   216    2.116501   217    2.125768  
     218    2.141340   219    2.146595   220    2.151535  
     221    2.161739   222    2.176671   223    2.188676  
     224    2.200409   225    2.202285   226    2.225169  
     227    2.231764   228    2.246093   229    2.259328  
     230    2.267738   231    2.283096   232    2.313779  
     233    2.317711   234    2.337724   235    2.340726  
     236    2.362532   237    2.368010   238    2.382472  
     239    2.388031   240    2.399636   241    2.404020  
     242    2.415842   243    2.427451   244    2.438350  
     245    2.448909   246    2.465299   247    2.483845  
     248    2.492470   249    2.510934   250    2.521014  
     251    2.567844   252    2.572510   253    2.581253  
     254    2.619079   255    2.624351   256    2.652813  
     257    2.662499   258    2.682400   259    2.692712  
     260    2.729598   261    2.735509   262    2.749331  
     263    2.768388   264    2.787181   265    2.805771  
     266    2.812501   267    2.834971   268    2.844300  
     269    2.859079   270    2.863692   271    2.877543  
     272    2.880678   273    2.899886   274    2.910159  
     275    2.911920   276    2.940500   277    2.948073  
     278    2.980507   279    2.999852   280    3.013017  
     281    3.023413   282    3.054233   283    3.068912  
     284    3.115113   285    3.130265   286    3.199698  
     287    3.269107   288    3.320314   289    3.350370  
     290    3.401269   291    3.443028   292    3.450872  
     293    3.532377   294    3.578747   295    3.603468  
     296    3.640292   297    3.693783   298    3.716254  
     299    3.749491   300    3.794018   301    3.875872  
     302    3.951746   303    4.008094   304    4.096674  
     305    4.143825   306    4.200398   307    4.444107  
     308    4.509491   309    4.532676   310    4.750585  
     311    4.947006   312    5.044713   313    5.066767  
     314    5.206330   315    5.324366   316    5.515427  
     317    5.579647   318    5.679513   319    5.832501  
     320    6.212543   321    6.333425   322    6.691284  
     323   13.374149   324   18.428085   325   33.416050  
     326   33.468555  

  ==> SCF B: <==

    Maxiter =          50
    E Tol   =   1.000E-06
    D Tol   =   1.000E-08

    Max DIIS Vectors = 5

    Iter   N:                        E          dE         |D|
    Iter   1:  -2.2436829236737023E+02  -2.244E+02   4.249E-03 
    Iter   2:  -2.2438141506930097E+02  -1.312E-02   3.704E-04 DIIS
    Iter   3:  -2.2438193886356225E+02  -5.238E-04   1.482E-04 DIIS
    Iter   4:  -2.2438198262850548E+02  -4.376E-05   8.921E-05 DIIS
    Iter   5:  -2.2438199305438806E+02  -1.043E-05   1.019E-05 DIIS
    Iter   6:  -2.2438199360138341E+02  -5.470E-07   6.200E-06 DIIS
    Iter   7:  -2.2438199366686752E+02  -6.548E-08   2.245E-06 DIIS
    Iter   8:  -2.2438199368042822E+02  -1.356E-08   6.735E-07 DIIS
    Iter   9:  -2.2438199368212949E+02  -1.701E-09   2.173E-07 DIIS
    Iter  10:  -2.2438199368236380E+02  -2.343E-10   7.427E-08 DIIS
    Iter  11:  -2.2438199368239407E+02  -3.027E-11   2.679E-08 DIIS
    Iter  12:  -2.2438199368239540E+02  -1.336E-12   1.545E-08 DIIS
    Iter  13:  -2.2438199368239583E+02  -4.263E-13   3.554E-09 DIIS

    FISAPTSCF Converged.

    Final SCF Energy:  -2.2438199368239583E+02 [Eh]

   => Occupied Orbital Energies <=

       1  -20.613396     2  -20.554589     3  -11.394607  
       4  -11.297675     5   -1.447045     6   -1.363218  
       7   -0.967430     8   -0.772938     9   -0.676568  
      10   -0.667998    11   -0.628460    12   -0.546651  
      13   -0.541553    14   -0.480176    15   -0.466337  

   => Virtual Orbital Energies <=

      16    0.021791    17    0.051352    18    0.058216  
      19    0.064804    20    0.070357    21    0.076283  
      22    0.085995    23    0.094001    24    0.096278  
      25    0.098018    26    0.104948    27    0.112660  
      28    0.115827    29    0.117636    30    0.122382  
      31    0.133692    32    0.137080    33    0.141711  
      34    0.146470    35    0.157064    36    0.160242  
      37    0.164448    38    0.166523    39    0.176414  
      40    0.181402    41    0.182976    42    0.195037  
      43    0.197787    44    0.199954    45    0.207314  
      46    0.210229    47    0.212356    48    0.220362  
      49    0.225209    50    0.228562    51    0.236876  
      52    0.237804    53    0.248813    54    0.251234  
      55    0.255671    56    0.260320    57    0.264909  
      58    0.275213    59    0.282782    60    0.293837  
      61    0.299679    62    0.310241    63    0.315098  
      64    0.318924    65    0.320321    66    0.322254  
      67    0.334660    68    0.337014    69    0.349867  
      70    0.352385    71    0.357318    72    0.366647  
      73    0.372295    74    0.377044    75    0.378764  
      76    0.380615    77    0.386432    78    0.395203  
      79    0.399946    80    0.404148    81    0.410287  
      82    0.410916    83    0.417170    84    0.423451  
      85    0.430973    86    0.432954    87    0.436902  
      88    0.441071    89    0.447420    90    0.453901  
      91    0.460420    92    0.462931    93    0.479358  
      94    0.482182    95    0.491458    96    0.499658  
      97    0.501814    98    0.510943    99    0.519558  
     100    0.528054   101    0.534710   102    0.545705  
     103    0.550739   104    0.557030   105    0.568856  
     106    0.576486   107    0.601206   108    0.608419  
     109    0.620586   110    0.628368   111    0.636271  
     112    0.649093   113    0.651656   114    0.679106  
     115    0.687745   116    0.729498   117    0.732312  
     118    0.773763   119    0.782659   120    0.795450  
     121    0.813550   122    0.818200   123    0.824857  
     124    0.856922   125    0.868049   126    0.886478  
     127    0.890249   128    0.901719   129    0.910200  
     130    0.919912   131    0.924199   132    0.929764  
     133    0.931220   134    0.945190   135    0.946550  
     136    0.949248   137    0.962081   138    0.970046  
     139    0.976582   140    0.981951   141    0.986178  
     142    0.997320   143    1.008818   144    1.010221  
     145    1.014294   146    1.024256   147    1.034112  
     148    1.055013   149    1.064742   150    1.072378  
     151    1.083450   152    1.091493   153    1.113863  
     154    1.120457   155    1.127619   156    1.139608  
     157    1.147141   158    1.166500   159    1.208582  
     160    1.217682   161    1.228528   162    1.252708  
     163    1.259055   164    1.290162   165    1.319839  
     166    1.342876   167    1.352291   168    1.366888  
     169    1.388343   170    1.410400   171    1.443720  
     172    1.467187   173    1.471404   174    1.487727  
     175    1.500910   176    1.513863   177    1.517800  
     178    1.521942   179    1.536648   180    1.551282  
     181    1.561817   182    1.565784   183    1.577355  
     184    1.589804   185    1.596474   186    1.611148  
     187    1.620313   188    1.645827   189    1.652039  
     190    1.652766   191    1.664704   192    1.673927  
     193    1.678912   194    1.688447   195    1.688475  
     196    1.704406   197    1.716748   198    1.730991  
     199    1.748715   200    1.761756   201    1.767649  
     202    1.781153   203    1.802647   204    1.811095  
     205    1.845798   206    1.858573   207    1.867424  
     208    1.877803   209    1.883419   210    1.897661  
     211    1.914401   212    1.931904   213    1.936316  
     214    1.948841   215    1.959553   216    1.964206  
     217    1.971203   218    1.979706   219    1.991530  
     220    1.996535   221    2.007832   222    2.018232  
     223    2.022627   224    2.030049   225    2.032529  
     226    2.037135   227    2.050423   228    2.057951  
     229    2.062165   230    2.080602   231    2.093051  
     232    2.095259   233    2.117143   234    2.131027  
     235    2.141327   236    2.160101   237    2.173120  
     238    2.180177   239    2.197551   240    2.201409  
     241    2.217037   242    2.225383   243    2.234804  
     244    2.254215   245    2.267067   246    2.277271  
     247    2.285767   248    2.307476   249    2.316849  
     250    2.337185   251    2.374143   252    2.384156  
     253    2.391359   254    2.398374   255    2.401148  
     256    2.411896   257    2.419905   258    2.427467  
     259    2.431534   260    2.436658   261    2.461018  
     262    2.466943   263    2.499266   264    2.513666  
     265    2.538702   266    2.553114   267    2.585573  
     268    2.594852   269    2.613678   270    2.630238  
     271    2.649697   272    2.677631   273    2.686544  
     274    2.697287   275    2.737734   276    2.750814  
     277    2.775527   278    2.788347   279    2.791301  
     280    2.804710   281    2.816154   282    2.834168  
     283    2.860133   284    2.863082   285    2.882370  
     286    2.886758   287    2.905105   288    2.914945  
     289    2.934799   290    2.957598   291    2.990992  
     292    3.010945   293    3.015710   294    3.025462  
     295    3.060579   296    3.091476   297    3.095234  
     298    3.129576   299    3.145819   300    3.195831  
     301    3.252005   302    3.275728   303    3.305948  
     304    3.324461   305    3.378920   306    3.402130  
     307    3.422712   308    3.459231   309    3.495112  
     310    3.563377   311    3.574651   312    3.587876  
     313    3.676970   314    3.706699   315    3.711947  
     316    3.782237   317    3.795440   318    3.879872  
     319    3.916033   320    3.950296   321    3.977951  
     322    4.078655   323    4.110816   324    4.552857  
     325    4.561085   326   13.295859  

  ==> Frozen Core <==


    ------------------
    Range      A     B
    ------------------
    nbf      368   368
    nmo      326   326
    nocc       4    15
    nvir     322   311
    nfocc      1     4
    naocc      3    11
    navir    322   311
    nfvir      0     0
    ------------------

  ==> Unification <==

  ==> dHF <==

    E ABC(HF) =  -8.0026312541474692E+02 [Eh]
    E AC(0)   =  -5.7222508956121408E+02 [Eh]
    E BC(0)   =  -7.6012455946083242E+02 [Eh]
    E A(0)    =  -2.5030296090357830E+01 [Eh]
    E B(0)    =  -2.1265180458143058E+02 [Eh]
    E AC(HF)  =  -5.7222202770315846E+02 [Eh]
    E BC(HF)  =  -7.6011085814580770E+02 [Eh]
    E AB(HF)  =  -2.3764806936189180E+02 [Eh]
    E A(HF)   =  -2.5015684998955287E+01 [Eh]
    E B(HF)   =  -2.1263026261129417E+02 [Eh]
    E C       =  -5.3207188218586043E+02 [Eh]
    E HF      =   1.4641421439137048E-02 [Eh]

  ==> Electrostatics <==

    Elst10,r            =     0.008759767151 [Eh]

  ==> Exchange <==

    Exch10(S^2)         =     0.007387220641 [Eh]
    Exch10              =     0.007417582926 [Eh]

  ==> Induction <==

    Ind20,u (A<-B)      =    -0.001455995458 [Eh]
    Ind20,u (B<-A)      =    -0.000961293733 [Eh]
    Ind20,u             =    -0.002417289191 [Eh]
    Exch-Ind20,u (A<-B) =     0.000730332599 [Eh]
    Exch-Ind20,u (B<-A) =     0.000725687395 [Eh]
    Exch-Ind20,u        =     0.001456019994 [Eh]

  ==> CPHF Iterations <==

    Maxiter     =          50
    Convergence =   1.000E-08

    -----------------------------------------
    Iter   Monomer A    Monomer B    Time [s]
    -----------------------------------------
    1      1.318E-01    2.574E-01           1
    2      1.950E-02    9.673E-02           2
    3      4.688E-03    1.949E-02           3
    4      7.056E-04    8.998E-03           3
    5      8.165E-05    3.354E-03           4
    6      1.272E-05    1.515E-03           5
    7      1.856E-06    3.968E-04           6
    8      3.038E-07    1.447E-04           7
    9      3.318E-08    3.531E-05           8
    10     2.649E-09*   1.261E-05           9
    11     2.649E-09*   4.016E-06           9
    12     2.649E-09*   7.250E-07          10
    13     2.649E-09*   1.423E-07          10
    14     2.649E-09*   3.226E-08          11
    15     2.649E-09*   7.764E-09*         11
    -----------------------------------------

    Ind20,r (A<-B)      =    -0.001681537918 [Eh]
    Ind20,r (B<-A)      =    -0.001168382070 [Eh]
    Ind20,r             =    -0.002849919988 [Eh]
    Exch-Ind20,r (A<-B) =     0.000875081958 [Eh]
    Exch-Ind20,r (B<-A) =     0.000961088564 [Eh]
    Exch-Ind20,r        =     0.001836170522 [Eh]

  ==> F-SAPT Localization (IBO) <==

  Local Orbitals for Monomer A:

  ==> IBO Localizer 2 <==

    MinAO Basis = CC-PVTZ-MINAO
    Use Ghosts  =       FALSE
    Use Stars   =       FALSE
    Condition   =   1.000E-07
    Power       =           4
    Convergence =   1.000E-12
    Maxiter     =        1000

    @IBO Iter:                   Metric       Gradient
    @IBO    1:   1.0654177077887015E+00   6.801413E-02
    @IBO    2:   1.0831792686876176E+00   3.110528E-02
    @IBO    3:   1.0839043584154189E+00   7.763951E-04
    @IBO    4:   1.0839047795863528E+00   1.741090E-07
    @IBO    5:   1.0839047795863739E+00   1.344669E-10
    @IBO    6:   1.0839047795863739E+00   1.260986E-15

    IBO Localizer 2 converged.

  Local Orbitals for Monomer B:

  ==> IBO Localizer 2 <==

    MinAO Basis = CC-PVTZ-MINAO
    Use Ghosts  =       FALSE
    Use Stars   =       FALSE
    Condition   =   1.000E-07
    Power       =           4
    Convergence =   1.000E-12
    Maxiter     =        1000

    @IBO Iter:                   Metric       Gradient
    @IBO    1:   1.4816730388671815E+00   1.669197E+00
    @IBO    2:   1.6752732052248400E+00   9.300237E-01
    @IBO    3:   1.7078770038987763E+00   3.933691E-01
    @IBO    4:   1.7099080311423107E+00   6.111625E-03
    @IBO    5:   1.7099087858873814E+00   1.442818E-04
    @IBO    6:   1.7099087861664570E+00   1.933084E-06
    @IBO    7:   1.7099087861665336E+00   5.653451E-08
    @IBO    8:   1.7099087861665336E+00   1.209399E-09
    @IBO    9:   1.7099087861665336E+00   2.752584E-11
    @IBO   10:   1.7099087861665336E+00   7.120695E-13

    IBO Localizer 2 converged.

  ==> F-SAPT Electrostatics <==

  ==> DFERI: Density Fitted 3-Index Tensors <==

    Schwarz cutoff =   0.000E+00
    J cutoff       =   1.000E-12
    Mem (GB)       =         628

   => Auxiliary Basis <=

  Basis Set: (JUN-CC-PVDZ AUX)
    Blend: JUN-CC-PVDZ-JKFIT
    Number of shells: 576
    Number of basis function: 1632
    Number of Cartesian functions: 1856
    Spherical Harmonics?: true
    Max angular momentum: 3

    Elst10,r            =     0.008759767146 [Eh]

  ==> F-SAPT Exchange <==

  ==> DFERI: Density Fitted 3-Index Tensors <==

    Schwarz cutoff =   0.000E+00
    J cutoff       =   1.000E-12
    Mem (GB)       =         628

   => Auxiliary Basis <=

  Basis Set: (JUN-CC-PVDZ AUX)
    Blend: JUN-CC-PVDZ-JKFIT
    Number of shells: 576
    Number of basis function: 1632
    Number of Cartesian functions: 1856
    Spherical Harmonics?: true
    Max angular momentum: 3

    Exch10(S^2)         =     0.007387220641 [Eh]

    Scaling F-SAPT Exch10(S^2) by   1.004E+00 to match Exch10

  ==> F-SAPT Induction <==

  ==> DFERI: Density Fitted 3-Index Tensors <==

    Schwarz cutoff =   0.000E+00
    J cutoff       =   1.000E-12
    Mem (GB)       =         628

   => Auxiliary Basis <=

  Basis Set: (JUN-CC-PVDZ AUX)
    Blend: JUN-CC-PVDZ-JKFIT
    Number of shells: 576
    Number of basis function: 1632
    Number of Cartesian functions: 1856
    Spherical Harmonics?: true
    Max angular momentum: 3

    Ind20,u (A<-B)      =    -0.001455995458 [Eh]
    Ind20,u (B<-A)      =    -0.000961293733 [Eh]
    Ind20,u             =    -0.002417289190 [Eh]
    Exch-Ind20,u (A<-B) =     0.000730332599 [Eh]
    Exch-Ind20,u (B<-A) =     0.000725687395 [Eh]
    Exch-Ind20,u        =     0.001456019994 [Eh]

    Scaling for delta HF        =   1.515E+00
    Scaling for response (A<-B) =   1.111E+00
    Scaling for response (B<-A) =   8.798E-01
    Scaling for total (A<-B)    =   1.684E+00
    Scaling for total (B<-A)    =   1.333E+00

  ==> F-SAPT Dispersion <==

  ==> DFERI: Density Fitted 3-Index Tensors <==

    Schwarz cutoff =   0.000E+00
    J cutoff       =   1.000E-12
    Mem (GB)       =         628

   => Auxiliary Basis <=

  Basis Set: (JUN-CC-PVDZ AUX)
    Blend: JUN-CC-PVDZ-RI
    Number of shells: 432
    Number of basis function: 1264
    Number of Cartesian functions: 1456
    Spherical Harmonics?: true
    Max angular momentum: 3

    Disp20              =    -0.002851899607 [Eh]
    Exch-Disp20         =     0.000504872397 [Eh]

  ==> F-SAPT Output <==

    F-SAPT Data Filepath = fsapt/

  ==> Results <==


    SAPT Results  
  --------------------------------------------------------------------------------------------------------
    Electrostatics                  8.75976715 [mEh]       5.49683711 [kcal/mol]      22.99876866 [kJ/mol]
      Elst10,r                      8.75976715 [mEh]       5.49683711 [kcal/mol]      22.99876866 [kJ/mol]

    Exchange                        7.41758293 [mEh]       4.65460375 [kcal/mol]      19.47486397 [kJ/mol]
      Exch10                        7.41758293 [mEh]       4.65460375 [kcal/mol]      19.47486397 [kJ/mol]
      Exch10(S^2)                   7.38722064 [mEh]       4.63555113 [kcal/mol]      19.39514779 [kJ/mol]

    Induction                      -1.53592864 [mEh]      -0.96380981 [kcal/mol]      -4.03258064 [kJ/mol]
      Ind20,r                      -2.84991999 [mEh]      -1.78835187 [kcal/mol]      -7.48246493 [kJ/mol]
      Exch-Ind20,r                  1.83617052 [mEh]       1.15221445 [kcal/mol]       4.82086570 [kJ/mol]
      delta HF,r (2)               -0.52217917 [mEh]      -0.32767239 [kcal/mol]      -1.37098142 [kJ/mol]
      Induction (A<-B)             -1.22185890 [mEh]      -0.76672807 [kcal/mol]      -3.20799053 [kJ/mol]
      Induction (B<-A)             -0.31406974 [mEh]      -0.19708175 [kcal/mol]      -0.82459011 [kJ/mol]

    Dispersion                     -2.34702721 [mEh]      -1.47278187 [kcal/mol]      -6.16211994 [kJ/mol]
      Disp20                       -2.85189961 [mEh]      -1.78959410 [kcal/mol]      -7.48766242 [kJ/mol]
      Exch-Disp20                   0.50487240 [mEh]       0.31681223 [kcal/mol]       1.32554248 [kJ/mol]

  Total HF                         14.64142144 [mEh]       9.18763105 [kcal/mol]      38.44105199 [kJ/mol]
  Total SAPT0                      12.29439423 [mEh]       7.71484918 [kcal/mol]      32.27893205 [kJ/mol]

  --------------------------------------------------------------------------------------------------------
    Han Solo: This is *not* gonna work.
    Luke Skywalker: Why didn't you say so before?
    Han Solo: I *did* say so before.

*** tstop() called on vega04.cac.cornell.edu at Wed Oct 18 19:21:42 2017
Module time:
	user time   =    1817.95 seconds =      30.30 minutes
	system time =      10.62 seconds =       0.18 minutes
	total time  =         95 seconds =       1.58 minutes
Total time:
	user time   =    2533.42 seconds =      42.22 minutes
	system time =      16.04 seconds =       0.27 minutes
	total time  =        133 seconds =       2.22 minutes

*** Psi4 exiting successfully. Buy a developer a beer!
