
    -----------------------------------------------------------------------
          Psi4: An Open-Source Ab Initio Electronic Structure Package
                               Psi4 1.1 release

                         Git: Rev {HEAD} add49b9 


    R. M. Parrish, L. A. Burns, D. G. A. Smith, A. C. Simmonett,
    A. E. DePrince III, E. G. Hohenstein, U. Bozkaya, A. Yu. Sokolov,
    R. Di Remigio, R. M. Richard, J. F. Gonthier, A. M. James,
    H. R. McAlexander, A. Kumar, M. Saitow, X. Wang, B. P. Pritchard,
    P. Verma, H. F. Schaefer III, K. Patkowski, R. A. King, E. F. Valeev,
    F. A. Evangelista, J. M. Turney, T. D. Crawford, and C. D. Sherrill,
    J. Chem. Theory Comput. in press (2017).
    (doi: 10.1021/acs.jctc.7b00174)

    -----------------------------------------------------------------------


    Psi4 started on: Tuesday, 12 December 2017 11:49AM

    Process ID:  16157
    PSIDATADIR: /home/junteng/Softwares/psi4conda/share/psi4
    Memory:     500.0 MiB
    Threads:    1
    
  ==> Input File <==

--------------------------------------------------------------------------
memory 750000 mb

molecule mol {
0 1
C         -0.43518       -1.37667        0.57393
O         -0.68269       -2.26901        1.34971
O         -0.97425       -1.28816       -0.65560
C         -1.92195       -2.30765       -1.01500
H         -2.27209       -2.03789       -2.00877
H         -1.44123       -3.28721       -1.03036
H         -2.74810       -2.32701       -0.30236
--
0 1
C         -1.24261        1.37199       -0.10563
O         -1.53397        1.89915       -1.14822
O         -2.15233        0.92808        0.79026
C         -3.53129        1.01468        0.38980
H         -3.69181        0.45676       -0.53435
H         -3.82137        2.05498        0.23466
H         -4.09916        0.57599        1.20731
--
0 1
C          2.29389       -1.87291       -0.31752
H          3.20250       -1.86702       -0.92306
H          2.48929       -2.43083        0.60139
H          1.51274       -2.38920       -0.87812
H          0.96089        2.25101       -1.34490
C          0.16209        1.18464        0.43655
C          0.56565       -0.27377        0.84931
C          1.26947        1.53950       -0.58431
C          2.57009        1.85676        0.17915
C          2.98275        0.43327        0.65360
C          1.88362       -0.45323        0.00322
O          1.56779        0.27639       -1.19316
H          0.21750        1.82762        1.31960
H          0.77862       -0.34066        1.91468
H          3.31173        2.27758       -0.50135
H          2.42175        2.56464        0.99711
H          3.96121        0.14970        0.26221
H          3.01298        0.32714        1.73988

symmetry c1
no_reorient
no_com
}

set {
basis jun-cc-pvdz
scf_type df
guess sad
freeze_core true
}

energy('fisapt0')
--------------------------------------------------------------------------

  Memory set to 698.492 GiB by Python driver.

*** tstart() called on ThinkPad-P50
*** at Tue Dec 12 11:49:17 2017

   => Loading Basis Set <=

    Name: JUN-CC-PVDZ
    Role: ORBITAL
    Keyword: BASIS
    atoms 1, 4, 8, 11, 15, 20-25   entry C          line   157 file /home/junteng/Softwares/psi4conda/share/psi4/basis/jun-cc-pvdz.gbs 
    atoms 2-3, 9-10, 26            entry O          line   225 file /home/junteng/Softwares/psi4conda/share/psi4/basis/jun-cc-pvdz.gbs 
    atoms 5-7, 12-14, 16-19, 27-32 entry H          line    35 file /home/junteng/Softwares/psi4conda/share/psi4/basis/jun-cc-pvdz.gbs 


         ---------------------------------------------------------
                                   SCF
            by Justin Turney, Rob Parrish, and Andy Simmonett
                              RHF Reference
                        1 Threads, 715255 MiB Core
         ---------------------------------------------------------

  ==> Geometry <==

    Molecular point group: c1
    Full point group: C1

    Geometry (in Angstrom), charge = 0, multiplicity = 1:

       Center              X                  Y                   Z               Mass       
    ------------   -----------------  -----------------  -----------------  -----------------
           C         -0.435180000000    -1.376670000000     0.573930000000    12.000000000000
           O         -0.682690000000    -2.269010000000     1.349710000000    15.994914619560
           O         -0.974250000000    -1.288160000000    -0.655600000000    15.994914619560
           C         -1.921950000000    -2.307650000000    -1.015000000000    12.000000000000
           H         -2.272090000000    -2.037890000000    -2.008770000000     1.007825032070
           H         -1.441230000000    -3.287210000000    -1.030360000000     1.007825032070
           H         -2.748100000000    -2.327010000000    -0.302360000000     1.007825032070
           C         -1.242610000000     1.371990000000    -0.105630000000    12.000000000000
           O         -1.533970000000     1.899150000000    -1.148220000000    15.994914619560
           O         -2.152330000000     0.928080000000     0.790260000000    15.994914619560
           C         -3.531290000000     1.014680000000     0.389800000000    12.000000000000
           H         -3.691810000000     0.456760000000    -0.534350000000     1.007825032070
           H         -3.821370000000     2.054980000000     0.234660000000     1.007825032070
           H         -4.099160000000     0.575990000000     1.207310000000     1.007825032070
           C          2.293890000000    -1.872910000000    -0.317520000000    12.000000000000
           H          3.202500000000    -1.867020000000    -0.923060000000     1.007825032070
           H          2.489290000000    -2.430830000000     0.601390000000     1.007825032070
           H          1.512740000000    -2.389200000000    -0.878120000000     1.007825032070
           H          0.960890000000     2.251010000000    -1.344900000000     1.007825032070
           C          0.162090000000     1.184640000000     0.436550000000    12.000000000000
           C          0.565650000000    -0.273770000000     0.849310000000    12.000000000000
           C          1.269470000000     1.539500000000    -0.584310000000    12.000000000000
           C          2.570090000000     1.856760000000     0.179150000000    12.000000000000
           C          2.982750000000     0.433270000000     0.653600000000    12.000000000000
           C          1.883620000000    -0.453230000000     0.003220000000    12.000000000000
           O          1.567790000000     0.276390000000    -1.193160000000    15.994914619560
           H          0.217500000000     1.827620000000     1.319600000000     1.007825032070
           H          0.778620000000    -0.340660000000     1.914680000000     1.007825032070
           H          3.311730000000     2.277580000000    -0.501350000000     1.007825032070
           H          2.421750000000     2.564640000000     0.997110000000     1.007825032070
           H          3.961210000000     0.149700000000     0.262210000000     1.007825032070
           H          3.012980000000     0.327140000000     1.739880000000     1.007825032070

  Running in c1 symmetry.

  Rotational constants: A =      0.02598  B =      0.01727  C =      0.01271 [cm^-1]
  Rotational constants: A =    778.86379  B =    517.87897  C =    380.97388 [MHz]
  Nuclear repulsion = 1265.720975143771284

  Charge       = 0
  Multiplicity = 1
  Electrons    = 122
  Nalpha       = 61
  Nbeta        = 61

  ==> Algorithm <==

  SCF Algorithm Type is DF.
  DIIS enabled.
  MOM disabled.
  Fractional occupation disabled.
  Guess Type is SAD.
  Energy threshold   = 1.00e-08
  Density threshold  = 1.00e-08
  Integral threshold = 0.00e+00

  ==> Primary Basis <==

  Basis Set: JUN-CC-PVDZ
    Blend: JUN-CC-PVDZ
    Number of shells: 176
    Number of basis function: 368
    Number of Cartesian functions: 384
    Spherical Harmonics?: true
    Max angular momentum: 2

   => Loading Basis Set <=

    Name: (JUN-CC-PVDZ AUX)
    Role: JKFIT
    Keyword: DF_BASIS_SCF
    atoms 1, 4, 8, 11, 15, 20-25   entry C          line   145 file /home/junteng/Softwares/psi4conda/share/psi4/basis/jun-cc-pvdz-jkfit.gbs 
    atoms 2-3, 9-10, 26            entry O          line   257 file /home/junteng/Softwares/psi4conda/share/psi4/basis/jun-cc-pvdz-jkfit.gbs 
    atoms 5-7, 12-14, 16-19, 27-32 entry H          line    69 file /home/junteng/Softwares/psi4conda/share/psi4/basis/jun-cc-pvdz-jkfit.gbs 

  ==> Pre-Iterations <==

   -------------------------------------------------------
    Irrep   Nso     Nmo     Nalpha   Nbeta   Ndocc  Nsocc
   -------------------------------------------------------
     A        368     368       0       0       0       0
   -------------------------------------------------------
    Total     368     368      61      61      61       0
   -------------------------------------------------------

  ==> Integral Setup <==

  ==> DFJK: Density-Fitted J/K Matrices <==

    J tasked:                  Yes
    K tasked:                  Yes
    wK tasked:                  No
    OpenMP threads:              1
    Integrals threads:           1
    Memory (MB):            536441
    Algorithm:                Core
    Integral Cache:           NONE
    Schwarz Cutoff:          1E-12
    Fitting Condition:       1E-12

   => Auxiliary Basis Set <=

  Basis Set: (JUN-CC-PVDZ AUX)
    Blend: JUN-CC-PVDZ-JKFIT
    Number of shells: 576
    Number of basis function: 1632
    Number of Cartesian functions: 1856
    Spherical Harmonics?: true
    Max angular momentum: 3

  Minimum eigenvalue in the overlap matrix is 9.9985266158E-06.
  Using Symmetric Orthogonalization.

  SCF Guess: Superposition of Atomic Densities via on-the-fly atomic UHF.

  ==> Iterations <==

                           Total Energy        Delta E     RMS |[F,P]|

   @DF-RHF iter   0:  -806.99986244191314   -8.07000e+02   2.02131e-02 
   @DF-RHF iter   1:  -799.79271059714745    7.20715e+00   2.21420e-03 
   @DF-RHF iter   2:  -800.17293052988805   -3.80220e-01   1.17660e-03 DIIS
   @DF-RHF iter   3:  -800.25346969908583   -8.05392e-02   4.00395e-04 DIIS
   @DF-RHF iter   4:  -800.27007992674044   -1.66102e-02   1.18967e-04 DIIS
   @DF-RHF iter   5:  -800.27161697569466   -1.53705e-03   4.98512e-05 DIIS
   @DF-RHF iter   6:  -800.27197423481527   -3.57259e-04   2.03806e-05 DIIS
   @DF-RHF iter   7:  -800.27204812232787   -7.38875e-05   6.78927e-06 DIIS
   @DF-RHF iter   8:  -800.27205715277228   -9.03044e-06   2.50115e-06 DIIS
   @DF-RHF iter   9:  -800.27205830075343   -1.14798e-06   9.25310e-07 DIIS
   @DF-RHF iter  10:  -800.27205844618777   -1.45434e-07   4.18123e-07 DIIS
   @DF-RHF iter  11:  -800.27205848436165   -3.81739e-08   1.64221e-07 DIIS
   @DF-RHF iter  12:  -800.27205849156110   -7.19945e-09   6.93719e-08 DIIS
   @DF-RHF iter  13:  -800.27205849273128   -1.17018e-09   2.96294e-08 DIIS
   @DF-RHF iter  14:  -800.27205849290249   -1.71212e-10   1.05531e-08 DIIS
   @DF-RHF iter  15:  -800.27205849292318   -2.06910e-11   3.41152e-09 DIIS

  ==> Post-Iterations <==

    Orbital Energies (a.u.)
    -----------------------

    Doubly Occupied:                                                      

       1A    -20.612648     2A    -20.610179     3A    -20.564965  
       4A    -20.557565     5A    -20.555919     6A    -11.393105  
       7A    -11.390589     8A    -11.306125     9A    -11.298267  
      10A    -11.296636    11A    -11.290918    12A    -11.267679  
      13A    -11.266041    14A    -11.240997    15A    -11.239787  
      16A    -11.232281    17A     -1.472111    18A     -1.464256  
      19A     -1.403403    20A     -1.368466    21A     -1.365826  
      22A     -1.115852    23A     -1.064526    24A     -1.051769  
      25A     -0.992318    26A     -0.972182    27A     -0.939334  
      28A     -0.887742    29A     -0.821132    30A     -0.799191  
      31A     -0.769502    32A     -0.765733    33A     -0.721141  
      34A     -0.702932    35A     -0.695785    36A     -0.679186  
      37A     -0.671899    38A     -0.666781    39A     -0.664192  
      40A     -0.649872    41A     -0.626705    42A     -0.598649  
      43A     -0.589012    44A     -0.584327    45A     -0.572047  
      46A     -0.554679    47A     -0.543875    48A     -0.535869  
      49A     -0.533895    50A     -0.526939    51A     -0.520251  
      52A     -0.510942    53A     -0.500414    54A     -0.493570  
      55A     -0.477352    56A     -0.472926    57A     -0.465976  
      58A     -0.463419    59A     -0.449925    60A     -0.434983  
      61A     -0.424667  

    Virtual:                                                              

      62A      0.051370    63A      0.052828    64A      0.057386  
      65A      0.068344    66A      0.073835    67A      0.075467  
      68A      0.088392    69A      0.093682    70A      0.098783  
      71A      0.101760    72A      0.107728    73A      0.118261  
      74A      0.121200    75A      0.124950    76A      0.128978  
      77A      0.135898    78A      0.140101    79A      0.141721  
      80A      0.150368    81A      0.158846    82A      0.161865  
      83A      0.168219    84A      0.173835    85A      0.176428  
      86A      0.180654    87A      0.184809    88A      0.185264  
      89A      0.194943    90A      0.198841    91A      0.203580  
      92A      0.213137    93A      0.217725    94A      0.220304  
      95A      0.229680    96A      0.232709    97A      0.233879  
      98A      0.242803    99A      0.249125   100A      0.255236  
     101A      0.258983   102A      0.262141   103A      0.264802  
     104A      0.277790   105A      0.279929   106A      0.291140  
     107A      0.299403   108A      0.304718   109A      0.312811  
     110A      0.314419   111A      0.322103   112A      0.329375  
     113A      0.333804   114A      0.340263   115A      0.343850  
     116A      0.347962   117A      0.355179   118A      0.360408  
     119A      0.361933   120A      0.374823   121A      0.375973  
     122A      0.381807   123A      0.385076   124A      0.389442  
     125A      0.390830   126A      0.398423   127A      0.402434  
     128A      0.407961   129A      0.413760   130A      0.420617  
     131A      0.425070   132A      0.428978   133A      0.431478  
     134A      0.443622   135A      0.448368   136A      0.450019  
     137A      0.456400   138A      0.465917   139A      0.469558  
     140A      0.473243   141A      0.482109   142A      0.492303  
     143A      0.505322   144A      0.513198   145A      0.519303  
     146A      0.525872   147A      0.529033   148A      0.541263  
     149A      0.552187   150A      0.554108   151A      0.570185  
     152A      0.574035   153A      0.592517   154A      0.605572  
     155A      0.616487   156A      0.626045   157A      0.659565  
     158A      0.667066   159A      0.693354   160A      0.733468  
     161A      0.757851   162A      0.768050   163A      0.781212  
     164A      0.789678   165A      0.794179   166A      0.815937  
     167A      0.825502   168A      0.838248   169A      0.857557  
     170A      0.866836   171A      0.869107   172A      0.876401  
     173A      0.889930   174A      0.897917   175A      0.907965  
     176A      0.909202   177A      0.917718   178A      0.920659  
     179A      0.925574   180A      0.932736   181A      0.938182  
     182A      0.945197   183A      0.957070   184A      0.961760  
     185A      0.965414   186A      0.966674   187A      0.973222  
     188A      0.976337   189A      0.981298   190A      0.992801  
     191A      0.996527   192A      0.998655   193A      1.017707  
     194A      1.024718   195A      1.041764   196A      1.045277  
     197A      1.064507   198A      1.076214   199A      1.078014  
     200A      1.088033   201A      1.103998   202A      1.107055  
     203A      1.112738   204A      1.123373   205A      1.139945  
     206A      1.145851   207A      1.172378   208A      1.185235  
     209A      1.234565   210A      1.249320   211A      1.259598  
     212A      1.284273   213A      1.289085   214A      1.301796  
     215A      1.327180   216A      1.356510   217A      1.373629  
     218A      1.392320   219A      1.411068   220A      1.420128  
     221A      1.440695   222A      1.473844   223A      1.487281  
     224A      1.489977   225A      1.509114   226A      1.511671  
     227A      1.520227   228A      1.537027   229A      1.561578  
     230A      1.580287   231A      1.587029   232A      1.592994  
     233A      1.600964   234A      1.606149   235A      1.622544  
     236A      1.634524   237A      1.644661   238A      1.653386  
     239A      1.660837   240A      1.664473   241A      1.680155  
     242A      1.691137   243A      1.693447   244A      1.707150  
     245A      1.722938   246A      1.729631   247A      1.750705  
     248A      1.755702   249A      1.776445   250A      1.790065  
     251A      1.812844   252A      1.826565   253A      1.839361  
     254A      1.849826   255A      1.867500   256A      1.872703  
     257A      1.886647   258A      1.893866   259A      1.916954  
     260A      1.927274   261A      1.936510   262A      1.938900  
     263A      1.951817   264A      1.958177   265A      1.964286  
     266A      1.978882   267A      1.984910   268A      1.997145  
     269A      2.003777   270A      2.012404   271A      2.025367  
     272A      2.026526   273A      2.039416   274A      2.047051  
     275A      2.048579   276A      2.058848   277A      2.067917  
     278A      2.075254   279A      2.088662   280A      2.090620  
     281A      2.103061   282A      2.118296   283A      2.134393  
     284A      2.152297   285A      2.159477   286A      2.162398  
     287A      2.167506   288A      2.177000   289A      2.192691  
     290A      2.219008   291A      2.227717   292A      2.237800  
     293A      2.264446   294A      2.282845   295A      2.303783  
     296A      2.310666   297A      2.316639   298A      2.324819  
     299A      2.346976   300A      2.369618   301A      2.379502  
     302A      2.391686   303A      2.394414   304A      2.403756  
     305A      2.423574   306A      2.425406   307A      2.436906  
     308A      2.451137   309A      2.464189   310A      2.469879  
     311A      2.490282   312A      2.497580   313A      2.544599  
     314A      2.566311   315A      2.608221   316A      2.610509  
     317A      2.621078   318A      2.637752   319A      2.660173  
     320A      2.716376   321A      2.721680   322A      2.737163  
     323A      2.766319   324A      2.779352   325A      2.793284  
     326A      2.799982   327A      2.809073   328A      2.825814  
     329A      2.851522   330A      2.870124   331A      2.872316  
     332A      2.874071   333A      2.882155   334A      2.895788  
     335A      2.903894   336A      2.931032   337A      2.955975  
     338A      2.980175   339A      2.997176   340A      3.001583  
     341A      3.015059   342A      3.022565   343A      3.067137  
     344A      3.107657   345A      3.143053   346A      3.184845  
     347A      3.256529   348A      3.260826   349A      3.293873  
     350A      3.313301   351A      3.379911   352A      3.382465  
     353A      3.399486   354A      3.428528   355A      3.477585  
     356A      3.537914   357A      3.560738   358A      3.587850  
     359A      3.680440   360A      3.688246   361A      3.693419  
     362A      3.780077   363A      3.812904   364A      3.849156  
     365A      3.944906   366A      3.957777   367A      4.092838  
     368A      4.104789  

    Final Occupation by Irrep:
              A 
    DOCC [    61 ]

  Energy converged.

  @DF-RHF Final Energy:  -800.27205849292318

   => Energetics <=

    Nuclear Repulsion Energy =           1265.7209751437712839
    One-Electron Energy =               -3610.5675666704828473
    Two-Electron Energy =                1544.5745330337883843
    DFT Exchange-Correlation Energy =       0.0000000000000000
    Empirical Dispersion Energy =           0.0000000000000000
    PCM Polarization Energy =               0.0000000000000000
    EFP Energy =                            0.0000000000000000
    Total Energy =                       -800.2720584929231791



Properties will be evaluated at   0.000000,   0.000000,   0.000000 Bohr

Properties computed using the SCF density matrix

  Nuclear Dipole Moment: (a.u.)
     X:     2.2129      Y:     1.6570      Z:     0.5217

  Electronic Dipole Moment: (a.u.)
     X:    -2.1142      Y:    -1.4254      Z:    -0.0049

  Dipole Moment: (a.u.)
     X:     0.0987      Y:     0.2316      Z:     0.5168     Total:     0.5749

  Dipole Moment: (Debye)
     X:     0.2509      Y:     0.5888      Z:     1.3137     Total:     1.4613


*** tstop() called on ThinkPad-P50 at Tue Dec 12 11:52:56 2017
Module time:
	user time   =     216.71 seconds =       3.61 minutes
	system time =       1.77 seconds =       0.03 minutes
	total time  =        219 seconds =       3.65 minutes
Total time:
	user time   =     216.71 seconds =       3.61 minutes
	system time =       1.77 seconds =       0.03 minutes
	total time  =        219 seconds =       3.65 minutes
   => Loading Basis Set <=

    Name: (JUN-CC-PVDZ AUX)
    Role: JKFIT
    Keyword: DF_BASIS_SCF
    atoms 1, 4, 8, 11, 15, 20-25   entry C          line   145 file /home/junteng/Softwares/psi4conda/share/psi4/basis/jun-cc-pvdz-jkfit.gbs 
    atoms 2-3, 9-10, 26            entry O          line   257 file /home/junteng/Softwares/psi4conda/share/psi4/basis/jun-cc-pvdz-jkfit.gbs 
    atoms 5-7, 12-14, 16-19, 27-32 entry H          line    69 file /home/junteng/Softwares/psi4conda/share/psi4/basis/jun-cc-pvdz-jkfit.gbs 

   => Loading Basis Set <=

    Name: (JUN-CC-PVDZ AUX)
    Role: RIFIT
    Keyword: DF_BASIS_SAPT
    atoms 1, 4, 8, 11, 15, 20-25   entry C          line    99 file /home/junteng/Softwares/psi4conda/share/psi4/basis/jun-cc-pvdz-ri.gbs 
    atoms 2-3, 9-10, 26            entry O          line   187 file /home/junteng/Softwares/psi4conda/share/psi4/basis/jun-cc-pvdz-ri.gbs 
    atoms 5-7, 12-14, 16-19, 27-32 entry H          line    29 file /home/junteng/Softwares/psi4conda/share/psi4/basis/jun-cc-pvdz-ri.gbs 

   => Loading Basis Set <=

    Name: CC-PVTZ-MINAO
    Role: ORBITAL
    Keyword: BASIS
    atoms 1, 4, 8, 11, 15, 20-25   entry C          line   130 file /home/junteng/Softwares/psi4conda/share/psi4/basis/cc-pvtz-minao.gbs 
    atoms 2-3, 9-10, 26            entry O          line   190 file /home/junteng/Softwares/psi4conda/share/psi4/basis/cc-pvtz-minao.gbs 
    atoms 5-7, 12-14, 16-19, 27-32 entry H          line    19 file /home/junteng/Softwares/psi4conda/share/psi4/basis/cc-pvtz-minao.gbs 


*** tstart() called on ThinkPad-P50
*** at Tue Dec 12 11:52:57 2017

	 --------------------------------------------
	                    FISAPT0                  
	                  Rob Parrish                
	 --------------------------------------------

    Do F-SAPT =         Yes
    Do Plot   =          No
    Memory    =      78.580 [GD]

  ==> Localization (IBO) <==

  ==> IBO Localizer 2 <==

    MinAO Basis = CC-PVTZ-MINAO
    Use Ghosts  =       FALSE
    Use Stars   =       FALSE
    Condition   =   1.000E-07
    Power       =           4
    Convergence =   1.000E-12
    Maxiter     =        1000

    @IBO Iter:                   Metric       Gradient
    @IBO    1:   1.9846998959343229E+00   2.846954E+00
    @IBO    2:   2.2093907743729746E+00   2.711937E+00
    @IBO    3:   2.3120514542085013E+00   1.233412E+00
    @IBO    4:   2.3316245937732587E+00   2.584715E-01
    @IBO    5:   2.3325536842355845E+00   6.318744E-03
    @IBO    6:   2.3325543079805353E+00   9.507834E-05
    @IBO    7:   2.3325543080827713E+00   1.966207E-06
    @IBO    8:   2.3325543080828246E+00   5.508398E-08
    @IBO    9:   2.3325543080828246E+00   1.687354E-09
    @IBO   10:   2.3325543080828246E+00   6.407515E-11
    @IBO   11:   2.3325543080828250E+00   2.905880E-12
    @IBO   12:   2.3325543080828250E+00   1.348925E-13

    IBO Localizer 2 converged.

  ==> Partitioning <==

   => Atomic Partitioning <= 

    Monomer A:   7 atoms
    Monomer B:   7 atoms
    Monomer C:  18 atoms

   => Link Bond Identification <=

    Link Bond Selection = AUTOMATIC

    Charge Completeness = 0.800

    Total Link Bonds = 2

    --------------------------
    N     Orb Type Aind1 Aind2
    --------------------------
    1      25   AC     1    21
    2      28   BC     8    20
    --------------------------

   => Link Bond Assignment <=

    Link Bond Assignment      = C

   => Partition Summary <=

    Monomer A:  0 charge,  30 protons,  30 electrons,  15 docc
    Monomer B:  0 charge,  30 protons,  30 electrons,  15 docc
    Monomer C:  0 charge,  62 protons,  62 electrons,  31 docc

  ==> Overlap Integrals <==

  ==> Kinetic Integrals <==

  ==> Nuclear Integrals <==

    Nuclear Repulsion Tot:   1.2657209751437708E+03 [Eh]

  ==> Coulomb Integrals <==

  ==> DFJK: Density-Fitted J/K Matrices <==

    J tasked:                  Yes
    K tasked:                  Yes
    wK tasked:                  No
    OpenMP threads:              1
    Integrals threads:           1
    Memory (MB):            643730
    Algorithm:                Core
    Integral Cache:           NONE
    Schwarz Cutoff:          1E-12
    Fitting Condition:       1E-12

   => Auxiliary Basis Set <=

  Basis Set: (JUN-CC-PVDZ AUX)
    Blend: JUN-CC-PVDZ-JKFIT
    Number of shells: 576
    Number of basis function: 1632
    Number of Cartesian functions: 1856
    Spherical Harmonics?: true
    Max angular momentum: 3

  ==> Relaxed SCF Equations <==

  ==> SCF A: <==

    Maxiter =          50
    E Tol   =   1.000E-06
    D Tol   =   1.000E-08

    Max DIIS Vectors = 5

    Iter   N:                        E          dE         |D|
    Iter   1:  -2.2398171791840042E+02  -2.240E+02   8.263E-04 
    Iter   2:  -2.2399491239795361E+02  -1.319E-02   5.072E-05 DIIS
    Iter   3:  -2.2399510806818992E+02  -1.957E-04   2.142E-05 DIIS
    Iter   4:  -2.2399513146210549E+02  -2.339E-05   8.206E-06 DIIS
    Iter   5:  -2.2399513578568306E+02  -4.324E-06   1.364E-06 DIIS
    Iter   6:  -2.2399513601146390E+02  -2.258E-07   5.674E-07 DIIS
    Iter   7:  -2.2399513605094700E+02  -3.948E-08   1.908E-07 DIIS
    Iter   8:  -2.2399513605611565E+02  -5.169E-09   8.983E-08 DIIS
    Iter   9:  -2.2399513605715822E+02  -1.043E-09   3.684E-08 DIIS
    Iter  10:  -2.2399513605739438E+02  -2.362E-10   1.583E-08 DIIS
    Iter  11:  -2.2399513605742848E+02  -3.411E-11   7.924E-09 DIIS

    FISAPTSCF Converged.

    Final SCF Energy:  -2.2399513605742848E+02 [Eh]

   => Occupied Orbital Energies <=

       1  -20.599431     2  -20.545486     3  -11.380119  
       4  -11.289921     5   -1.432593     6   -1.352330  
       7   -0.957095     8   -0.760490     9   -0.664940  
      10   -0.657547    11   -0.615587    12   -0.537758  
      13   -0.530536    14   -0.469117    15   -0.454814  

   => Virtual Orbital Energies <=

      16    0.028775    17    0.055666    18    0.057303  
      19    0.063503    20    0.069366    21    0.077900  
      22    0.081001    23    0.089627    24    0.094880  
      25    0.097909    26    0.103118    27    0.111507  
      28    0.116787    29    0.123280    30    0.126090  
      31    0.130772    32    0.133389    33    0.142572  
      34    0.145405    35    0.149616    36    0.160533  
      37    0.165287    38    0.167088    39    0.173743  
      40    0.178105    41    0.183140    42    0.186961  
      43    0.193654    44    0.199109    45    0.201439  
      46    0.209714    47    0.216708    48    0.222817  
      49    0.231129    50    0.236688    51    0.237781  
      52    0.240684    53    0.247719    54    0.252987  
      55    0.259706    56    0.266243    57    0.267401  
      58    0.274599    59    0.284973    60    0.288104  
      61    0.299718    62    0.304356    63    0.309510  
      64    0.310936    65    0.322241    66    0.327300  
      67    0.328111    68    0.331824    69    0.339229  
      70    0.348805    71    0.350458    72    0.354259  
      73    0.361666    74    0.368200    75    0.374072  
      76    0.381466    77    0.387691    78    0.395020  
      79    0.401554    80    0.406059    81    0.410568  
      82    0.415448    83    0.417888    84    0.423499  
      85    0.432816    86    0.436150    87    0.441470  
      88    0.448530    89    0.452698    90    0.461159  
      91    0.467348    92    0.475814    93    0.481961  
      94    0.492083    95    0.504138    96    0.507258  
      97    0.525194    98    0.530497    99    0.535259  
     100    0.545271   101    0.554920   102    0.559453  
     103    0.570795   104    0.573813   105    0.589238  
     106    0.597049   107    0.613079   108    0.620135  
     109    0.627344   110    0.639306   111    0.651429  
     112    0.660610   113    0.668946   114    0.682501  
     115    0.698243   116    0.742711   117    0.768278  
     118    0.776156   119    0.786007   120    0.801951  
     121    0.827233   122    0.838738   123    0.845611  
     124    0.867724   125    0.879673   126    0.883153  
     127    0.885713   128    0.904451   129    0.914613  
     130    0.930593   131    0.933630   132    0.938253  
     133    0.945249   134    0.952467   135    0.960718  
     136    0.965792   137    0.972213   138    0.982701  
     139    0.983509   140    0.988660   141    1.000432  
     142    1.004085   143    1.011704   144    1.019980  
     145    1.023993   146    1.031652   147    1.042662  
     148    1.050206   149    1.057953   150    1.078616  
     151    1.093358   152    1.105098   153    1.112628  
     154    1.117522   155    1.130605   156    1.132545  
     157    1.145919   158    1.149655   159    1.177059  
     160    1.179918   161    1.198292   162    1.225345  
     163    1.256963   164    1.286238   165    1.311093  
     166    1.319570   167    1.347483   168    1.358416  
     169    1.370184   170    1.399523   171    1.417189  
     172    1.448386   173    1.463018   174    1.492257  
     175    1.502619   176    1.513566   177    1.522480  
     178    1.553711   179    1.575613   180    1.584795  
     181    1.588923   182    1.604351   183    1.612324  
     184    1.629599   185    1.635027   186    1.654277  
     187    1.671096   188    1.678237   189    1.684271  
     190    1.689818   191    1.700305   192    1.720845  
     193    1.729727   194    1.757692   195    1.764023  
     196    1.775761   197    1.789922   198    1.800784  
     199    1.807519   200    1.830098   201    1.843532  
     202    1.854864   203    1.860400   204    1.873807  
     205    1.893178   206    1.914168   207    1.926916  
     208    1.942887   209    1.953812   210    1.960307  
     211    1.963077   212    1.981326   213    1.984200  
     214    1.990127   215    2.006023   216    2.015151  
     217    2.028047   218    2.036098   219    2.039707  
     220    2.055392   221    2.056480   222    2.070262  
     223    2.084057   224    2.099317   225    2.104243  
     226    2.112210   227    2.116559   228    2.126286  
     229    2.138150   230    2.157946   231    2.162733  
     232    2.169914   233    2.182480   234    2.186234  
     235    2.191698   236    2.206072   237    2.222795  
     238    2.233458   239    2.244333   240    2.272927  
     241    2.288083   242    2.294759   243    2.306031  
     244    2.321618   245    2.330029   246    2.343385  
     247    2.351344   248    2.366595   249    2.372447  
     250    2.384492   251    2.400394   252    2.403531  
     253    2.425047   254    2.431551   255    2.434621  
     256    2.455424   257    2.472589   258    2.478951  
     259    2.506500   260    2.527766   261    2.536025  
     262    2.565238   263    2.590683   264    2.598611  
     265    2.636120   266    2.643282   267    2.651838  
     268    2.663463   269    2.688194   270    2.706904  
     271    2.720948   272    2.726575   273    2.765813  
     274    2.772540   275    2.789264   276    2.806068  
     277    2.810969   278    2.834592   279    2.854100  
     280    2.867277   281    2.872997   282    2.880120  
     283    2.884469   284    2.898408   285    2.916041  
     286    2.923081   287    2.932632   288    2.965363  
     289    2.977149   290    3.002171   291    3.022526  
     292    3.033210   293    3.049510   294    3.069058  
     295    3.084824   296    3.154860   297    3.227467  
     298    3.273960   299    3.317858   300    3.334827  
     301    3.396225   302    3.429920   303    3.446275  
     304    3.540491   305    3.580350   306    3.640823  
     307    3.641924   308    3.704555   309    3.710679  
     310    3.793329   311    3.830649   312    3.868884  
     313    3.950460   314    3.963436   315    4.113500  
     316    4.133814   317    4.197849   318    4.432313  
     319    4.512387   320    4.543941   321    4.756594  
     322    4.932922   323    5.038863   324    5.067954  
     325    5.206748   326    5.325315   327    5.517661  
     328    5.627610   329    5.742439   330    5.837437  
     331    6.089534   332    6.343795   333    6.702793  
     334   13.382559   335   18.425621   336   33.423526  
     337   33.474306  

  ==> SCF B: <==

    Maxiter =          50
    E Tol   =   1.000E-06
    D Tol   =   1.000E-08

    Max DIIS Vectors = 5

    Iter   N:                        E          dE         |D|
    Iter   1:  -2.2408501792012981E+02  -2.241E+02   7.319E-04 
    Iter   2:  -2.2409573097675263E+02  -1.071E-02   4.555E-05 DIIS
    Iter   3:  -2.2409588629700593E+02  -1.553E-04   1.984E-05 DIIS
    Iter   4:  -2.2409590521631873E+02  -1.892E-05   7.090E-06 DIIS
    Iter   5:  -2.2409590838244441E+02  -3.166E-06   1.156E-06 DIIS
    Iter   6:  -2.2409590852365062E+02  -1.412E-07   4.543E-07 DIIS
    Iter   7:  -2.2409590854545473E+02  -2.180E-08   1.400E-07 DIIS
    Iter   8:  -2.2409590854794337E+02  -2.489E-09   6.754E-08 DIIS
    Iter   9:  -2.2409590854844453E+02  -5.012E-10   2.512E-08 DIIS
    Iter  10:  -2.2409590854855486E+02  -1.103E-10   1.163E-08 DIIS
    Iter  11:  -2.2409590854857154E+02  -1.668E-11   5.972E-09 DIIS

    FISAPTSCF Converged.

    Final SCF Energy:  -2.2409590854857154E+02 [Eh]

   => Occupied Orbital Energies <=

       1  -20.602710     2  -20.549293     3  -11.383942  
       4  -11.292354     5   -1.434753     6   -1.357109  
       7   -0.958599     8   -0.762938     9   -0.668272  
      10   -0.659731    11   -0.618620    12   -0.540426  
      13   -0.534241    14   -0.473244    15   -0.458651  

   => Virtual Orbital Energies <=

      16    0.030873    17    0.053647    18    0.059549  
      19    0.066142    20    0.067170    21    0.076310  
      22    0.082958    23    0.089189    24    0.098310  
      25    0.100838    26    0.102289    27    0.108921  
      28    0.114801    29    0.120247    30    0.123626  
      31    0.129448    32    0.135530    33    0.142220  
      34    0.146836    35    0.152526    36    0.154984  
      37    0.167295    38    0.172982    39    0.177019  
      40    0.180255    41    0.185536    42    0.189320  
      43    0.196214    44    0.197475    45    0.200323  
      46    0.211662    47    0.220092    48    0.221426  
      49    0.230989    50    0.232134    51    0.236430  
      52    0.245688    53    0.247684    54    0.257687  
      55    0.261691    56    0.264076    57    0.265129  
      58    0.277116    59    0.278308    60    0.290035  
      61    0.296215    62    0.300422    63    0.307047  
      64    0.314361    65    0.323671    66    0.325537  
      67    0.332375    68    0.337054    69    0.342687  
      70    0.354812    71    0.356448    72    0.357164  
      73    0.363796    74    0.371220    75    0.375296  
      76    0.384770    77    0.391207    78    0.395770  
      79    0.396901    80    0.400570    81    0.407566  
      82    0.413706    83    0.417555    84    0.424266  
      85    0.427549    86    0.436936    87    0.442512  
      88    0.449350    89    0.450766    90    0.459243  
      91    0.472051    92    0.479384    93    0.486751  
      94    0.498818    95    0.502324    96    0.509327  
      97    0.516262    98    0.518000    99    0.530763  
     100    0.544699   101    0.550805   102    0.556954  
     103    0.573958   104    0.580561   105    0.586596  
     106    0.604778   107    0.611700   108    0.617979  
     109    0.623292   110    0.636144   111    0.637146  
     112    0.656694   113    0.687721   114    0.698059  
     115    0.720997   116    0.767108   117    0.774076  
     118    0.786154   119    0.799392   120    0.812129  
     121    0.823804   122    0.844549   123    0.847570  
     124    0.855143   125    0.874726   126    0.884466  
     127    0.892526   128    0.906058   129    0.910071  
     130    0.921187   131    0.929468   132    0.935702  
     133    0.940550   134    0.950589   135    0.958380  
     136    0.966400   137    0.970095   138    0.980021  
     139    0.981039   140    0.987930   141    0.999981  
     142    1.006637   143    1.016845   144    1.026285  
     145    1.030633   146    1.040107   147    1.053087  
     148    1.062637   149    1.070566   150    1.076739  
     151    1.084476   152    1.100793   153    1.113150  
     154    1.115394   155    1.121943   156    1.136211  
     157    1.146766   158    1.152578   159    1.163975  
     160    1.181033   161    1.198088   162    1.230648  
     163    1.252955   164    1.276067   165    1.282777  
     166    1.312569   167    1.351349   168    1.361030  
     169    1.394898   170    1.407603   171    1.426361  
     172    1.456179   173    1.488009   174    1.499405  
     175    1.521310   176    1.525460   177    1.533764  
     178    1.549656   179    1.559290   180    1.575158  
     181    1.579586   182    1.588832   183    1.614512  
     184    1.623054   185    1.639264   186    1.648882  
     187    1.653982   188    1.669239   189    1.681207  
     190    1.698878   191    1.710005   192    1.712559  
     193    1.725017   194    1.732378   195    1.751823  
     196    1.781171   197    1.799843   198    1.812007  
     199    1.822307   200    1.833256   201    1.834687  
     202    1.846893   203    1.854940   204    1.873594  
     205    1.889468   206    1.910002   207    1.923296  
     208    1.939010   209    1.949048   210    1.955490  
     211    1.965484   212    1.970282   213    1.976648  
     214    1.987488   215    2.003905   216    2.014712  
     217    2.023186   218    2.024283   219    2.040805  
     220    2.045359   221    2.061688   222    2.067366  
     223    2.072565   224    2.094985   225    2.100767  
     226    2.106575   227    2.117548   228    2.125838  
     229    2.137639   230    2.154488   231    2.156162  
     232    2.171213   233    2.176060   234    2.187533  
     235    2.206721   236    2.218053   237    2.223029  
     238    2.231634   239    2.250836   240    2.261696  
     241    2.277649   242    2.306070   243    2.309600  
     244    2.317224   245    2.337323   246    2.349818  
     247    2.368107   248    2.377772   249    2.387878  
     250    2.393169   251    2.406686   252    2.419997  
     253    2.424213   254    2.428054   255    2.436396  
     256    2.456990   257    2.479989   258    2.490223  
     259    2.516971   260    2.533767   261    2.554596  
     262    2.580919   263    2.598257   264    2.615480  
     265    2.632936   266    2.645676   267    2.649801  
     268    2.664184   269    2.699738   270    2.712795  
     271    2.721834   272    2.737096   273    2.758003  
     274    2.777152   275    2.797802   276    2.812795  
     277    2.821159   278    2.840047   279    2.851193  
     280    2.863768   281    2.871083   282    2.884163  
     283    2.886586   284    2.904354   285    2.911790  
     286    2.929073   287    2.935455   288    2.949635  
     289    2.989132   290    2.991977   291    3.008091  
     292    3.018562   293    3.046480   294    3.080451  
     295    3.102148   296    3.133946   297    3.203335  
     298    3.266972   299    3.311570   300    3.360282  
     301    3.398329   302    3.420683   303    3.445591  
     304    3.530868   305    3.586078   306    3.593110  
     307    3.665015   308    3.695842   309    3.733722  
     310    3.789262   311    3.875007   312    3.876690  
     313    3.962516   314    3.975220   315    4.099311  
     316    4.133652   317    4.206047   318    4.442688  
     319    4.518879   320    4.548437   321    4.760641  
     322    4.937717   323    5.040925   324    5.069852  
     325    5.215165   326    5.339051   327    5.538653  
     328    5.641456   329    5.780423   330    5.849015  
     331    6.158136   332    6.362120   333    6.705532  
     334   13.374206   335   18.429951   336   33.422758  
     337   33.484526  

  ==> Frozen Core <==


    ------------------
    Range      A     B
    ------------------
    nbf      368   368
    nmo      337   337
    nocc      15    15
    nvir     322   322
    nfocc      4     4
    naocc     11    11
    navir    322   322
    nfvir      0     0
    ------------------

  ==> Unification <==

  ==> dHF <==

    E ABC(HF) =  -8.0027205849292318E+02 [Eh]
    E AC(0)   =  -5.7224020731563928E+02 [Eh]
    E BC(0)   =  -5.7223206070738081E+02 [Eh]
    E A(0)    =  -2.1266076970998284E+02 [Eh]
    E B(0)    =  -2.1266874057338759E+02 [Eh]
    E AC(HF)  =  -5.7222678917661051E+02 [Eh]
    E BC(HF)  =  -5.7222117007893905E+02 [Eh]
    E AB(HF)  =  -4.2529564838668790E+02 [Eh]
    E A(HF)   =  -2.1263870329967750E+02 [Eh]
    E B(HF)   =  -2.1264925458538363E+02 [Eh]
    E C       =  -3.4418359126424866E+02 [Eh]
    E HF      =   1.6618265848251212E-02 [Eh]

  ==> Electrostatics <==

    Elst10,r            =     0.011877136960 [Eh]

  ==> Exchange <==

    Exch10(S^2)         =     0.006961534191 [Eh]
    Exch10              =     0.006979524475 [Eh]

  ==> Induction <==

    Ind20,u (A<-B)      =    -0.001732306759 [Eh]
    Ind20,u (B<-A)      =    -0.001493124238 [Eh]
    Ind20,u             =    -0.003225430997 [Eh]
    Exch-Ind20,u (A<-B) =     0.000872075267 [Eh]
    Exch-Ind20,u (B<-A) =     0.000767920634 [Eh]
    Exch-Ind20,u        =     0.001639995901 [Eh]

  ==> CPHF Iterations <==

    Maxiter     =          50
    Convergence =   1.000E-08

    -----------------------------------------
    Iter   Monomer A    Monomer B    Time [s]
    -----------------------------------------
    1      2.193E-01    2.008E-01          12
    2      8.534E-02    7.541E-02          25
    3      2.181E-02    1.911E-02          37
    4      8.160E-03    7.683E-03          46
    5      2.266E-03    2.005E-03          58
    6      8.542E-04    7.198E-04          71
    7      2.503E-04    1.965E-04          83
    8      1.225E-04    7.851E-05          94
    9      3.542E-05    2.297E-05         107
    10     1.121E-05    8.163E-06         118
    11     2.748E-06    2.462E-06         131
    12     4.695E-07    5.425E-07         143
    13     1.184E-07    1.574E-07         155
    14     3.318E-08    4.500E-08         164
    15     6.400E-09*   8.725E-09*        172
    -----------------------------------------

    Ind20,r (A<-B)      =    -0.002036860364 [Eh]
    Ind20,r (B<-A)      =    -0.001706918821 [Eh]
    Ind20,r             =    -0.003743779186 [Eh]
    Exch-Ind20,r (A<-B) =     0.001109721589 [Eh]
    Exch-Ind20,r (B<-A) =     0.000926343013 [Eh]
    Exch-Ind20,r        =     0.002036064603 [Eh]

  ==> F-SAPT Localization (IBO) <==

  Local Orbitals for Monomer A:

  ==> IBO Localizer 2 <==

    MinAO Basis = CC-PVTZ-MINAO
    Use Ghosts  =       FALSE
    Use Stars   =       FALSE
    Condition   =   1.000E-07
    Power       =           4
    Convergence =   1.000E-12
    Maxiter     =        1000

    @IBO Iter:                   Metric       Gradient
    @IBO    1:   1.4806161854879458E+00   1.678952E+00
    @IBO    2:   1.6782288075878733E+00   9.420419E-01
    @IBO    3:   1.7094742105103680E+00   3.028633E-01
    @IBO    4:   1.7106288880669067E+00   3.139098E-03
    @IBO    5:   1.7106292205228886E+00   1.378947E-04
    @IBO    6:   1.7106292207485514E+00   2.082664E-06
    @IBO    7:   1.7106292207486238E+00   5.494679E-08
    @IBO    8:   1.7106292207486240E+00   1.276376E-09
    @IBO    9:   1.7106292207486240E+00   3.985725E-11
    @IBO   10:   1.7106292207486240E+00   1.579561E-12
    @IBO   11:   1.7106292207486240E+00   6.673902E-14

    IBO Localizer 2 converged.

  Local Orbitals for Monomer B:

  ==> IBO Localizer 2 <==

    MinAO Basis = CC-PVTZ-MINAO
    Use Ghosts  =       FALSE
    Use Stars   =       FALSE
    Condition   =   1.000E-07
    Power       =           4
    Convergence =   1.000E-12
    Maxiter     =        1000

    @IBO Iter:                   Metric       Gradient
    @IBO    1:   1.4792729898761863E+00   1.517952E+00
    @IBO    2:   1.6825030810453137E+00   8.690687E-01
    @IBO    3:   1.7093344307903489E+00   3.023573E-01
    @IBO    4:   1.7110208511895757E+00   5.281243E-03
    @IBO    5:   1.7110240514645054E+00   1.600195E-04
    @IBO    6:   1.7110240518207267E+00   1.429002E-06
    @IBO    7:   1.7110240518207627E+00   4.434518E-08
    @IBO    8:   1.7110240518207627E+00   1.571254E-09
    @IBO    9:   1.7110240518207627E+00   6.359455E-11
    @IBO   10:   1.7110240518207629E+00   2.637941E-12
    @IBO   11:   1.7110240518207627E+00   1.093574E-13

    IBO Localizer 2 converged.

  ==> F-SAPT Electrostatics <==

  ==> DFERI: Density Fitted 3-Index Tensors <==

    Schwarz cutoff =   0.000E+00
    J cutoff       =   1.000E-12
    Mem (GB)       =         628

   => Auxiliary Basis <=

  Basis Set: (JUN-CC-PVDZ AUX)
    Blend: JUN-CC-PVDZ-JKFIT
    Number of shells: 576
    Number of basis function: 1632
    Number of Cartesian functions: 1856
    Spherical Harmonics?: true
    Max angular momentum: 3

    Elst10,r            =     0.011877136049 [Eh]

  ==> F-SAPT Exchange <==

  ==> DFERI: Density Fitted 3-Index Tensors <==

    Schwarz cutoff =   0.000E+00
    J cutoff       =   1.000E-12
    Mem (GB)       =         628

   => Auxiliary Basis <=

  Basis Set: (JUN-CC-PVDZ AUX)
    Blend: JUN-CC-PVDZ-JKFIT
    Number of shells: 576
    Number of basis function: 1632
    Number of Cartesian functions: 1856
    Spherical Harmonics?: true
    Max angular momentum: 3

    Exch10(S^2)         =     0.006961534191 [Eh]

    Scaling F-SAPT Exch10(S^2) by   1.003E+00 to match Exch10

  ==> F-SAPT Induction <==

  ==> DFERI: Density Fitted 3-Index Tensors <==

    Schwarz cutoff =   0.000E+00
    J cutoff       =   1.000E-12
    Mem (GB)       =         628

   => Auxiliary Basis <=

  Basis Set: (JUN-CC-PVDZ AUX)
    Blend: JUN-CC-PVDZ-JKFIT
    Number of shells: 576
    Number of basis function: 1632
    Number of Cartesian functions: 1856
    Spherical Harmonics?: true
    Max angular momentum: 3

    Ind20,u (A<-B)      =    -0.001732306760 [Eh]
    Ind20,u (B<-A)      =    -0.001493124239 [Eh]
    Ind20,u             =    -0.003225430999 [Eh]
    Exch-Ind20,u (A<-B) =     0.000872075267 [Eh]
    Exch-Ind20,u (B<-A) =     0.000767920634 [Eh]
    Exch-Ind20,u        =     0.001639995901 [Eh]

    Scaling for delta HF        =   1.311E+00
    Scaling for response (A<-B) =   1.078E+00
    Scaling for response (B<-A) =   1.076E+00
    Scaling for total (A<-B)    =   1.413E+00
    Scaling for total (B<-A)    =   1.411E+00

  ==> F-SAPT Dispersion <==

  ==> DFERI: Density Fitted 3-Index Tensors <==

    Schwarz cutoff =   0.000E+00
    J cutoff       =   1.000E-12
    Mem (GB)       =         628

   => Auxiliary Basis <=

  Basis Set: (JUN-CC-PVDZ AUX)
    Blend: JUN-CC-PVDZ-RI
    Number of shells: 432
    Number of basis function: 1264
    Number of Cartesian functions: 1456
    Spherical Harmonics?: true
    Max angular momentum: 3

    Disp20              =    -0.005013277999 [Eh]
    Exch-Disp20         =     0.000525381421 [Eh]

  ==> F-SAPT Output <==

    F-SAPT Data Filepath = fsapt/

  ==> Results <==


    SAPT Results  
  --------------------------------------------------------------------------------------------------------
    Electrostatics                 11.87713696 [mEh]       7.45301628 [kcal/mol]      31.18342309 [kJ/mol]
      Elst10,r                     11.87713696 [mEh]       7.45301628 [kcal/mol]      31.18342309 [kJ/mol]

    Exchange                        6.97952447 [mEh]       4.37971791 [kcal/mol]      18.32474151 [kJ/mol]
      Exch10                        6.97952447 [mEh]       4.37971791 [kcal/mol]      18.32474151 [kJ/mol]
      Exch10(S^2)                   6.96153419 [mEh]       4.36842884 [kcal/mol]      18.27750802 [kJ/mol]

    Induction                      -2.23839559 [mEh]      -1.40461450 [kcal/mol]      -5.87690761 [kJ/mol]
      Ind20,r                      -3.74377919 [mEh]      -2.34925700 [kcal/mol]      -9.82929225 [kJ/mol]
      Exch-Ind20,r                  2.03606460 [mEh]       1.27764988 [kcal/mol]       5.34568761 [kJ/mol]
      delta HF,r (2)               -0.53068100 [mEh]      -0.33300737 [kcal/mol]      -1.39330297 [kJ/mol]
      Induction (A<-B)             -1.21525187 [mEh]      -0.76258209 [kcal/mol]      -3.19064379 [kJ/mol]
      Induction (B<-A)             -1.02314372 [mEh]      -0.64203240 [kcal/mol]      -2.68626383 [kJ/mol]

    Dispersion                     -4.48789658 [mEh]      -2.81619774 [kcal/mol]     -11.78297247 [kJ/mol]
      Disp20                       -5.01327800 [mEh]      -3.14587957 [kcal/mol]     -13.16236139 [kJ/mol]
      Exch-Disp20                   0.52538142 [mEh]       0.32968183 [kcal/mol]       1.37938892 [kJ/mol]

  Total HF                         16.61826585 [mEh]      10.42811969 [kcal/mol]      43.63125698 [kJ/mol]
  Total SAPT0                      12.13036927 [mEh]       7.61192196 [kcal/mol]      31.84828452 [kJ/mol]

  --------------------------------------------------------------------------------------------------------
    Han Solo: This is *not* gonna work.
    Luke Skywalker: Why didn't you say so before?
    Han Solo: I *did* say so before.

*** tstop() called on ThinkPad-P50 at Tue Dec 12 12:00:29 2017
Module time:
	user time   =     448.33 seconds =       7.47 minutes
	system time =       3.53 seconds =       0.06 minutes
	total time  =        452 seconds =       7.53 minutes
Total time:
	user time   =     666.19 seconds =      11.10 minutes
	system time =       5.30 seconds =       0.09 minutes
	total time  =        672 seconds =      11.20 minutes

*** Psi4 exiting successfully. Buy a developer a beer!
