
    -----------------------------------------------------------------------
          Psi4: An Open-Source Ab Initio Electronic Structure Package
                               Psi4 1.1 release

                         Git: Rev {HEAD} add49b9 


    R. M. Parrish, L. A. Burns, D. G. A. Smith, A. C. Simmonett,
    A. E. DePrince III, E. G. Hohenstein, U. Bozkaya, A. Yu. Sokolov,
    R. Di Remigio, R. M. Richard, J. F. Gonthier, A. M. James,
    H. R. McAlexander, A. Kumar, M. Saitow, X. Wang, B. P. Pritchard,
    P. Verma, H. F. Schaefer III, K. Patkowski, R. A. King, E. F. Valeev,
    F. A. Evangelista, J. M. Turney, T. D. Crawford, and C. D. Sherrill,
    J. Chem. Theory Comput. in press (2017).
    (doi: 10.1021/acs.jctc.7b00174)

    -----------------------------------------------------------------------


    Psi4 started on: Wednesday, 18 October 2017 07:23PM

    Process ID:  38108
    PSIDATADIR: /opt/software/psi4/psi4conda/share/psi4
    Memory:     500.0 MiB
    Threads:    48
    
  ==> Input File <==

--------------------------------------------------------------------------
memory 750000 mb

molecule mol {
0 1
C          2.29389       -1.87291       -0.31752
H          3.20250       -1.86702       -0.92306
H          2.48929       -2.43083        0.60139
H          1.51274       -2.38920       -0.87812
--
0 1
C         -0.43518       -1.37667        0.57393
O         -0.68269       -2.26901        1.34971
O         -0.97425       -1.28816       -0.65560
C         -1.92195       -2.30765       -1.01500
H         -2.27209       -2.03789       -2.00877
H         -1.44123       -3.28721       -1.03036
H         -2.74810       -2.32701       -0.30236
--
0 1
H          0.96089        2.25101       -1.34490
C         -1.24261        1.37199       -0.10563
O         -1.53397        1.89915       -1.14822
O         -2.15233        0.92808        0.79026
C         -3.53129        1.01468        0.38980
H         -3.69181        0.45676       -0.53435
H         -3.82137        2.05498        0.23466
H         -4.09916        0.57599        1.20731
C          0.16209        1.18464        0.43655
C          0.56565       -0.27377        0.84931
C          1.26947        1.53950       -0.58431
C          2.57009        1.85676        0.17915
C          2.98275        0.43327        0.65360
C          1.88362       -0.45323        0.00322
O          1.56779        0.27639       -1.19316
H          0.21750        1.82762        1.31960
H          0.77862       -0.34066        1.91468
H          3.31173        2.27758       -0.50135
H          2.42175        2.56464        0.99711
H          3.96121        0.14970        0.26221
H          3.01298        0.32714        1.73988

symmetry c1
no_reorient
no_com
}

set {
basis jun-cc-pvdz
scf_type df
guess sad
freeze_core true
}

energy('fisapt0')
--------------------------------------------------------------------------

  Memory set to 698.492 GiB by Python driver.

*** tstart() called on vega04.cac.cornell.edu
*** at Wed Oct 18 19:23:15 2017

   => Loading Basis Set <=

    Name: JUN-CC-PVDZ
    Role: ORBITAL
    Keyword: BASIS
    atoms 1, 5, 8, 13, 16, 20-25  entry C          line   157 file /opt/software/psi4/psi4conda/share/psi4/basis/jun-cc-pvdz.gbs 
    atoms 2-4, 9-12, 17-19, 27-32 entry H          line    35 file /opt/software/psi4/psi4conda/share/psi4/basis/jun-cc-pvdz.gbs 
    atoms 6-7, 14-15, 26          entry O          line   225 file /opt/software/psi4/psi4conda/share/psi4/basis/jun-cc-pvdz.gbs 


         ---------------------------------------------------------
                                   SCF
            by Justin Turney, Rob Parrish, and Andy Simmonett
                              RHF Reference
                       48 Threads, 715255 MiB Core
         ---------------------------------------------------------

  ==> Geometry <==

    Molecular point group: c1
    Full point group: C1

    Geometry (in Angstrom), charge = 0, multiplicity = 1:

       Center              X                  Y                   Z               Mass       
    ------------   -----------------  -----------------  -----------------  -----------------
           C          2.293890000000    -1.872910000000    -0.317520000000    12.000000000000
           H          3.202500000000    -1.867020000000    -0.923060000000     1.007825032070
           H          2.489290000000    -2.430830000000     0.601390000000     1.007825032070
           H          1.512740000000    -2.389200000000    -0.878120000000     1.007825032070
           C         -0.435180000000    -1.376670000000     0.573930000000    12.000000000000
           O         -0.682690000000    -2.269010000000     1.349710000000    15.994914619560
           O         -0.974250000000    -1.288160000000    -0.655600000000    15.994914619560
           C         -1.921950000000    -2.307650000000    -1.015000000000    12.000000000000
           H         -2.272090000000    -2.037890000000    -2.008770000000     1.007825032070
           H         -1.441230000000    -3.287210000000    -1.030360000000     1.007825032070
           H         -2.748100000000    -2.327010000000    -0.302360000000     1.007825032070
           H          0.960890000000     2.251010000000    -1.344900000000     1.007825032070
           C         -1.242610000000     1.371990000000    -0.105630000000    12.000000000000
           O         -1.533970000000     1.899150000000    -1.148220000000    15.994914619560
           O         -2.152330000000     0.928080000000     0.790260000000    15.994914619560
           C         -3.531290000000     1.014680000000     0.389800000000    12.000000000000
           H         -3.691810000000     0.456760000000    -0.534350000000     1.007825032070
           H         -3.821370000000     2.054980000000     0.234660000000     1.007825032070
           H         -4.099160000000     0.575990000000     1.207310000000     1.007825032070
           C          0.162090000000     1.184640000000     0.436550000000    12.000000000000
           C          0.565650000000    -0.273770000000     0.849310000000    12.000000000000
           C          1.269470000000     1.539500000000    -0.584310000000    12.000000000000
           C          2.570090000000     1.856760000000     0.179150000000    12.000000000000
           C          2.982750000000     0.433270000000     0.653600000000    12.000000000000
           C          1.883620000000    -0.453230000000     0.003220000000    12.000000000000
           O          1.567790000000     0.276390000000    -1.193160000000    15.994914619560
           H          0.217500000000     1.827620000000     1.319600000000     1.007825032070
           H          0.778620000000    -0.340660000000     1.914680000000     1.007825032070
           H          3.311730000000     2.277580000000    -0.501350000000     1.007825032070
           H          2.421750000000     2.564640000000     0.997110000000     1.007825032070
           H          3.961210000000     0.149700000000     0.262210000000     1.007825032070
           H          3.012980000000     0.327140000000     1.739880000000     1.007825032070

  Running in c1 symmetry.

  Rotational constants: A =      0.02598  B =      0.01727  C =      0.01271 [cm^-1]
  Rotational constants: A =    778.86379  B =    517.87897  C =    380.97388 [MHz]
  Nuclear repulsion = 1265.720975143771511

  Charge       = 0
  Multiplicity = 1
  Electrons    = 122
  Nalpha       = 61
  Nbeta        = 61

  ==> Algorithm <==

  SCF Algorithm Type is DF.
  DIIS enabled.
  MOM disabled.
  Fractional occupation disabled.
  Guess Type is SAD.
  Energy threshold   = 1.00e-08
  Density threshold  = 1.00e-08
  Integral threshold = 0.00e+00

  ==> Primary Basis <==

  Basis Set: JUN-CC-PVDZ
    Blend: JUN-CC-PVDZ
    Number of shells: 176
    Number of basis function: 368
    Number of Cartesian functions: 384
    Spherical Harmonics?: true
    Max angular momentum: 2

   => Loading Basis Set <=

    Name: (JUN-CC-PVDZ AUX)
    Role: JKFIT
    Keyword: DF_BASIS_SCF
    atoms 1, 5, 8, 13, 16, 20-25  entry C          line   145 file /opt/software/psi4/psi4conda/share/psi4/basis/jun-cc-pvdz-jkfit.gbs 
    atoms 2-4, 9-12, 17-19, 27-32 entry H          line    69 file /opt/software/psi4/psi4conda/share/psi4/basis/jun-cc-pvdz-jkfit.gbs 
    atoms 6-7, 14-15, 26          entry O          line   257 file /opt/software/psi4/psi4conda/share/psi4/basis/jun-cc-pvdz-jkfit.gbs 

  ==> Pre-Iterations <==

   -------------------------------------------------------
    Irrep   Nso     Nmo     Nalpha   Nbeta   Ndocc  Nsocc
   -------------------------------------------------------
     A        368     368       0       0       0       0
   -------------------------------------------------------
    Total     368     368      61      61      61       0
   -------------------------------------------------------

  ==> Integral Setup <==

  ==> DFJK: Density-Fitted J/K Matrices <==

    J tasked:                  Yes
    K tasked:                  Yes
    wK tasked:                  No
    OpenMP threads:             48
    Integrals threads:          48
    Memory (MB):            536441
    Algorithm:                Core
    Integral Cache:           NONE
    Schwarz Cutoff:          1E-12
    Fitting Condition:       1E-12

   => Auxiliary Basis Set <=

  Basis Set: (JUN-CC-PVDZ AUX)
    Blend: JUN-CC-PVDZ-JKFIT
    Number of shells: 576
    Number of basis function: 1632
    Number of Cartesian functions: 1856
    Spherical Harmonics?: true
    Max angular momentum: 3

  Minimum eigenvalue in the overlap matrix is 9.9985266159E-06.
  Using Symmetric Orthogonalization.

  SCF Guess: Superposition of Atomic Densities via on-the-fly atomic UHF.

  ==> Iterations <==

                           Total Energy        Delta E     RMS |[F,P]|

   @DF-RHF iter   0:  -807.12742278222652   -8.07127e+02   9.74225e-02 
   @DF-RHF iter   1:  -799.68928944102640    7.43813e+00   1.32308e-02 
   @DF-RHF iter   2:  -800.09609792994888   -4.06808e-01   7.74592e-03 DIIS
   @DF-RHF iter   3:  -800.25059658741702   -1.54499e-01   1.91522e-03 DIIS
   @DF-RHF iter   4:  -800.26937644446741   -1.87799e-02   7.97104e-04 DIIS
   @DF-RHF iter   5:  -800.27163749804299   -2.26105e-03   2.06657e-04 DIIS
   @DF-RHF iter   6:  -800.27198496982214   -3.47472e-04   1.28880e-04 DIIS
   @DF-RHF iter   7:  -800.27204615365918   -6.11838e-05   4.33332e-05 DIIS
   @DF-RHF iter   8:  -800.27205659613844   -1.04425e-05   1.21248e-05 DIIS
   @DF-RHF iter   9:  -800.27205817152446   -1.57539e-06   7.20346e-06 DIIS
   @DF-RHF iter  10:  -800.27205843251033   -2.60986e-07   2.55009e-06 DIIS
   @DF-RHF iter  11:  -800.27205847631308   -4.38027e-08   8.35846e-07 DIIS
   @DF-RHF iter  12:  -800.27205848354345   -7.23037e-09   3.59960e-07 DIIS
   @DF-RHF iter  13:  -800.27205848472931   -1.18587e-09   1.83059e-07 DIIS
   @DF-RHF iter  14:  -800.27205848495737   -2.28056e-10   8.08768e-08 DIIS
   @DF-RHF iter  15:  -800.27205848498897   -3.16049e-11   2.62592e-08 DIIS
   @DF-RHF iter  16:  -800.27205848499602   -7.04858e-12   1.08466e-08 DIIS
   @DF-RHF iter  17:  -800.27205848499011    5.91172e-12   3.55815e-09 DIIS

  ==> Post-Iterations <==

    Orbital Energies (a.u.)
    -----------------------

    Doubly Occupied:                                                      

       1A    -20.612648     2A    -20.610179     3A    -20.564965  
       4A    -20.557564     5A    -20.555918     6A    -11.393105  
       7A    -11.390589     8A    -11.306125     9A    -11.298267  
      10A    -11.296636    11A    -11.290918    12A    -11.267679  
      13A    -11.266041    14A    -11.240997    15A    -11.239787  
      16A    -11.232281    17A     -1.472110    18A     -1.464256  
      19A     -1.403404    20A     -1.368466    21A     -1.365826  
      22A     -1.115852    23A     -1.064526    24A     -1.051769  
      25A     -0.992318    26A     -0.972182    27A     -0.939334  
      28A     -0.887742    29A     -0.821132    30A     -0.799191  
      31A     -0.769502    32A     -0.765733    33A     -0.721141  
      34A     -0.702932    35A     -0.695785    36A     -0.679186  
      37A     -0.671899    38A     -0.666781    39A     -0.664192  
      40A     -0.649872    41A     -0.626705    42A     -0.598649  
      43A     -0.589012    44A     -0.584327    45A     -0.572047  
      46A     -0.554679    47A     -0.543875    48A     -0.535869  
      49A     -0.533895    50A     -0.526939    51A     -0.520251  
      52A     -0.510942    53A     -0.500414    54A     -0.493570  
      55A     -0.477352    56A     -0.472926    57A     -0.465976  
      58A     -0.463419    59A     -0.449925    60A     -0.434983  
      61A     -0.424667  

    Virtual:                                                              

      62A      0.051370    63A      0.052828    64A      0.057386  
      65A      0.068344    66A      0.073835    67A      0.075467  
      68A      0.088392    69A      0.093682    70A      0.098783  
      71A      0.101760    72A      0.107728    73A      0.118261  
      74A      0.121200    75A      0.124950    76A      0.128978  
      77A      0.135898    78A      0.140101    79A      0.141721  
      80A      0.150368    81A      0.158845    82A      0.161865  
      83A      0.168219    84A      0.173835    85A      0.176428  
      86A      0.180654    87A      0.184809    88A      0.185264  
      89A      0.194943    90A      0.198841    91A      0.203580  
      92A      0.213137    93A      0.217725    94A      0.220304  
      95A      0.229680    96A      0.232709    97A      0.233879  
      98A      0.242803    99A      0.249125   100A      0.255236  
     101A      0.258983   102A      0.262141   103A      0.264802  
     104A      0.277790   105A      0.279929   106A      0.291140  
     107A      0.299403   108A      0.304717   109A      0.312811  
     110A      0.314419   111A      0.322103   112A      0.329375  
     113A      0.333804   114A      0.340263   115A      0.343849  
     116A      0.347961   117A      0.355179   118A      0.360408  
     119A      0.361933   120A      0.374823   121A      0.375973  
     122A      0.381807   123A      0.385076   124A      0.389442  
     125A      0.390830   126A      0.398423   127A      0.402434  
     128A      0.407961   129A      0.413760   130A      0.420617  
     131A      0.425070   132A      0.428978   133A      0.431478  
     134A      0.443622   135A      0.448368   136A      0.450019  
     137A      0.456400   138A      0.465917   139A      0.469558  
     140A      0.473243   141A      0.482109   142A      0.492303  
     143A      0.505322   144A      0.513198   145A      0.519303  
     146A      0.525872   147A      0.529033   148A      0.541263  
     149A      0.552187   150A      0.554108   151A      0.570185  
     152A      0.574035   153A      0.592517   154A      0.605572  
     155A      0.616487   156A      0.626045   157A      0.659565  
     158A      0.667066   159A      0.693354   160A      0.733468  
     161A      0.757851   162A      0.768050   163A      0.781212  
     164A      0.789678   165A      0.794179   166A      0.815937  
     167A      0.825502   168A      0.838248   169A      0.857557  
     170A      0.866836   171A      0.869107   172A      0.876401  
     173A      0.889930   174A      0.897917   175A      0.907965  
     176A      0.909202   177A      0.917718   178A      0.920659  
     179A      0.925574   180A      0.932736   181A      0.938182  
     182A      0.945197   183A      0.957070   184A      0.961760  
     185A      0.965414   186A      0.966674   187A      0.973222  
     188A      0.976337   189A      0.981298   190A      0.992801  
     191A      0.996527   192A      0.998655   193A      1.017707  
     194A      1.024718   195A      1.041764   196A      1.045277  
     197A      1.064507   198A      1.076214   199A      1.078014  
     200A      1.088033   201A      1.103998   202A      1.107055  
     203A      1.112738   204A      1.123373   205A      1.139945  
     206A      1.145851   207A      1.172378   208A      1.185235  
     209A      1.234565   210A      1.249320   211A      1.259598  
     212A      1.284273   213A      1.289085   214A      1.301796  
     215A      1.327180   216A      1.356510   217A      1.373629  
     218A      1.392320   219A      1.411068   220A      1.420128  
     221A      1.440695   222A      1.473844   223A      1.487281  
     224A      1.489977   225A      1.509114   226A      1.511670  
     227A      1.520227   228A      1.537027   229A      1.561578  
     230A      1.580287   231A      1.587029   232A      1.592994  
     233A      1.600964   234A      1.606149   235A      1.622544  
     236A      1.634524   237A      1.644661   238A      1.653386  
     239A      1.660837   240A      1.664473   241A      1.680155  
     242A      1.691137   243A      1.693447   244A      1.707150  
     245A      1.722938   246A      1.729631   247A      1.750705  
     248A      1.755702   249A      1.776445   250A      1.790065  
     251A      1.812844   252A      1.826565   253A      1.839361  
     254A      1.849826   255A      1.867500   256A      1.872703  
     257A      1.886647   258A      1.893866   259A      1.916954  
     260A      1.927274   261A      1.936510   262A      1.938900  
     263A      1.951817   264A      1.958177   265A      1.964286  
     266A      1.978882   267A      1.984910   268A      1.997145  
     269A      2.003777   270A      2.012404   271A      2.025367  
     272A      2.026526   273A      2.039416   274A      2.047051  
     275A      2.048579   276A      2.058848   277A      2.067917  
     278A      2.075254   279A      2.088662   280A      2.090620  
     281A      2.103061   282A      2.118296   283A      2.134393  
     284A      2.152297   285A      2.159477   286A      2.162398  
     287A      2.167506   288A      2.177000   289A      2.192691  
     290A      2.219008   291A      2.227717   292A      2.237800  
     293A      2.264446   294A      2.282845   295A      2.303783  
     296A      2.310666   297A      2.316639   298A      2.324819  
     299A      2.346976   300A      2.369618   301A      2.379502  
     302A      2.391686   303A      2.394414   304A      2.403756  
     305A      2.423574   306A      2.425406   307A      2.436906  
     308A      2.451137   309A      2.464189   310A      2.469879  
     311A      2.490282   312A      2.497580   313A      2.544599  
     314A      2.566311   315A      2.608221   316A      2.610509  
     317A      2.621078   318A      2.637752   319A      2.660173  
     320A      2.716376   321A      2.721680   322A      2.737163  
     323A      2.766319   324A      2.779352   325A      2.793284  
     326A      2.799982   327A      2.809073   328A      2.825814  
     329A      2.851522   330A      2.870124   331A      2.872316  
     332A      2.874071   333A      2.882155   334A      2.895788  
     335A      2.903894   336A      2.931032   337A      2.955975  
     338A      2.980175   339A      2.997176   340A      3.001583  
     341A      3.015059   342A      3.022565   343A      3.067137  
     344A      3.107657   345A      3.143053   346A      3.184845  
     347A      3.256529   348A      3.260826   349A      3.293873  
     350A      3.313301   351A      3.379911   352A      3.382465  
     353A      3.399486   354A      3.428528   355A      3.477585  
     356A      3.537914   357A      3.560738   358A      3.587850  
     359A      3.680440   360A      3.688246   361A      3.693419  
     362A      3.780077   363A      3.812904   364A      3.849156  
     365A      3.944906   366A      3.957777   367A      4.092838  
     368A      4.104789  

    Final Occupation by Irrep:
              A 
    DOCC [    61 ]

  Energy converged.

  @DF-RHF Final Energy:  -800.27205848499011

   => Energetics <=

    Nuclear Repulsion Energy =           1265.7209751437715113
    One-Electron Energy =               -3610.5675666302927311
    Two-Electron Energy =                1544.5745330015308809
    DFT Exchange-Correlation Energy =       0.0000000000000000
    Empirical Dispersion Energy =           0.0000000000000000
    PCM Polarization Energy =               0.0000000000000000
    EFP Energy =                            0.0000000000000000
    Total Energy =                       -800.2720584849901115



Properties will be evaluated at   0.000000,   0.000000,   0.000000 Bohr

Properties computed using the SCF density matrix

  Nuclear Dipole Moment: (a.u.)
     X:     2.2129      Y:     1.6570      Z:     0.5217

  Electronic Dipole Moment: (a.u.)
     X:    -2.1142      Y:    -1.4254      Z:    -0.0049

  Dipole Moment: (a.u.)
     X:     0.0987      Y:     0.2316      Z:     0.5168     Total:     0.5749

  Dipole Moment: (Debye)
     X:     0.2509      Y:     0.5888      Z:     1.3137     Total:     1.4613


*** tstop() called on vega04.cac.cornell.edu at Wed Oct 18 19:24:11 2017
Module time:
	user time   =     747.89 seconds =      12.46 minutes
	system time =       6.49 seconds =       0.11 minutes
	total time  =         56 seconds =       0.93 minutes
Total time:
	user time   =     747.89 seconds =      12.46 minutes
	system time =       6.49 seconds =       0.11 minutes
	total time  =         56 seconds =       0.93 minutes
   => Loading Basis Set <=

    Name: (JUN-CC-PVDZ AUX)
    Role: JKFIT
    Keyword: DF_BASIS_SCF
    atoms 1, 5, 8, 13, 16, 20-25  entry C          line   145 file /opt/software/psi4/psi4conda/share/psi4/basis/jun-cc-pvdz-jkfit.gbs 
    atoms 2-4, 9-12, 17-19, 27-32 entry H          line    69 file /opt/software/psi4/psi4conda/share/psi4/basis/jun-cc-pvdz-jkfit.gbs 
    atoms 6-7, 14-15, 26          entry O          line   257 file /opt/software/psi4/psi4conda/share/psi4/basis/jun-cc-pvdz-jkfit.gbs 

   => Loading Basis Set <=

    Name: (JUN-CC-PVDZ AUX)
    Role: RIFIT
    Keyword: DF_BASIS_SAPT
    atoms 1, 5, 8, 13, 16, 20-25  entry C          line    99 file /opt/software/psi4/psi4conda/share/psi4/basis/jun-cc-pvdz-ri.gbs 
    atoms 2-4, 9-12, 17-19, 27-32 entry H          line    29 file /opt/software/psi4/psi4conda/share/psi4/basis/jun-cc-pvdz-ri.gbs 
    atoms 6-7, 14-15, 26          entry O          line   187 file /opt/software/psi4/psi4conda/share/psi4/basis/jun-cc-pvdz-ri.gbs 

   => Loading Basis Set <=

    Name: CC-PVTZ-MINAO
    Role: ORBITAL
    Keyword: BASIS
    atoms 1, 5, 8, 13, 16, 20-25  entry C          line   130 file /opt/software/psi4/psi4conda/share/psi4/basis/cc-pvtz-minao.gbs 
    atoms 2-4, 9-12, 17-19, 27-32 entry H          line    19 file /opt/software/psi4/psi4conda/share/psi4/basis/cc-pvtz-minao.gbs 
    atoms 6-7, 14-15, 26          entry O          line   190 file /opt/software/psi4/psi4conda/share/psi4/basis/cc-pvtz-minao.gbs 


*** tstart() called on vega04.cac.cornell.edu
*** at Wed Oct 18 19:24:12 2017

	 --------------------------------------------
	                    FISAPT0                  
	                  Rob Parrish                
	 --------------------------------------------

    Do F-SAPT =         Yes
    Do Plot   =          No
    Memory    =      78.580 [GD]

  ==> Localization (IBO) <==

  ==> IBO Localizer 2 <==

    MinAO Basis = CC-PVTZ-MINAO
    Use Ghosts  =       FALSE
    Use Stars   =       FALSE
    Condition   =   1.000E-07
    Power       =           4
    Convergence =   1.000E-12
    Maxiter     =        1000

    @IBO Iter:                   Metric       Gradient
    @IBO    1:   1.9846986997120117E+00   2.846985E+00
    @IBO    2:   2.2093913815760593E+00   2.711933E+00
    @IBO    3:   2.3120515903149230E+00   1.233407E+00
    @IBO    4:   2.3316245888955534E+00   2.584713E-01
    @IBO    5:   2.3325536848409119E+00   6.318828E-03
    @IBO    6:   2.3325543086089269E+00   9.508243E-05
    @IBO    7:   2.3325543087111753E+00   1.966338E-06
    @IBO    8:   2.3325543087112290E+00   5.508918E-08
    @IBO    9:   2.3325543087112290E+00   1.687475E-09
    @IBO   10:   2.3325543087112290E+00   6.407850E-11
    @IBO   11:   2.3325543087112295E+00   2.905999E-12
    @IBO   12:   2.3325543087112295E+00   1.349350E-13

    IBO Localizer 2 converged.

  ==> Partitioning <==

   => Atomic Partitioning <= 

    Monomer A:   4 atoms
    Monomer B:   7 atoms
    Monomer C:  21 atoms

   => Link Bond Identification <=

    Link Bond Selection = AUTOMATIC

    Charge Completeness = 0.800

    Total Link Bonds = 2

    --------------------------
    N     Orb Type Aind1 Aind2
    --------------------------
    1      25   BC     5    21
    2      57   AC     1    25
    --------------------------

   => Link Bond Assignment <=

    Link Bond Assignment      = C

   => Partition Summary <=

    Monomer A:  0 charge,   8 protons,   8 electrons,   4 docc
    Monomer B:  0 charge,  30 protons,  30 electrons,  15 docc
    Monomer C:  0 charge,  84 protons,  84 electrons,  42 docc

  ==> Overlap Integrals <==

  ==> Kinetic Integrals <==

  ==> Nuclear Integrals <==

    Nuclear Repulsion Tot:   1.2657209751437711E+03 [Eh]

  ==> Coulomb Integrals <==

  ==> DFJK: Density-Fitted J/K Matrices <==

    J tasked:                  Yes
    K tasked:                  Yes
    wK tasked:                  No
    OpenMP threads:             48
    Integrals threads:          48
    Memory (MB):            643730
    Algorithm:                Core
    Integral Cache:           NONE
    Schwarz Cutoff:          1E-12
    Fitting Condition:       1E-12

   => Auxiliary Basis Set <=

  Basis Set: (JUN-CC-PVDZ AUX)
    Blend: JUN-CC-PVDZ-JKFIT
    Number of shells: 576
    Number of basis function: 1632
    Number of Cartesian functions: 1856
    Spherical Harmonics?: true
    Max angular momentum: 3

  ==> Relaxed SCF Equations <==

  ==> SCF A: <==

    Maxiter =          50
    E Tol   =   1.000E-06
    D Tol   =   1.000E-08

    Max DIIS Vectors = 5

    Iter   N:                        E          dE         |D|
    Iter   1:  -3.6225722149557200E+01  -3.623E+01   1.174E-03 
    Iter   2:  -3.6227531413026881E+01  -1.809E-03   1.153E-04 DIIS
    Iter   3:  -3.6227567036747693E+01  -3.562E-05   2.180E-05 DIIS
    Iter   4:  -3.6227568662323186E+01  -1.626E-06   5.509E-06 DIIS
    Iter   5:  -3.6227568753962586E+01  -9.164E-08   9.721E-07 DIIS
    Iter   6:  -3.6227568757300489E+01  -3.338E-09   1.538E-07 DIIS
    Iter   7:  -3.6227568757390195E+01  -8.971E-11   1.561E-08 DIIS
    Iter   8:  -3.6227568757391801E+01  -1.606E-12   2.716E-09 DIIS

    FISAPTSCF Converged.

    Final SCF Energy:  -3.6227568757391801E+01 [Eh]

   => Occupied Orbital Energies <=

       1  -11.223221     2   -0.840037     3   -0.551979  
       4   -0.547119  

   => Virtual Orbital Energies <=

       5    0.030803     6    0.053678     7    0.059545  
       8    0.066309     9    0.067100    10    0.076571  
      11    0.083104    12    0.089136    13    0.098408  
      14    0.100801    15    0.102168    16    0.108699  
      17    0.114694    18    0.120170    19    0.123675  
      20    0.129617    21    0.135553    22    0.142446  
      23    0.146977    24    0.152322    25    0.154895  
      26    0.167194    27    0.173106    28    0.177031  
      29    0.180278    30    0.186368    31    0.189258  
      32    0.196518    33    0.197823    34    0.200851  
      35    0.211729    36    0.219807    37    0.221571  
      38    0.231257    39    0.232169    40    0.236357  
      41    0.245715    42    0.247738    43    0.257681  
      44    0.261593    45    0.264110    46    0.265246  
      47    0.277317    48    0.278699    49    0.289868  
      50    0.295994    51    0.300164    52    0.306925  
      53    0.314520    54    0.323835    55    0.325096  
      56    0.332050    57    0.336961    58    0.342117  
      59    0.354678    60    0.356165    61    0.356630  
      62    0.363043    63    0.370770    64    0.374772  
      65    0.384721    66    0.390715    67    0.395585  
      68    0.396479    69    0.400153    70    0.407600  
      71    0.414047    72    0.417219    73    0.423904  
      74    0.427724    75    0.436750    76    0.442522  
      77    0.449237    78    0.450780    79    0.458795  
      80    0.471879    81    0.479419    82    0.486545  
      83    0.498522    84    0.502801    85    0.508888  
      86    0.515671    87    0.518317    88    0.530704  
      89    0.544791    90    0.551047    91    0.556682  
      92    0.573651    93    0.580532    94    0.586117  
      95    0.604758    96    0.611535    97    0.617888  
      98    0.623209    99    0.635732   100    0.637425  
     101    0.656803   102    0.687869   103    0.697952  
     104    0.720997   105    0.767474   106    0.774066  
     107    0.786275   108    0.799082   109    0.811545  
     110    0.822976   111    0.843737   112    0.846632  
     113    0.855275   114    0.874568   115    0.884452  
     116    0.891769   117    0.906302   118    0.909417  
     119    0.920395   120    0.928647   121    0.935136  
     122    0.939335   123    0.949738   124    0.957743  
     125    0.966918   126    0.969587   127    0.979922  
     128    0.980923   129    0.986939   130    1.000049  
     131    1.005961   132    1.016688   133    1.026182  
     134    1.031043   135    1.040297   136    1.052609  
     137    1.062521   138    1.070078   139    1.077068  
     140    1.084452   141    1.100523   142    1.111805  
     143    1.114856   144    1.122802   145    1.135612  
     146    1.146832   147    1.152270   148    1.163994  
     149    1.181163   150    1.198226   151    1.230116  
     152    1.252306   153    1.275851   154    1.282993  
     155    1.311875   156    1.351103   157    1.361497  
     158    1.394453   159    1.407924   160    1.425985  
     161    1.456239   162    1.488067   163    1.499642  
     164    1.520949   165    1.525023   166    1.533640  
     167    1.549549   168    1.559303   169    1.574724  
     170    1.579018   171    1.588194   172    1.614085  
     173    1.622650   174    1.638496   175    1.649024  
     176    1.653707   177    1.668718   178    1.680473  
     179    1.698490   180    1.710008   181    1.712160  
     182    1.724844   183    1.731448   184    1.751817  
     185    1.780878   186    1.799309   187    1.812324  
     188    1.821631   189    1.832490   190    1.834561  
     191    1.846729   192    1.854781   193    1.873241  
     194    1.889409   195    1.909239   196    1.922712  
     197    1.938789   198    1.948466   199    1.955623  
     200    1.965034   201    1.970272   202    1.976931  
     203    1.986556   204    2.003544   205    2.013516  
     206    2.022282   207    2.023162   208    2.040176  
     209    2.044573   210    2.061856   211    2.066882  
     212    2.072280   213    2.094614   214    2.100309  
     215    2.106236   216    2.117108   217    2.125574  
     218    2.137264   219    2.154099   220    2.155962  
     221    2.170379   222    2.175903   223    2.186942  
     224    2.206146   225    2.218196   226    2.223124  
     227    2.231782   228    2.250612   229    2.261588  
     230    2.277399   231    2.305968   232    2.309661  
     233    2.316646   234    2.337066   235    2.349419  
     236    2.367607   237    2.377608   238    2.386578  
     239    2.393337   240    2.406520   241    2.419552  
     242    2.423821   243    2.427831   244    2.435354  
     245    2.456458   246    2.479624   247    2.490203  
     248    2.517079   249    2.533992   250    2.554604  
     251    2.581190   252    2.598092   253    2.615722  
     254    2.632674   255    2.645214   256    2.650217  
     257    2.663915   258    2.699410   259    2.712786  
     260    2.721345   261    2.736598   262    2.757429  
     263    2.776165   264    2.796693   265    2.811489  
     266    2.820400   267    2.839401   268    2.850378  
     269    2.862940   270    2.870637   271    2.882590  
     272    2.885921   273    2.904073   274    2.910766  
     275    2.928477   276    2.934471   277    2.948285  
     278    2.988646   279    2.991639   280    3.007727  
     281    3.018668   282    3.046214   283    3.079987  
     284    3.101774   285    3.133137   286    3.203198  
     287    3.268980   288    3.312941   289    3.360393  
     290    3.399711   291    3.420030   292    3.444077  
     293    3.529597   294    3.586094   295    3.593357  
     296    3.664445   297    3.697319   298    3.733231  
     299    3.791961   300    3.873755   301    3.876388  
     302    3.963927   303    3.974920   304    4.098792  
     305    4.133939   306    4.206456   307    4.442153  
     308    4.518671   309    4.548254   310    4.760673  
     311    4.937784   312    5.040536   313    5.069343  
     314    5.214824   315    5.338528   316    5.538937  
     317    5.641485   318    5.779084   319    5.848942  
     320    6.157521   321    6.361670   322    6.705860  
     323   13.374217   324   18.429489   325   33.423195  
     326   33.484275  

  ==> SCF B: <==

    Maxiter =          50
    E Tol   =   1.000E-06
    D Tol   =   1.000E-08

    Max DIIS Vectors = 5

    Iter   N:                        E          dE         |D|
    Iter   1:  -2.2420786374513878E+02  -2.242E+02   2.060E-03 
    Iter   2:  -2.2421444604696779E+02  -6.582E-03   1.987E-04 DIIS
    Iter   3:  -2.2421461469769375E+02  -1.687E-04   6.505E-05 DIIS
    Iter   4:  -2.2421462633528202E+02  -1.164E-05   3.641E-05 DIIS
    Iter   5:  -2.2421462890076293E+02  -2.565E-06   3.319E-06 DIIS
    Iter   6:  -2.2421462898398036E+02  -8.322E-08   2.417E-06 DIIS
    Iter   7:  -2.2421462900071577E+02  -1.674E-08   7.434E-07 DIIS
    Iter   8:  -2.2421462900409361E+02  -3.378E-09   2.643E-07 DIIS
    Iter   9:  -2.2421462900462129E+02  -5.277E-10   1.056E-07 DIIS
    Iter  10:  -2.2421462900470965E+02  -8.836E-11   4.315E-08 DIIS
    Iter  11:  -2.2421462900472119E+02  -1.154E-11   2.559E-08 DIIS
    Iter  12:  -2.2421462900472167E+02  -4.832E-13   6.692E-09 DIIS

    FISAPTSCF Converged.

    Final SCF Energy:  -2.2421462900472167E+02 [Eh]

   => Occupied Orbital Energies <=

       1  -20.606136     2  -20.551805     3  -11.387300  
       4  -11.294566     5   -1.439837     6   -1.358938  
       7   -0.962727     8   -0.766640     9   -0.671855  
      10   -0.664044    11   -0.621869    12   -0.543427  
      13   -0.536252    14   -0.475506    15   -0.461828  

   => Virtual Orbital Energies <=

      16    0.009373    17    0.052898    18    0.057942  
      19    0.068146    20    0.068506    21    0.076525  
      22    0.087877    23    0.090613    24    0.095833  
      25    0.097987    26    0.103142    27    0.105787  
      28    0.117944    29    0.122021    30    0.125346  
      31    0.129684    32    0.137410    33    0.138672  
      34    0.145275    35    0.152203    36    0.163123  
      37    0.166608    38    0.170602    39    0.174656  
      40    0.180819    41    0.183784    42    0.185159  
      43    0.190327    44    0.195625    45    0.203889  
      46    0.208053    47    0.214173    48    0.219810  
      49    0.223841    50    0.228014    51    0.236151  
      52    0.243411    53    0.245562    54    0.253484  
      55    0.255712    56    0.262482    57    0.267287  
      58    0.275200    59    0.286955    60    0.298832  
      61    0.303269    62    0.303858    63    0.317365  
      64    0.317654    65    0.322806    66    0.332542  
      67    0.335329    68    0.340441    69    0.343483  
      70    0.346645    71    0.353621    72    0.364161  
      73    0.370155    74    0.373598    75    0.377197  
      76    0.384601    77    0.389266    78    0.393983  
      79    0.394874    80    0.400662    81    0.411147  
      82    0.415594    83    0.417683    84    0.423193  
      85    0.424861    86    0.429739    87    0.436016  
      88    0.448758    89    0.452570    90    0.456858  
      91    0.460737    92    0.466890    93    0.474488  
      94    0.480933    95    0.491307    96    0.501423  
      97    0.510759    98    0.518466    99    0.530254  
     100    0.534314   101    0.539125   102    0.548781  
     103    0.558043   104    0.566895   105    0.577106  
     106    0.584905   107    0.604002   108    0.605264  
     109    0.621501   110    0.627991   111    0.633899  
     112    0.654913   113    0.662926   114    0.692302  
     115    0.697587   116    0.712324   117    0.748420  
     118    0.774001   119    0.793810   120    0.805789  
     121    0.821546   122    0.828513   123    0.843453  
     124    0.863262   125    0.874044   126    0.885274  
     127    0.890205   128    0.906286   129    0.907531  
     130    0.915794   131    0.920965   132    0.928917  
     133    0.934992   134    0.945917   135    0.951369  
     136    0.955368   137    0.960106   138    0.971515  
     139    0.979438   140    0.980530   141    0.983988  
     142    0.993329   143    1.001863   144    1.004521  
     145    1.016943   146    1.022753   147    1.040282  
     148    1.056786   149    1.073944   150    1.082965  
     151    1.086429   152    1.094591   153    1.116214  
     154    1.122607   155    1.129998   156    1.134597  
     157    1.154336   158    1.174925   159    1.207071  
     160    1.243613   161    1.260995   162    1.265344  
     163    1.286567   164    1.303409   165    1.338762  
     166    1.345898   167    1.367133   168    1.376498  
     169    1.394202   170    1.419976   171    1.424601  
     172    1.457954   173    1.471604   174    1.485261  
     175    1.499700   176    1.505306   177    1.512367  
     178    1.525754   179    1.534099   180    1.554439  
     181    1.562637   182    1.573483   183    1.585627  
     184    1.601573   185    1.611849   186    1.617682  
     187    1.621627   188    1.632027   189    1.652561  
     190    1.658982   191    1.664373   192    1.678145  
     193    1.698376   194    1.702132   195    1.711670  
     196    1.723162   197    1.740190   198    1.742908  
     199    1.749210   200    1.767498   201    1.786485  
     202    1.803395   203    1.816541   204    1.849139  
     205    1.859755   206    1.866423   207    1.875300  
     208    1.882479   209    1.888632   210    1.897951  
     211    1.913245   212    1.926108   213    1.939960  
     214    1.942578   215    1.951506   216    1.961475  
     217    1.968990   218    1.979193   219    1.998193  
     220    2.004631   221    2.010838   222    2.016954  
     223    2.023809   224    2.040053   225    2.043932  
     226    2.047607   227    2.050918   228    2.064633  
     229    2.072615   230    2.080763   231    2.093627  
     232    2.105110   233    2.109846   234    2.125771  
     235    2.134355   236    2.155188   237    2.170230  
     238    2.179832   239    2.186586   240    2.202253  
     241    2.217411   242    2.229784   243    2.234207  
     244    2.256287   245    2.273859   246    2.287127  
     247    2.300544   248    2.313330   249    2.320460  
     250    2.342269   251    2.367565   252    2.381608  
     253    2.393946   254    2.403024   255    2.409686  
     256    2.417411   257    2.426424   258    2.432183  
     259    2.444363   260    2.457845   261    2.468398  
     262    2.474699   263    2.491656   264    2.534946  
     265    2.546964   266    2.560047   267    2.572421  
     268    2.586131   269    2.621959   270    2.636778  
     271    2.640658   272    2.652956   273    2.700436  
     274    2.704580   275    2.728160   276    2.742802  
     277    2.782330   278    2.792772   279    2.805332  
     280    2.813217   281    2.816092   282    2.839952  
     283    2.859879   284    2.871058   285    2.877732  
     286    2.888247   287    2.895189   288    2.902064  
     289    2.964202   290    2.978975   291    2.989638  
     292    3.012493   293    3.021688   294    3.029970  
     295    3.041278   296    3.074371   297    3.091353  
     298    3.120966   299    3.156048   300    3.199352  
     301    3.261104   302    3.265577   303    3.299766  
     304    3.318882   305    3.390224   306    3.394765  
     307    3.419838   308    3.459929   309    3.499386  
     310    3.564850   311    3.577392   312    3.593468  
     313    3.687714   314    3.692536   315    3.712019  
     316    3.784037   317    3.812299   318    3.877780  
     319    3.903382   320    3.950767   321    3.963566  
     322    4.098719   323    4.111164   324    4.530154  
     325    4.537672   326   13.285261  

  ==> Frozen Core <==


    ------------------
    Range      A     B
    ------------------
    nbf      368   368
    nmo      326   326
    nocc       4    15
    nvir     322   311
    nfocc      1     4
    naocc      3    11
    navir    322   311
    nfvir      0     0
    ------------------

  ==> Unification <==

  ==> dHF <==

    E ABC(HF) =  -8.0027205848499011E+02 [Eh]
    E AC(0)   =  -5.7222301672318281E+02 [Eh]
    E BC(0)   =  -7.6010986209411794E+02 [Eh]
    E A(0)    =  -2.5033886268437936E+01 [Eh]
    E B(0)    =  -2.1265250212129848E+02 [Eh]
    E AC(HF)  =  -5.7222117011534874E+02 [Eh]
    E BC(HF)  =  -7.6010309683453715E+02 [Eh]
    E AB(HF)  =  -2.3765784062284570E+02 [Eh]
    E A(HF)   =  -2.5020923269112895E+01 [Eh]
    E B(HF)   =  -2.1263870329923594E+02 [Eh]
    E C       =  -5.3205042251938812E+02 [Eh]
    E HF      =   1.0397812922519734E-02 [Eh]

  ==> Electrostatics <==

    Elst10,r            =     0.008535311021 [Eh]

  ==> Exchange <==

    Exch10(S^2)         =     0.002881376452 [Eh]
    Exch10              =     0.002886380460 [Eh]

  ==> Induction <==

    Ind20,u (A<-B)      =    -0.001031223102 [Eh]
    Ind20,u (B<-A)      =    -0.000396148536 [Eh]
    Ind20,u             =    -0.001427371638 [Eh]
    Exch-Ind20,u (A<-B) =     0.000473398610 [Eh]
    Exch-Ind20,u (B<-A) =     0.000166612533 [Eh]
    Exch-Ind20,u        =     0.000640011143 [Eh]

  ==> CPHF Iterations <==

    Maxiter     =          50
    Convergence =   1.000E-08

    -----------------------------------------
    Iter   Monomer A    Monomer B    Time [s]
    -----------------------------------------
    1      1.642E-01    2.612E-01           0
    2      2.967E-02    8.685E-02           1
    3      5.236E-03    2.431E-02           2
    4      7.706E-04    1.083E-02           3
    5      1.047E-04    3.570E-03           4
    6      1.443E-05    1.238E-03           5
    7      2.049E-06    3.797E-04           6
    8      2.880E-07    1.387E-04           6
    9      3.743E-08    2.903E-05           7
    10     3.940E-09*   8.687E-06           8
    11     3.940E-09*   2.196E-06           9
    12     3.940E-09*   6.229E-07           9
    13     3.940E-09*   2.052E-07          10
    14     3.940E-09*   5.101E-08          10
    15     3.940E-09*   1.005E-08          11
    16     3.940E-09*   2.602E-09*         11
    -----------------------------------------

    Ind20,r (A<-B)      =    -0.001209392619 [Eh]
    Ind20,r (B<-A)      =    -0.000450444722 [Eh]
    Ind20,r             =    -0.001659837341 [Eh]
    Exch-Ind20,r (A<-B) =     0.000596296642 [Eh]
    Exch-Ind20,r (B<-A) =     0.000209152029 [Eh]
    Exch-Ind20,r        =     0.000805448671 [Eh]

  ==> F-SAPT Localization (IBO) <==

  Local Orbitals for Monomer A:

  ==> IBO Localizer 2 <==

    MinAO Basis = CC-PVTZ-MINAO
    Use Ghosts  =       FALSE
    Use Stars   =       FALSE
    Condition   =   1.000E-07
    Power       =           4
    Convergence =   1.000E-12
    Maxiter     =        1000

    @IBO Iter:                   Metric       Gradient
    @IBO    1:   1.0645484321913243E+00   2.665541E-02
    @IBO    2:   1.0833881980171265E+00   8.053748E-03
    @IBO    3:   1.0834334089330437E+00   1.356911E-05
    @IBO    4:   1.0834334090608064E+00   2.679880E-09
    @IBO    5:   1.0834334090608064E+00   6.507935E-13

    IBO Localizer 2 converged.

  Local Orbitals for Monomer B:

  ==> IBO Localizer 2 <==

    MinAO Basis = CC-PVTZ-MINAO
    Use Ghosts  =       FALSE
    Use Stars   =       FALSE
    Condition   =   1.000E-07
    Power       =           4
    Convergence =   1.000E-12
    Maxiter     =        1000

    @IBO Iter:                   Metric       Gradient
    @IBO    1:   1.4804378092293093E+00   1.683598E+00
    @IBO    2:   1.6772526394557972E+00   9.440123E-01
    @IBO    3:   1.7092461314503236E+00   3.567198E-01
    @IBO    4:   1.7109191691476693E+00   5.983475E-03
    @IBO    5:   1.7109203960556412E+00   2.803371E-04
    @IBO    6:   1.7109203969669233E+00   3.849847E-06
    @IBO    7:   1.7109203969671614E+00   9.861025E-08
    @IBO    8:   1.7109203969671616E+00   2.439885E-09
    @IBO    9:   1.7109203969671616E+00   8.052355E-11
    @IBO   10:   1.7109203969671618E+00   3.185804E-12
    @IBO   11:   1.7109203969671616E+00   1.323331E-13

    IBO Localizer 2 converged.

  ==> F-SAPT Electrostatics <==

  ==> DFERI: Density Fitted 3-Index Tensors <==

    Schwarz cutoff =   0.000E+00
    J cutoff       =   1.000E-12
    Mem (GB)       =         628

   => Auxiliary Basis <=

  Basis Set: (JUN-CC-PVDZ AUX)
    Blend: JUN-CC-PVDZ-JKFIT
    Number of shells: 576
    Number of basis function: 1632
    Number of Cartesian functions: 1856
    Spherical Harmonics?: true
    Max angular momentum: 3

    Elst10,r            =     0.008535310628 [Eh]

  ==> F-SAPT Exchange <==

  ==> DFERI: Density Fitted 3-Index Tensors <==

    Schwarz cutoff =   0.000E+00
    J cutoff       =   1.000E-12
    Mem (GB)       =         628

   => Auxiliary Basis <=

  Basis Set: (JUN-CC-PVDZ AUX)
    Blend: JUN-CC-PVDZ-JKFIT
    Number of shells: 576
    Number of basis function: 1632
    Number of Cartesian functions: 1856
    Spherical Harmonics?: true
    Max angular momentum: 3

    Exch10(S^2)         =     0.002881376452 [Eh]

    Scaling F-SAPT Exch10(S^2) by   1.002E+00 to match Exch10

  ==> F-SAPT Induction <==

  ==> DFERI: Density Fitted 3-Index Tensors <==

    Schwarz cutoff =   0.000E+00
    J cutoff       =   1.000E-12
    Mem (GB)       =         628

   => Auxiliary Basis <=

  Basis Set: (JUN-CC-PVDZ AUX)
    Blend: JUN-CC-PVDZ-JKFIT
    Number of shells: 576
    Number of basis function: 1632
    Number of Cartesian functions: 1856
    Spherical Harmonics?: true
    Max angular momentum: 3

    Ind20,u (A<-B)      =    -0.001031223102 [Eh]
    Ind20,u (B<-A)      =    -0.000396148536 [Eh]
    Ind20,u             =    -0.001427371638 [Eh]
    Exch-Ind20,u (A<-B) =     0.000473398610 [Eh]
    Exch-Ind20,u (B<-A) =     0.000166612533 [Eh]
    Exch-Ind20,u        =     0.000640011143 [Eh]

    Scaling for delta HF        =   1.198E+00
    Scaling for response (A<-B) =   1.099E+00
    Scaling for response (B<-A) =   1.051E+00
    Scaling for total (A<-B)    =   1.317E+00
    Scaling for total (B<-A)    =   1.260E+00

  ==> F-SAPT Dispersion <==

  ==> DFERI: Density Fitted 3-Index Tensors <==

    Schwarz cutoff =   0.000E+00
    J cutoff       =   1.000E-12
    Mem (GB)       =         628

   => Auxiliary Basis <=

  Basis Set: (JUN-CC-PVDZ AUX)
    Blend: JUN-CC-PVDZ-RI
    Number of shells: 432
    Number of basis function: 1264
    Number of Cartesian functions: 1456
    Spherical Harmonics?: true
    Max angular momentum: 3

    Disp20              =    -0.002448280157 [Eh]
    Exch-Disp20         =     0.000239161618 [Eh]

  ==> F-SAPT Output <==

    F-SAPT Data Filepath = fsapt/

  ==> Results <==


    SAPT Results  
  --------------------------------------------------------------------------------------------------------
    Electrostatics                  8.53531102 [mEh]       5.35598875 [kcal/mol]      22.40945909 [kJ/mol]
      Elst10,r                      8.53531102 [mEh]       5.35598875 [kcal/mol]      22.40945909 [kJ/mol]

    Exchange                        2.88638046 [mEh]       1.81123116 [kcal/mol]       7.57819190 [kJ/mol]
      Exch10                        2.88638046 [mEh]       1.81123116 [kcal/mol]       7.57819190 [kJ/mol]
      Exch10(S^2)                   2.88137645 [mEh]       1.80809110 [kcal/mol]       7.56505387 [kJ/mol]

    Induction                      -1.02387856 [mEh]      -0.64249352 [kcal/mol]      -2.68819315 [kJ/mol]
      Ind20,r                      -1.65983734 [mEh]      -1.04156370 [kcal/mol]      -4.35790294 [kJ/mol]
      Exch-Ind20,r                  0.80544867 [mEh]       0.50542669 [kcal/mol]       2.11470549 [kJ/mol]
      delta HF,r (2)               -0.16948989 [mEh]      -0.10635651 [kcal/mol]      -0.44499570 [kJ/mol]
      Induction (A<-B)             -0.73471928 [mEh]      -0.46104333 [kcal/mol]      -1.92900546 [kJ/mol]
      Induction (B<-A)             -0.28915928 [mEh]      -0.18145020 [kcal/mol]      -0.75918769 [kJ/mol]

    Dispersion                     -2.20911854 [mEh]      -1.38624287 [kcal/mol]      -5.80004072 [kJ/mol]
      Disp20                       -2.44828016 [mEh]      -1.53631906 [kcal/mol]      -6.42795955 [kJ/mol]
      Exch-Disp20                   0.23916162 [mEh]       0.15007619 [kcal/mol]       0.62791883 [kJ/mol]

  Total HF                         10.39781292 [mEh]       6.52472639 [kcal/mol]      27.29945783 [kJ/mol]
  Total SAPT0                       8.18869438 [mEh]       5.13848352 [kcal/mol]      21.49941711 [kJ/mol]

  --------------------------------------------------------------------------------------------------------
    Han Solo: This is *not* gonna work.
    Luke Skywalker: Why didn't you say so before?
    Han Solo: I *did* say so before.

*** tstop() called on vega04.cac.cornell.edu at Wed Oct 18 19:25:27 2017
Module time:
	user time   =    1797.79 seconds =      29.96 minutes
	system time =      10.28 seconds =       0.17 minutes
	total time  =         75 seconds =       1.25 minutes
Total time:
	user time   =    2551.12 seconds =      42.52 minutes
	system time =      16.80 seconds =       0.28 minutes
	total time  =        132 seconds =       2.20 minutes

*** Psi4 exiting successfully. Buy a developer a beer!
