
    -----------------------------------------------------------------------
          Psi4: An Open-Source Ab Initio Electronic Structure Package
                               Psi4 1.1 release

                         Git: Rev {HEAD} add49b9 


    R. M. Parrish, L. A. Burns, D. G. A. Smith, A. C. Simmonett,
    A. E. DePrince III, E. G. Hohenstein, U. Bozkaya, A. Yu. Sokolov,
    R. Di Remigio, R. M. Richard, J. F. Gonthier, A. M. James,
    H. R. McAlexander, A. Kumar, M. Saitow, X. Wang, B. P. Pritchard,
    P. Verma, H. F. Schaefer III, K. Patkowski, R. A. King, E. F. Valeev,
    F. A. Evangelista, J. M. Turney, T. D. Crawford, and C. D. Sherrill,
    J. Chem. Theory Comput. in press (2017).
    (doi: 10.1021/acs.jctc.7b00174)

    -----------------------------------------------------------------------


    Psi4 started on: Monday, 15 January 2018 05:36PM

    Process ID:  17520
    PSIDATADIR: /home/junteng/Softwares/psi4conda/share/psi4
    Memory:     500.0 MiB
    Threads:    4
    
  ==> Input File <==

--------------------------------------------------------------------------
memory 750000 mb

molecule mol {
0 1
C         -0.23870       -1.32473        0.66912
O         -1.06383       -1.67288        1.48362
O         -0.01570       -1.96815       -0.48222
C         -0.89322       -3.06650       -0.78762
H         -0.53065       -3.46799       -1.73103
H         -0.85537       -3.82241       -0.00207
H         -1.91522       -2.70197       -0.89905
--
0 1
C         -1.52688        0.88707       -0.32647
O         -1.77566        0.42858       -1.41439
O         -2.46609        1.17928        0.59601
C         -3.81823        0.81062        0.26554
H         -3.88704       -0.26859        0.12098
H         -4.41813        1.11796        1.11894
H         -4.14502        1.32161       -0.64121
--
0 1
C          2.83092       -1.20999        0.06546
H          2.32873       -2.02546       -0.45029
H          3.07192       -1.52838        1.08385
H          3.76713       -0.98931       -0.45233
H          0.44179        2.08853       -1.75001
C         -0.14738        1.19612        0.21599
C          0.59110       -0.05936        0.83862
C          0.88181        1.64030       -0.86246
C          1.98255        2.44595       -0.14937
C          2.69484        1.30593        0.63335
C          1.96475        0.03089        0.10169
O          1.56276        0.43605       -1.21940
H         -0.26820        1.95729        0.98576
H          0.69749        0.07206        1.91497
H          2.65001        2.89970       -0.88332
H          1.58669        3.23698        0.49087
H          3.75592        1.25190        0.38618
H          2.61135        1.40753        1.71769

symmetry c1
no_reorient
no_com
}

set {
basis jun-cc-pvdz
scf_type df
guess sad
freeze_core true
}

energy('fisapt0')
--------------------------------------------------------------------------

  Memory set to 698.492 GiB by Python driver.

*** tstart() called on ThinkPad-P50
*** at Mon Jan 15 17:36:54 2018

   => Loading Basis Set <=

    Name: JUN-CC-PVDZ
    Role: ORBITAL
    Keyword: BASIS
    atoms 1, 4, 8, 11, 15, 20-25   entry C          line   157 file /home/junteng/Softwares/psi4conda/share/psi4/basis/jun-cc-pvdz.gbs 
    atoms 2-3, 9-10, 26            entry O          line   225 file /home/junteng/Softwares/psi4conda/share/psi4/basis/jun-cc-pvdz.gbs 
    atoms 5-7, 12-14, 16-19, 27-32 entry H          line    35 file /home/junteng/Softwares/psi4conda/share/psi4/basis/jun-cc-pvdz.gbs 


         ---------------------------------------------------------
                                   SCF
            by Justin Turney, Rob Parrish, and Andy Simmonett
                              RHF Reference
                        4 Threads, 715255 MiB Core
         ---------------------------------------------------------

  ==> Geometry <==

    Molecular point group: c1
    Full point group: C1

    Geometry (in Angstrom), charge = 0, multiplicity = 1:

       Center              X                  Y                   Z               Mass       
    ------------   -----------------  -----------------  -----------------  -----------------
           C         -0.238700000000    -1.324730000000     0.669120000000    12.000000000000
           O         -1.063830000000    -1.672880000000     1.483620000000    15.994914619560
           O         -0.015700000000    -1.968150000000    -0.482220000000    15.994914619560
           C         -0.893220000000    -3.066500000000    -0.787620000000    12.000000000000
           H         -0.530650000000    -3.467990000000    -1.731030000000     1.007825032070
           H         -0.855370000000    -3.822410000000    -0.002070000000     1.007825032070
           H         -1.915220000000    -2.701970000000    -0.899050000000     1.007825032070
           C         -1.526880000000     0.887070000000    -0.326470000000    12.000000000000
           O         -1.775660000000     0.428580000000    -1.414390000000    15.994914619560
           O         -2.466090000000     1.179280000000     0.596010000000    15.994914619560
           C         -3.818230000000     0.810620000000     0.265540000000    12.000000000000
           H         -3.887040000000    -0.268590000000     0.120980000000     1.007825032070
           H         -4.418130000000     1.117960000000     1.118940000000     1.007825032070
           H         -4.145020000000     1.321610000000    -0.641210000000     1.007825032070
           C          2.830920000000    -1.209990000000     0.065460000000    12.000000000000
           H          2.328730000000    -2.025460000000    -0.450290000000     1.007825032070
           H          3.071920000000    -1.528380000000     1.083850000000     1.007825032070
           H          3.767130000000    -0.989310000000    -0.452330000000     1.007825032070
           H          0.441790000000     2.088530000000    -1.750010000000     1.007825032070
           C         -0.147380000000     1.196120000000     0.215990000000    12.000000000000
           C          0.591100000000    -0.059360000000     0.838620000000    12.000000000000
           C          0.881810000000     1.640300000000    -0.862460000000    12.000000000000
           C          1.982550000000     2.445950000000    -0.149370000000    12.000000000000
           C          2.694840000000     1.305930000000     0.633350000000    12.000000000000
           C          1.964750000000     0.030890000000     0.101690000000    12.000000000000
           O          1.562760000000     0.436050000000    -1.219400000000    15.994914619560
           H         -0.268200000000     1.957290000000     0.985760000000     1.007825032070
           H          0.697490000000     0.072060000000     1.914970000000     1.007825032070
           H          2.650010000000     2.899700000000    -0.883320000000     1.007825032070
           H          1.586690000000     3.236980000000     0.490870000000     1.007825032070
           H          3.755920000000     1.251900000000     0.386180000000     1.007825032070
           H          2.611350000000     1.407530000000     1.717690000000     1.007825032070

  Running in c1 symmetry.

  Rotational constants: A =      0.02514  B =      0.01701  C =      0.01250 [cm^-1]
  Rotational constants: A =    753.58732  B =    509.94183  C =    374.81098 [MHz]
  Nuclear repulsion = 1259.319848223926556

  Charge       = 0
  Multiplicity = 1
  Electrons    = 122
  Nalpha       = 61
  Nbeta        = 61

  ==> Algorithm <==

  SCF Algorithm Type is DF.
  DIIS enabled.
  MOM disabled.
  Fractional occupation disabled.
  Guess Type is SAD.
  Energy threshold   = 1.00e-08
  Density threshold  = 1.00e-08
  Integral threshold = 0.00e+00

  ==> Primary Basis <==

  Basis Set: JUN-CC-PVDZ
    Blend: JUN-CC-PVDZ
    Number of shells: 176
    Number of basis function: 368
    Number of Cartesian functions: 384
    Spherical Harmonics?: true
    Max angular momentum: 2

   => Loading Basis Set <=

    Name: (JUN-CC-PVDZ AUX)
    Role: JKFIT
    Keyword: DF_BASIS_SCF
    atoms 1, 4, 8, 11, 15, 20-25   entry C          line   145 file /home/junteng/Softwares/psi4conda/share/psi4/basis/jun-cc-pvdz-jkfit.gbs 
    atoms 2-3, 9-10, 26            entry O          line   257 file /home/junteng/Softwares/psi4conda/share/psi4/basis/jun-cc-pvdz-jkfit.gbs 
    atoms 5-7, 12-14, 16-19, 27-32 entry H          line    69 file /home/junteng/Softwares/psi4conda/share/psi4/basis/jun-cc-pvdz-jkfit.gbs 

  ==> Pre-Iterations <==

   -------------------------------------------------------
    Irrep   Nso     Nmo     Nalpha   Nbeta   Ndocc  Nsocc
   -------------------------------------------------------
     A        368     368       0       0       0       0
   -------------------------------------------------------
    Total     368     368      61      61      61       0
   -------------------------------------------------------

  ==> Integral Setup <==

  ==> DFJK: Density-Fitted J/K Matrices <==

    J tasked:                  Yes
    K tasked:                  Yes
    wK tasked:                  No
    OpenMP threads:              4
    Integrals threads:           4
    Memory (MB):            536441
    Algorithm:                Core
    Integral Cache:           NONE
    Schwarz Cutoff:          1E-12
    Fitting Condition:       1E-12

   => Auxiliary Basis Set <=

  Basis Set: (JUN-CC-PVDZ AUX)
    Blend: JUN-CC-PVDZ-JKFIT
    Number of shells: 576
    Number of basis function: 1632
    Number of Cartesian functions: 1856
    Spherical Harmonics?: true
    Max angular momentum: 3

  Minimum eigenvalue in the overlap matrix is 1.0954579910E-05.
  Using Symmetric Orthogonalization.

  SCF Guess: Superposition of Atomic Densities via on-the-fly atomic UHF.

  ==> Iterations <==

                           Total Energy        Delta E     RMS |[F,P]|

   @DF-RHF iter   0:  -807.18751997150082   -8.07188e+02   4.04606e-02 
   @DF-RHF iter   1:  -799.71536009008435    7.47216e+00   4.75577e-03 
   @DF-RHF iter   2:  -800.11916795527691   -4.03808e-01   2.98782e-03 DIIS
   @DF-RHF iter   3:  -800.24159929316920   -1.22431e-01   8.20918e-04 DIIS
   @DF-RHF iter   4:  -800.26146868952389   -1.98694e-02   2.86697e-04 DIIS
   @DF-RHF iter   5:  -800.26367454892988   -2.20586e-03   9.80399e-05 DIIS
   @DF-RHF iter   6:  -800.26407108705450   -3.96538e-04   4.16440e-05 DIIS
   @DF-RHF iter   7:  -800.26413851542065   -6.74284e-05   1.55638e-05 DIIS
   @DF-RHF iter   8:  -800.26414933490685   -1.08195e-05   5.71252e-06 DIIS
   @DF-RHF iter   9:  -800.26415108089293   -1.74599e-06   2.43481e-06 DIIS
   @DF-RHF iter  10:  -800.26415136722323   -2.86330e-07   9.78562e-07 DIIS
   @DF-RHF iter  11:  -800.26415142208464   -5.48614e-08   4.08178e-07 DIIS
   @DF-RHF iter  12:  -800.26415143078054   -8.69591e-09   1.62427e-07 DIIS
   @DF-RHF iter  13:  -800.26415143218935   -1.40881e-09   6.19543e-08 DIIS
   @DF-RHF iter  14:  -800.26415143243719   -2.47837e-10   2.70617e-08 DIIS
   @DF-RHF iter  15:  -800.26415143247527   -3.80851e-11   9.28936e-09 DIIS

  ==> Post-Iterations <==

    Orbital Energies (a.u.)
    -----------------------

    Doubly Occupied:                                                      

       1A    -20.610393     2A    -20.605766     3A    -20.563051  
       4A    -20.557626     5A    -20.554439     6A    -11.390947  
       7A    -11.389775     8A    -11.302950     9A    -11.294516  
      10A    -11.293232    11A    -11.290170    12A    -11.269104  
      13A    -11.267335    14A    -11.240625    15A    -11.239675  
      16A    -11.227501    17A     -1.469081    18A     -1.463743  
      19A     -1.401948    20A     -1.366557    21A     -1.363132  
      22A     -1.115039    23A     -1.061917    24A     -1.050471  
      25A     -0.991456    26A     -0.967067    27A     -0.936553  
      28A     -0.881918    29A     -0.822804    30A     -0.799128  
      31A     -0.767792    32A     -0.763554    33A     -0.716516  
      34A     -0.697667    35A     -0.690463    36A     -0.679504  
      37A     -0.675590    38A     -0.664716    39A     -0.657880  
      40A     -0.654175    41A     -0.626473    42A     -0.592994  
      43A     -0.584570    44A     -0.575887    45A     -0.570206  
      46A     -0.563138    47A     -0.541518    48A     -0.530686  
      49A     -0.528331    50A     -0.521355    51A     -0.517335  
      52A     -0.507668    53A     -0.499378    54A     -0.494540  
      55A     -0.480364    56A     -0.467972    57A     -0.464242  
      58A     -0.454210    59A     -0.451868    60A     -0.431095  
      61A     -0.423835  

    Virtual:                                                              

      62A      0.050944    63A      0.056799    64A      0.057675  
      65A      0.067724    66A      0.073100    67A      0.077259  
      68A      0.084958    69A      0.091581    70A      0.100789  
      71A      0.102780    72A      0.106785    73A      0.117079  
      74A      0.120097    75A      0.122878    76A      0.128372  
      77A      0.131353    78A      0.142230    79A      0.144547  
      80A      0.149550    81A      0.157317    82A      0.161091  
      83A      0.165526    84A      0.166150    85A      0.174097  
      86A      0.179797    87A      0.184761    88A      0.192154  
      89A      0.195410    90A      0.200944    91A      0.208467  
      92A      0.216753    93A      0.221381    94A      0.224845  
      95A      0.227221    96A      0.232570    97A      0.238170  
      98A      0.243632    99A      0.246903   100A      0.250952  
     101A      0.256687   102A      0.263595   103A      0.265972  
     104A      0.269007   105A      0.270537   106A      0.299063  
     107A      0.303162   108A      0.304810   109A      0.310349  
     110A      0.313476   111A      0.318563   112A      0.328822  
     113A      0.333799   114A      0.340818   115A      0.346923  
     116A      0.350600   117A      0.354578   118A      0.358104  
     119A      0.363119   120A      0.370431   121A      0.375729  
     122A      0.383558   123A      0.391257   124A      0.391704  
     125A      0.398710   126A      0.404477   127A      0.408734  
     128A      0.416719   129A      0.422190   130A      0.425397  
     131A      0.427419   132A      0.432470   133A      0.436396  
     134A      0.444666   135A      0.446492   136A      0.448518  
     137A      0.455453   138A      0.459759   139A      0.463271  
     140A      0.481151   141A      0.491759   142A      0.496256  
     143A      0.501451   144A      0.512313   145A      0.517050  
     146A      0.525727   147A      0.533768   148A      0.539019  
     149A      0.547737   150A      0.554413   151A      0.566733  
     152A      0.571006   153A      0.583270   154A      0.598395  
     155A      0.606133   156A      0.621378   157A      0.657825  
     158A      0.662108   159A      0.702673   160A      0.712817  
     161A      0.750758   162A      0.765513   163A      0.771835  
     164A      0.784818   165A      0.798018   166A      0.808949  
     167A      0.824337   168A      0.844733   169A      0.856805  
     170A      0.861588   171A      0.874313   172A      0.886408  
     173A      0.887024   174A      0.891778   175A      0.900469  
     176A      0.912369   177A      0.914738   178A      0.926668  
     179A      0.930803   180A      0.934537   181A      0.938191  
     182A      0.947760   183A      0.948496   184A      0.959524  
     185A      0.968125   186A      0.968798   187A      0.975840  
     188A      0.982811   189A      0.984760   190A      0.989707  
     191A      0.997303   192A      1.002240   193A      1.015231  
     194A      1.032670   195A      1.039117   196A      1.043422  
     197A      1.050636   198A      1.068282   199A      1.074434  
     200A      1.091130   201A      1.096533   202A      1.104205  
     203A      1.114419   204A      1.117584   205A      1.126915  
     206A      1.149847   207A      1.167710   208A      1.202897  
     209A      1.211170   210A      1.235758   211A      1.253415  
     212A      1.268563   213A      1.277532   214A      1.294440  
     215A      1.335396   216A      1.339565   217A      1.364768  
     218A      1.371654   219A      1.435159   220A      1.449747  
     221A      1.471148   222A      1.473362   223A      1.491217  
     224A      1.502282   225A      1.504720   226A      1.510929  
     227A      1.533323   228A      1.545697   229A      1.577061  
     230A      1.581716   231A      1.584304   232A      1.596857  
     233A      1.611504   234A      1.620046   235A      1.624834  
     236A      1.628610   237A      1.643696   238A      1.652056  
     239A      1.667442   240A      1.673010   241A      1.684702  
     242A      1.686087   243A      1.696611   244A      1.700833  
     245A      1.711427   246A      1.727686   247A      1.739565  
     248A      1.748549   249A      1.761912   250A      1.771092  
     251A      1.786101   252A      1.807192   253A      1.831698  
     254A      1.851852   255A      1.852999   256A      1.869150  
     257A      1.883480   258A      1.891752   259A      1.902055  
     260A      1.908177   261A      1.931120   262A      1.935509  
     263A      1.950363   264A      1.955727   265A      1.964482  
     266A      1.969781   267A      1.986429   268A      1.997305  
     269A      2.006165   270A      2.008283   271A      2.013318  
     272A      2.022717   273A      2.034539   274A      2.040281  
     275A      2.048452   276A      2.055336   277A      2.066508  
     278A      2.089617   279A      2.095837   280A      2.102104  
     281A      2.110625   282A      2.114539   283A      2.121773  
     284A      2.143146   285A      2.146659   286A      2.164446  
     287A      2.185078   288A      2.187762   289A      2.198424  
     290A      2.211617   291A      2.237284   292A      2.254862  
     293A      2.271243   294A      2.276268   295A      2.305453  
     296A      2.318456   297A      2.329646   298A      2.335986  
     299A      2.353442   300A      2.357772   301A      2.383933  
     302A      2.393906   303A      2.401047   304A      2.407872  
     305A      2.417045   306A      2.425781   307A      2.434644  
     308A      2.438885   309A      2.458604   310A      2.470017  
     311A      2.478356   312A      2.504083   313A      2.530859  
     314A      2.549297   315A      2.563602   316A      2.602246  
     317A      2.640511   318A      2.658855   319A      2.665565  
     320A      2.716366   321A      2.744884   322A      2.755443  
     323A      2.777325   324A      2.785004   325A      2.794091  
     326A      2.812703   327A      2.821747   328A      2.831339  
     329A      2.847713   330A      2.856027   331A      2.873504  
     332A      2.874267   333A      2.884588   334A      2.897272  
     335A      2.925068   336A      2.932622   337A      2.953083  
     338A      2.966251   339A      2.996854   340A      3.005659  
     341A      3.021222   342A      3.024753   343A      3.079886  
     344A      3.111041   345A      3.129301   346A      3.181953  
     347A      3.264723   348A      3.271125   349A      3.297552  
     350A      3.332413   351A      3.358545   352A      3.396648  
     353A      3.417876   354A      3.429161   355A      3.525183  
     356A      3.551117   357A      3.573805   358A      3.599011  
     359A      3.673596   360A      3.688575   361A      3.706161  
     362A      3.775283   363A      3.822656   364A      3.863586  
     365A      3.954170   366A      3.970403   367A      4.087631  
     368A      4.116038  

    Final Occupation by Irrep:
              A 
    DOCC [    61 ]

  Energy converged.

  @DF-RHF Final Energy:  -800.26415143247527

   => Energetics <=

    Nuclear Repulsion Energy =           1259.3198482239265559
    One-Electron Energy =               -3598.0011141640634378
    Two-Electron Energy =                1538.4171145076613811
    DFT Exchange-Correlation Energy =       0.0000000000000000
    Empirical Dispersion Energy =           0.0000000000000000
    PCM Polarization Energy =               0.0000000000000000
    EFP Energy =                            0.0000000000000000
    Total Energy =                       -800.2641514324752734



Properties will be evaluated at   0.000000,   0.000000,   0.000000 Bohr

Properties computed using the SCF density matrix

  Nuclear Dipole Moment: (a.u.)
     X:     1.4222      Y:     7.0114      Z:    -6.2323

  Electronic Dipole Moment: (a.u.)
     X:    -1.0923      Y:    -6.5054      Z:     6.7176

  Dipole Moment: (a.u.)
     X:     0.3299      Y:     0.5061      Z:     0.4853     Total:     0.7749

  Dipole Moment: (Debye)
     X:     0.8384      Y:     1.2863      Z:     1.2335     Total:     1.9695


*** tstop() called on ThinkPad-P50 at Mon Jan 15 17:37:49 2018
Module time:
	user time   =     167.16 seconds =       2.79 minutes
	system time =       0.91 seconds =       0.02 minutes
	total time  =         55 seconds =       0.92 minutes
Total time:
	user time   =     167.16 seconds =       2.79 minutes
	system time =       0.91 seconds =       0.02 minutes
	total time  =         55 seconds =       0.92 minutes
   => Loading Basis Set <=

    Name: (JUN-CC-PVDZ AUX)
    Role: JKFIT
    Keyword: DF_BASIS_SCF
    atoms 1, 4, 8, 11, 15, 20-25   entry C          line   145 file /home/junteng/Softwares/psi4conda/share/psi4/basis/jun-cc-pvdz-jkfit.gbs 
    atoms 2-3, 9-10, 26            entry O          line   257 file /home/junteng/Softwares/psi4conda/share/psi4/basis/jun-cc-pvdz-jkfit.gbs 
    atoms 5-7, 12-14, 16-19, 27-32 entry H          line    69 file /home/junteng/Softwares/psi4conda/share/psi4/basis/jun-cc-pvdz-jkfit.gbs 

   => Loading Basis Set <=

    Name: (JUN-CC-PVDZ AUX)
    Role: RIFIT
    Keyword: DF_BASIS_SAPT
    atoms 1, 4, 8, 11, 15, 20-25   entry C          line    99 file /home/junteng/Softwares/psi4conda/share/psi4/basis/jun-cc-pvdz-ri.gbs 
    atoms 2-3, 9-10, 26            entry O          line   187 file /home/junteng/Softwares/psi4conda/share/psi4/basis/jun-cc-pvdz-ri.gbs 
    atoms 5-7, 12-14, 16-19, 27-32 entry H          line    29 file /home/junteng/Softwares/psi4conda/share/psi4/basis/jun-cc-pvdz-ri.gbs 

   => Loading Basis Set <=

    Name: CC-PVTZ-MINAO
    Role: ORBITAL
    Keyword: BASIS
    atoms 1, 4, 8, 11, 15, 20-25   entry C          line   130 file /home/junteng/Softwares/psi4conda/share/psi4/basis/cc-pvtz-minao.gbs 
    atoms 2-3, 9-10, 26            entry O          line   190 file /home/junteng/Softwares/psi4conda/share/psi4/basis/cc-pvtz-minao.gbs 
    atoms 5-7, 12-14, 16-19, 27-32 entry H          line    19 file /home/junteng/Softwares/psi4conda/share/psi4/basis/cc-pvtz-minao.gbs 


*** tstart() called on ThinkPad-P50
*** at Mon Jan 15 17:37:50 2018

	 --------------------------------------------
	                    FISAPT0                  
	                  Rob Parrish                
	 --------------------------------------------

    Do F-SAPT =         Yes
    Do Plot   =          No
    Memory    =      78.580 [GD]

  ==> Localization (IBO) <==

  ==> IBO Localizer 2 <==

    MinAO Basis = CC-PVTZ-MINAO
    Use Ghosts  =       FALSE
    Use Stars   =       FALSE
    Condition   =   1.000E-07
    Power       =           4
    Convergence =   1.000E-12
    Maxiter     =        1000

    @IBO Iter:                   Metric       Gradient
    @IBO    1:   1.9779589516761831E+00   2.755986E+00
    @IBO    2:   2.2154590501110496E+00   2.688889E+00
    @IBO    3:   2.3182053843171060E+00   1.332468E+00
    @IBO    4:   2.3318718689291096E+00   1.592542E-01
    @IBO    5:   2.3320308555408968E+00   3.714780E-03
    @IBO    6:   2.3320309297052444E+00   6.425122E-05
    @IBO    7:   2.3320309297357342E+00   2.117320E-06
    @IBO    8:   2.3320309297357684E+00   7.389825E-08
    @IBO    9:   2.3320309297357689E+00   3.145457E-09
    @IBO   10:   2.3320309297357689E+00   1.476566E-10
    @IBO   11:   2.3320309297357689E+00   7.093134E-12
    @IBO   12:   2.3320309297357689E+00   3.413530E-13

    IBO Localizer 2 converged.

  ==> Partitioning <==

   => Atomic Partitioning <= 

    Monomer A:   7 atoms
    Monomer B:   7 atoms
    Monomer C:  18 atoms

   => Link Bond Identification <=

    Link Bond Selection = AUTOMATIC

    Charge Completeness = 0.800

    Total Link Bonds = 2

    --------------------------
    N     Orb Type Aind1 Aind2
    --------------------------
    1      21   BC     8    20
    2      29   AC     1    21
    --------------------------

   => Link Bond Assignment <=

    Link Bond Assignment      = C

   => Partition Summary <=

    Monomer A:  0 charge,  30 protons,  30 electrons,  15 docc
    Monomer B:  0 charge,  30 protons,  30 electrons,  15 docc
    Monomer C:  0 charge,  62 protons,  62 electrons,  31 docc

  ==> Overlap Integrals <==

  ==> Kinetic Integrals <==

  ==> Nuclear Integrals <==

    Nuclear Repulsion Tot:   1.2593198482239261E+03 [Eh]

  ==> Coulomb Integrals <==

  ==> DFJK: Density-Fitted J/K Matrices <==

    J tasked:                  Yes
    K tasked:                  Yes
    wK tasked:                  No
    OpenMP threads:              4
    Integrals threads:           4
    Memory (MB):            643730
    Algorithm:                Core
    Integral Cache:           NONE
    Schwarz Cutoff:          1E-12
    Fitting Condition:       1E-12

   => Auxiliary Basis Set <=

  Basis Set: (JUN-CC-PVDZ AUX)
    Blend: JUN-CC-PVDZ-JKFIT
    Number of shells: 576
    Number of basis function: 1632
    Number of Cartesian functions: 1856
    Spherical Harmonics?: true
    Max angular momentum: 3

  ==> Relaxed SCF Equations <==

  ==> SCF A: <==

    Maxiter =          50
    E Tol   =   1.000E-06
    D Tol   =   1.000E-08

    Max DIIS Vectors = 5

    Iter   N:                        E          dE         |D|
    Iter   1:  -2.2410329786010385E+02  -2.241E+02   1.242E-03 
    Iter   2:  -2.2411065778017834E+02  -7.360E-03   8.722E-05 DIIS
    Iter   3:  -2.2411079415554715E+02  -1.364E-04   3.760E-05 DIIS
    Iter   4:  -2.2411081281139022E+02  -1.866E-05   1.303E-05 DIIS
    Iter   5:  -2.2411081583751141E+02  -3.026E-06   3.373E-06 DIIS
    Iter   6:  -2.2411081614780448E+02  -3.103E-07   1.644E-06 DIIS
    Iter   7:  -2.2411081621755417E+02  -6.975E-08   5.431E-07 DIIS
    Iter   8:  -2.2411081622618164E+02  -8.627E-09   2.410E-07 DIIS
    Iter   9:  -2.2411081622794234E+02  -1.761E-09   7.136E-08 DIIS
    Iter  10:  -2.2411081622813413E+02  -1.918E-10   3.949E-08 DIIS
    Iter  11:  -2.2411081622817409E+02  -3.996E-11   1.610E-08 DIIS
    Iter  12:  -2.2411081622817969E+02  -5.599E-12   6.178E-09 DIIS

    FISAPTSCF Converged.

    Final SCF Energy:  -2.2411081622817969E+02 [Eh]

   => Occupied Orbital Energies <=

       1  -20.604332     2  -20.542704     3  -11.383218  
       4  -11.294311     5   -1.438255     6   -1.351772  
       7   -0.963458     8   -0.765105     9   -0.665645  
      10   -0.663018    11   -0.619822    12   -0.540363  
      13   -0.532746    14   -0.468544    15   -0.457074  

   => Virtual Orbital Energies <=

      16    0.031461    17    0.053773    18    0.058392  
      19    0.065011    20    0.070217    21    0.077200  
      22    0.080677    23    0.090892    24    0.092056  
      25    0.097603    26    0.101617    27    0.105813  
      28    0.117860    29    0.120281    30    0.125173  
      31    0.130240    32    0.131615    33    0.142907  
      34    0.147144    35    0.155479    36    0.156940  
      37    0.161877    38    0.164887    39    0.174024  
      40    0.178525    41    0.184425    42    0.192353  
      43    0.195257    44    0.200680    45    0.203005  
      46    0.210926    47    0.217885    48    0.223007  
      49    0.228989    50    0.232814    51    0.238690  
      52    0.242612    53    0.245734    54    0.250648  
      55    0.261031    56    0.263251    57    0.268772  
      58    0.270394    59    0.282019    60    0.285393  
      61    0.296862    62    0.302061    63    0.307949  
      64    0.312471    65    0.319071    66    0.324774  
      67    0.330914    68    0.332090    69    0.344236  
      70    0.346025    71    0.356068    72    0.357872  
      73    0.364338    74    0.366869    75    0.372216  
      76    0.385569    77    0.388152    78    0.394094  
      79    0.399763    80    0.404564    81    0.410385  
      82    0.416650    83    0.419670    84    0.426067  
      85    0.427820    86    0.432347    87    0.441160  
      88    0.444979    89    0.449841    90    0.457381  
      91    0.465039    92    0.474156    93    0.485798  
      94    0.497044    95    0.503732    96    0.508902  
      97    0.512932    98    0.520405    99    0.526591  
     100    0.532793   101    0.545322   102    0.553295  
     103    0.563639   104    0.578454   105    0.588494  
     106    0.593504   107    0.608968   108    0.615120  
     109    0.621286   110    0.635195   111    0.647488  
     112    0.658347   113    0.666949   114    0.685053  
     115    0.705166   116    0.719500   117    0.762891  
     118    0.771816   119    0.788178   120    0.798650  
     121    0.816385   122    0.827885   123    0.854361  
     124    0.864892   125    0.870910   126    0.885842  
     127    0.902721   128    0.914244   129    0.921172  
     130    0.923095   131    0.925323   132    0.935599  
     133    0.940264   134    0.953476   135    0.961238  
     136    0.962541   137    0.972090   138    0.981090  
     139    0.986833   140    0.990938   141    0.995784  
     142    1.003225   143    1.011726   144    1.014033  
     145    1.022289   146    1.033058   147    1.043040  
     148    1.058340   149    1.058880   150    1.063635  
     151    1.084880   152    1.089191   153    1.100731  
     154    1.113436   155    1.121672   156    1.126541  
     157    1.141054   158    1.151534   159    1.160098  
     160    1.174104   161    1.199193   162    1.212190  
     163    1.241095   164    1.269303   165    1.304767  
     166    1.321821   167    1.339176   168    1.371090  
     169    1.391005   170    1.402253   171    1.419053  
     172    1.454503   173    1.465440   174    1.510979  
     175    1.518000   176    1.521005   177    1.528935  
     178    1.546624   179    1.565394   180    1.568225  
     181    1.582274   182    1.593591   183    1.611817  
     184    1.618702   185    1.623684   186    1.633792  
     187    1.655371   188    1.667659   189    1.672495  
     190    1.701743   191    1.707966   192    1.727865  
     193    1.741486   194    1.749809   195    1.759702  
     196    1.775644   197    1.793017   198    1.799317  
     199    1.813311   200    1.823819   201    1.836035  
     202    1.846001   203    1.858108   204    1.865840  
     205    1.887772   206    1.893747   207    1.915600  
     208    1.923752   209    1.939218   210    1.953211  
     211    1.967339   212    1.970732   213    1.976857  
     214    1.992528   215    2.003404   216    2.008719  
     217    2.019963   218    2.033047   219    2.038687  
     220    2.046701   221    2.058171   222    2.066229  
     223    2.070284   224    2.079342   225    2.095619  
     226    2.098737   227    2.114903   228    2.131866  
     229    2.136807   230    2.140711   231    2.151228  
     232    2.159740   233    2.171267   234    2.183401  
     235    2.197417   236    2.212259   237    2.217743  
     238    2.230581   239    2.244009   240    2.273993  
     241    2.296451   242    2.307105   243    2.316344  
     244    2.327285   245    2.331281   246    2.333526  
     247    2.352454   248    2.367180   249    2.369908  
     250    2.380872   251    2.396221   252    2.404177  
     253    2.420448   254    2.430502   255    2.440047  
     256    2.455408   257    2.457164   258    2.476411  
     259    2.505063   260    2.521879   261    2.545908  
     262    2.556265   263    2.568246   264    2.588627  
     265    2.594439   266    2.652142   267    2.660864  
     268    2.664031   269    2.687178   270    2.709227  
     271    2.716973   272    2.734847   273    2.741525  
     274    2.779152   275    2.801217   276    2.806299  
     277    2.820658   278    2.833978   279    2.856114  
     280    2.863816   281    2.870314   282    2.878808  
     283    2.888573   284    2.898164   285    2.911662  
     286    2.915511   287    2.933888   288    2.959964  
     289    2.973303   290    3.007452   291    3.018780  
     292    3.030553   293    3.060681   294    3.070646  
     295    3.094447   296    3.141941   297    3.215245  
     298    3.276385   299    3.329163   300    3.392277  
     301    3.413366   302    3.420426   303    3.443745  
     304    3.543278   305    3.590429   306    3.626899  
     307    3.662259   308    3.699959   309    3.731553  
     310    3.801275   311    3.830544   312    3.888710  
     313    3.959811   314    3.979120   315    4.111090  
     316    4.139395   317    4.200611   318    4.441513  
     319    4.514950   320    4.550089   321    4.760494  
     322    4.936936   323    5.047477   324    5.069382  
     325    5.216739   326    5.321372   327    5.526912  
     328    5.610801   329    5.720238   330    5.840016  
     331    6.078186   332    6.340462   333    6.708001  
     334   13.383226   335   18.429636   336   33.424995  
     337   33.476592  

  ==> SCF B: <==

    Maxiter =          50
    E Tol   =   1.000E-06
    D Tol   =   1.000E-08

    Max DIIS Vectors = 5

    Iter   N:                        E          dE         |D|
    Iter   1:  -2.2415079624158255E+02  -2.242E+02   1.285E-03 
    Iter   2:  -2.2415866837916778E+02  -7.872E-03   8.335E-05 DIIS
    Iter   3:  -2.2415881110925923E+02  -1.427E-04   3.535E-05 DIIS
    Iter   4:  -2.2415882791084886E+02  -1.680E-05   1.274E-05 DIIS
    Iter   5:  -2.2415883077097206E+02  -2.860E-06   3.046E-06 DIIS
    Iter   6:  -2.2415883101576986E+02  -2.448E-07   1.501E-06 DIIS
    Iter   7:  -2.2415883107277881E+02  -5.701E-08   4.982E-07 DIIS
    Iter   8:  -2.2415883108025051E+02  -7.472E-09   2.208E-07 DIIS
    Iter   9:  -2.2415883108168239E+02  -1.432E-09   6.508E-08 DIIS
    Iter  10:  -2.2415883108184468E+02  -1.623E-10   3.471E-08 DIIS
    Iter  11:  -2.2415883108187660E+02  -3.192E-11   1.469E-08 DIIS
    Iter  12:  -2.2415883108188041E+02  -3.809E-12   5.780E-09 DIIS

    FISAPTSCF Converged.

    Final SCF Energy:  -2.2415883108188041E+02 [Eh]

   => Occupied Orbital Energies <=

       1  -20.608339     2  -20.546584     3  -11.384305  
       4  -11.295899     5   -1.437934     6   -1.355893  
       7   -0.963293     8   -0.766443     9   -0.667573  
      10   -0.663861    11   -0.622123    12   -0.542117  
      13   -0.536577    14   -0.471026    15   -0.460587  

   => Virtual Orbital Energies <=

      16    0.033149    17    0.055825    18    0.057966  
      19    0.066061    20    0.066974    21    0.076237  
      22    0.083258    23    0.087325    24    0.095741  
      25    0.099835    26    0.101942    27    0.106319  
      28    0.117219    29    0.120255    30    0.124235  
      31    0.129511    32    0.132871    33    0.140986  
      34    0.146219    35    0.152851    36    0.155992  
      37    0.165734    38    0.174166    39    0.176172  
      40    0.179983    41    0.187334    42    0.191545  
      43    0.199089    44    0.201322    45    0.205513  
      46    0.207561    47    0.218128    48    0.221441  
      49    0.229006    50    0.232252    51    0.237883  
      52    0.245393    53    0.248570    54    0.253877  
      55    0.258224    56    0.262104    57    0.268031  
      58    0.272088    59    0.278374    60    0.285965  
      61    0.290390    62    0.301061    63    0.312756  
      64    0.315669    65    0.319129    66    0.323090  
      67    0.329554    68    0.334311    69    0.348310  
      70    0.354159    71    0.357872    72    0.361962  
      73    0.365017    74    0.370593    75    0.373233  
      76    0.381222    77    0.386645    78    0.394397  
      79    0.396745    80    0.403167    81    0.407499  
      82    0.413811    83    0.421351    84    0.425174  
      85    0.431870    86    0.434634    87    0.439020  
      88    0.442908    89    0.450443    90    0.460886  
      91    0.471804    92    0.473940    93    0.480159  
      94    0.494844    95    0.500908    96    0.513202  
      97    0.519914    98    0.527916    99    0.529142  
     100    0.542065   101    0.547400   102    0.551404  
     103    0.569704   104    0.587435   105    0.594777  
     106    0.600430   107    0.609039   108    0.614476  
     109    0.621065   110    0.631398   111    0.647770  
     112    0.659339   113    0.680081   114    0.705831  
     115    0.712369   116    0.730127   117    0.768581  
     118    0.779664   119    0.786011   120    0.794685  
     121    0.810033   122    0.827904   123    0.848177  
     124    0.862714   125    0.880748   126    0.891134  
     127    0.895065   128    0.909905   129    0.919167  
     130    0.924406   131    0.928176   132    0.935740  
     133    0.939468   134    0.950817   135    0.954005  
     136    0.960472   137    0.965485   138    0.977528  
     139    0.981181   140    0.983286   141    0.991235  
     142    1.003431   143    1.011111   144    1.017381  
     145    1.017673   146    1.040688   147    1.050095  
     148    1.051582   149    1.054453   150    1.066593  
     151    1.082861   152    1.092138   153    1.096267  
     154    1.112139   155    1.122435   156    1.127521  
     157    1.143226   158    1.165312   159    1.179689  
     160    1.184104   161    1.206368   162    1.234927  
     163    1.245883   164    1.262147   165    1.286768  
     166    1.307298   167    1.350512   168    1.365622  
     169    1.375540   170    1.407223   171    1.433809  
     172    1.464940   173    1.481681   174    1.504469  
     175    1.517225   176    1.525909   177    1.536042  
     178    1.552853   179    1.556197   180    1.562914  
     181    1.590692   182    1.600744   183    1.611734  
     184    1.618386   185    1.628884   186    1.641490  
     187    1.655311   188    1.660427   189    1.668050  
     190    1.679858   191    1.688517   192    1.710876  
     193    1.717373   194    1.733874   195    1.752299  
     196    1.780316   197    1.801431   198    1.808360  
     199    1.812211   200    1.827780   201    1.829412  
     202    1.849706   203    1.861093   204    1.880802  
     205    1.884175   206    1.906627   207    1.921575  
     208    1.932077   209    1.940143   210    1.952352  
     211    1.964877   212    1.965902   213    1.975390  
     214    1.992725   215    2.007416   216    2.008511  
     217    2.016878   218    2.027479   219    2.033801  
     220    2.044121   221    2.053253   222    2.055699  
     223    2.080161   224    2.092928   225    2.102735  
     226    2.117574   227    2.126041   228    2.132275  
     229    2.135125   230    2.155185   231    2.156380  
     232    2.161566   233    2.171634   234    2.172920  
     235    2.186649   236    2.206207   237    2.230586  
     238    2.237394   239    2.253090   240    2.275462  
     241    2.286062   242    2.297340   243    2.314569  
     244    2.316628   245    2.335663   246    2.343646  
     247    2.366663   248    2.376568   249    2.381882  
     250    2.398982   251    2.411492   252    2.418362  
     253    2.421808   254    2.424470   255    2.437211  
     256    2.454010   257    2.477848   258    2.495273  
     259    2.500526   260    2.514476   261    2.547180  
     262    2.554357   263    2.571736   264    2.579990  
     265    2.642082   266    2.649558   267    2.673296  
     268    2.684131   269    2.691630   270    2.711437  
     271    2.720149   272    2.734615   273    2.757921  
     274    2.774606   275    2.785335   276    2.798196  
     277    2.816130   278    2.840944   279    2.857836  
     280    2.862082   281    2.873244   282    2.888036  
     283    2.892871   284    2.904958   285    2.908550  
     286    2.931301   287    2.938390   288    2.957373  
     289    2.984335   290    3.009014   291    3.013441  
     292    3.017172   293    3.051986   294    3.092672  
     295    3.111277   296    3.126196   297    3.202749  
     298    3.265701   299    3.316837   300    3.356550  
     301    3.403279   302    3.431416   303    3.449160  
     304    3.549349   305    3.595347   306    3.647424  
     307    3.661486   308    3.713594   309    3.760160  
     310    3.783236   311    3.810679   312    3.906579  
     313    3.976339   314    3.978674   315    4.109877  
     316    4.130729   317    4.212491   318    4.454223  
     319    4.522872   320    4.556801   321    4.759899  
     322    4.943685   323    5.054969   324    5.077776  
     325    5.236366   326    5.341516   327    5.526186  
     328    5.620252   329    5.749528   330    5.826912  
     331    6.144645   332    6.381251   333    6.701393  
     334   13.390719   335   18.437790   336   33.422572  
     337   33.487285  

  ==> Frozen Core <==


    ------------------
    Range      A     B
    ------------------
    nbf      368   368
    nmo      337   337
    nocc      15    15
    nvir     322   322
    nfocc      4     4
    naocc     11    11
    navir    322   322
    nfvir      0     0
    ------------------

  ==> Unification <==

  ==> dHF <==

    E ABC(HF) =  -8.0026415143247527E+02 [Eh]
    E AC(0)   =  -5.7223102926918875E+02 [Eh]
    E BC(0)   =  -5.7223905780602831E+02 [Eh]
    E A(0)    =  -2.1265829548991456E+02 [Eh]
    E B(0)    =  -2.1266824259748148E+02 [Eh]
    E AC(HF)  =  -5.7222351090111238E+02 [Eh]
    E BC(HF)  =  -5.7223102296572984E+02 [Eh]
    E AB(HF)  =  -4.2528105338868795E+02 [Eh]
    E A(HF)   =  -2.1263780045646865E+02 [Eh]
    E B(HF)   =  -2.1264804621983859E+02 [Eh]
    E C       =  -3.4418558914674151E+02 [Eh]
    E HF      =   2.0346496000286152E-02 [Eh]

  ==> Electrostatics <==

    Elst10,r            =     0.018708508671 [Eh]

  ==> Exchange <==

    Exch10(S^2)         =     0.003740111315 [Eh]
    Exch10              =     0.003743761203 [Eh]

  ==> Induction <==

    Ind20,u (A<-B)      =    -0.001368640639 [Eh]
    Ind20,u (B<-A)      =    -0.001428991648 [Eh]
    Ind20,u             =    -0.002797632287 [Eh]
    Exch-Ind20,u (A<-B) =     0.000414796029 [Eh]
    Exch-Ind20,u (B<-A) =     0.000617821289 [Eh]
    Exch-Ind20,u        =     0.001032617318 [Eh]

  ==> CPHF Iterations <==

    Maxiter     =          50
    Convergence =   1.000E-08

    -----------------------------------------
    Iter   Monomer A    Monomer B    Time [s]
    -----------------------------------------
    1      2.599E-01    2.550E-01           6
    2      8.877E-02    8.972E-02          10
    3      2.917E-02    2.697E-02          16
    4      1.102E-02    1.108E-02          21
    5      3.909E-03    3.958E-03          26
    6      1.406E-03    1.551E-03          31
    7      4.471E-04    4.702E-04          37
    8      1.547E-04    1.793E-04          42
    9      4.126E-05    4.966E-05          48
    10     1.390E-05    1.844E-05          54
    11     3.999E-06    5.517E-06          58
    12     1.177E-06    1.403E-06          63
    13     3.091E-07    3.035E-07          68
    14     7.953E-08    8.248E-08          73
    15     1.740E-08    1.811E-08          78
    16     4.712E-09*   4.572E-09*         83
    -----------------------------------------

    Ind20,r (A<-B)      =    -0.001548135242 [Eh]
    Ind20,r (B<-A)      =    -0.001656425721 [Eh]
    Ind20,r             =    -0.003204560962 [Eh]
    Exch-Ind20,r (A<-B) =     0.000502611578 [Eh]
    Exch-Ind20,r (B<-A) =     0.000775854855 [Eh]
    Exch-Ind20,r        =     0.001278466433 [Eh]

  ==> F-SAPT Localization (IBO) <==

  Local Orbitals for Monomer A:

  ==> IBO Localizer 2 <==

    MinAO Basis = CC-PVTZ-MINAO
    Use Ghosts  =       FALSE
    Use Stars   =       FALSE
    Condition   =   1.000E-07
    Power       =           4
    Convergence =   1.000E-12
    Maxiter     =        1000

    @IBO Iter:                   Metric       Gradient
    @IBO    1:   1.4844344829930340E+00   1.601623E+00
    @IBO    2:   1.6751916871023518E+00   1.076530E+00
    @IBO    3:   1.7093611816691459E+00   3.344826E-01
    @IBO    4:   1.7111887271600212E+00   1.830986E-02
    @IBO    5:   1.7112012742845941E+00   9.487159E-04
    @IBO    6:   1.7112012848785925E+00   1.438611E-05
    @IBO    7:   1.7112012848823688E+00   4.553389E-07
    @IBO    8:   1.7112012848823732E+00   1.785289E-08
    @IBO    9:   1.7112012848823732E+00   7.468218E-10
    @IBO   10:   1.7112012848823734E+00   3.135655E-11
    @IBO   11:   1.7112012848823732E+00   1.311255E-12
    @IBO   12:   1.7112012848823732E+00   5.460458E-14

    IBO Localizer 2 converged.

  Local Orbitals for Monomer B:

  ==> IBO Localizer 2 <==

    MinAO Basis = CC-PVTZ-MINAO
    Use Ghosts  =       FALSE
    Use Stars   =       FALSE
    Condition   =   1.000E-07
    Power       =           4
    Convergence =   1.000E-12
    Maxiter     =        1000

    @IBO Iter:                   Metric       Gradient
    @IBO    1:   1.4823252123829198E+00   1.594298E+00
    @IBO    2:   1.6752838804905370E+00   1.083035E+00
    @IBO    3:   1.7101595640975638E+00   3.123588E-01
    @IBO    4:   1.7113848395329256E+00   3.391739E-03
    @IBO    5:   1.7113852532193781E+00   1.554506E-04
    @IBO    6:   1.7113852537374541E+00   5.860431E-06
    @IBO    7:   1.7113852537382623E+00   2.458530E-07
    @IBO    8:   1.7113852537382637E+00   1.043315E-08
    @IBO    9:   1.7113852537382639E+00   4.415478E-10
    @IBO   10:   1.7113852537382637E+00   1.859579E-11
    @IBO   11:   1.7113852537382637E+00   7.806905E-13

    IBO Localizer 2 converged.

  ==> F-SAPT Electrostatics <==

  ==> DFERI: Density Fitted 3-Index Tensors <==

    Schwarz cutoff =   0.000E+00
    J cutoff       =   1.000E-12
    Mem (GB)       =         628

   => Auxiliary Basis <=

  Basis Set: (JUN-CC-PVDZ AUX)
    Blend: JUN-CC-PVDZ-JKFIT
    Number of shells: 576
    Number of basis function: 1632
    Number of Cartesian functions: 1856
    Spherical Harmonics?: true
    Max angular momentum: 3

    Elst10,r            =     0.018708508868 [Eh]

  ==> F-SAPT Exchange <==

  ==> DFERI: Density Fitted 3-Index Tensors <==

    Schwarz cutoff =   0.000E+00
    J cutoff       =   1.000E-12
    Mem (GB)       =         628

   => Auxiliary Basis <=

  Basis Set: (JUN-CC-PVDZ AUX)
    Blend: JUN-CC-PVDZ-JKFIT
    Number of shells: 576
    Number of basis function: 1632
    Number of Cartesian functions: 1856
    Spherical Harmonics?: true
    Max angular momentum: 3

    Exch10(S^2)         =     0.003740111315 [Eh]

    Scaling F-SAPT Exch10(S^2) by   1.001E+00 to match Exch10

  ==> F-SAPT Induction <==

  ==> DFERI: Density Fitted 3-Index Tensors <==

    Schwarz cutoff =   0.000E+00
    J cutoff       =   1.000E-12
    Mem (GB)       =         628

   => Auxiliary Basis <=

  Basis Set: (JUN-CC-PVDZ AUX)
    Blend: JUN-CC-PVDZ-JKFIT
    Number of shells: 576
    Number of basis function: 1632
    Number of Cartesian functions: 1856
    Spherical Harmonics?: true
    Max angular momentum: 3

    Ind20,u (A<-B)      =    -0.001368640639 [Eh]
    Ind20,u (B<-A)      =    -0.001428991647 [Eh]
    Ind20,u             =    -0.002797632287 [Eh]
    Exch-Ind20,u (A<-B) =     0.000414796030 [Eh]
    Exch-Ind20,u (B<-A) =     0.000617821289 [Eh]
    Exch-Ind20,u        =     0.001032617319 [Eh]

    Scaling for delta HF        =   1.093E+00
    Scaling for response (A<-B) =   1.096E+00
    Scaling for response (B<-A) =   1.086E+00
    Scaling for total (A<-B)    =   1.198E+00
    Scaling for total (B<-A)    =   1.187E+00

  ==> F-SAPT Dispersion <==

  ==> DFERI: Density Fitted 3-Index Tensors <==

    Schwarz cutoff =   0.000E+00
    J cutoff       =   1.000E-12
    Mem (GB)       =         628

   => Auxiliary Basis <=

  Basis Set: (JUN-CC-PVDZ AUX)
    Blend: JUN-CC-PVDZ-RI
    Number of shells: 432
    Number of basis function: 1264
    Number of Cartesian functions: 1456
    Spherical Harmonics?: true
    Max angular momentum: 3

    Disp20              =    -0.003993314655 [Eh]
    Exch-Disp20         =     0.000348457348 [Eh]

  ==> F-SAPT Output <==

    F-SAPT Data Filepath = fsapt/

  ==> Results <==


    SAPT Results  
  --------------------------------------------------------------------------------------------------------
    Electrostatics                 18.70850867 [mEh]      11.73976692 [kcal/mol]      49.11918952 [kJ/mol]
      Elst10,r                     18.70850867 [mEh]      11.73976692 [kcal/mol]      49.11918952 [kJ/mol]

    Exchange                        3.74376120 [mEh]       2.34924572 [kcal/mol]       9.82924504 [kJ/mol]
      Exch10                        3.74376120 [mEh]       2.34924572 [kcal/mol]       9.82924504 [kJ/mol]
      Exch10(S^2)                   3.74011131 [mEh]       2.34695538 [kcal/mol]       9.81966226 [kJ/mol]

    Induction                      -2.10577387 [mEh]      -1.32139311 [kcal/mol]      -5.52870931 [kJ/mol]
      Ind20,r                      -3.20456096 [mEh]      -2.01089245 [kcal/mol]      -8.41357481 [kJ/mol]
      Exch-Ind20,r                  1.27846643 [mEh]       0.80224983 [kcal/mol]       3.35661362 [kJ/mol]
      delta HF,r (2)               -0.17967935 [mEh]      -0.11275050 [kcal/mol]      -0.47174812 [kJ/mol]
      Induction (A<-B)             -1.14305730 [mEh]      -0.71727932 [kcal/mol]      -3.00109695 [kJ/mol]
      Induction (B<-A)             -0.96271657 [mEh]      -0.60411379 [kcal/mol]      -2.52761236 [kJ/mol]

    Dispersion                     -3.64485731 [mEh]      -2.28718259 [kcal/mol]      -9.56957286 [kJ/mol]
      Disp20                       -3.99331466 [mEh]      -2.50584288 [kcal/mol]     -10.48444763 [kJ/mol]
      Exch-Disp20                   0.34845735 [mEh]       0.21866030 [kcal/mol]       0.91487477 [kJ/mol]

  Total HF                         20.34649600 [mEh]      12.76761953 [kcal/mol]      53.41972525 [kJ/mol]
  Total SAPT0                      16.70163869 [mEh]      10.48043695 [kcal/mol]      43.85015239 [kJ/mol]

  --------------------------------------------------------------------------------------------------------
    Han Solo: This is *not* gonna work.
    Luke Skywalker: Why didn't you say so before?
    Han Solo: I *did* say so before.

*** tstop() called on ThinkPad-P50 at Mon Jan 15 17:41:10 2018
Module time:
	user time   =     699.71 seconds =      11.66 minutes
	system time =       2.80 seconds =       0.05 minutes
	total time  =        200 seconds =       3.33 minutes
Total time:
	user time   =     868.09 seconds =      14.47 minutes
	system time =       3.71 seconds =       0.06 minutes
	total time  =        256 seconds =       4.27 minutes

*** Psi4 exiting successfully. Buy a developer a beer!
