
    -----------------------------------------------------------------------
          Psi4: An Open-Source Ab Initio Electronic Structure Package
                               Psi4 1.1 release

                         Git: Rev {HEAD} add49b9 


    R. M. Parrish, L. A. Burns, D. G. A. Smith, A. C. Simmonett,
    A. E. DePrince III, E. G. Hohenstein, U. Bozkaya, A. Yu. Sokolov,
    R. Di Remigio, R. M. Richard, J. F. Gonthier, A. M. James,
    H. R. McAlexander, A. Kumar, M. Saitow, X. Wang, B. P. Pritchard,
    P. Verma, H. F. Schaefer III, K. Patkowski, R. A. King, E. F. Valeev,
    F. A. Evangelista, J. M. Turney, T. D. Crawford, and C. D. Sherrill,
    J. Chem. Theory Comput. in press (2017).
    (doi: 10.1021/acs.jctc.7b00174)

    -----------------------------------------------------------------------


    Psi4 started on: Monday, 15 January 2018 05:41PM

    Process ID:  17800
    PSIDATADIR: /home/junteng/Softwares/psi4conda/share/psi4
    Memory:     500.0 MiB
    Threads:    4
    
  ==> Input File <==

--------------------------------------------------------------------------
memory 750000 mb

molecule mol {
0 1
C          2.83092       -1.20999        0.06546
H          2.32873       -2.02546       -0.45029
H          3.07192       -1.52838        1.08385
H          3.76713       -0.98931       -0.45233
--
0 1
C         -0.23870       -1.32473        0.66912
O         -1.06383       -1.67288        1.48362
O         -0.01570       -1.96815       -0.48222
C         -0.89322       -3.06650       -0.78762
H         -0.53065       -3.46799       -1.73103
H         -0.85537       -3.82241       -0.00207
H         -1.91522       -2.70197       -0.89905
--
0 1
H          0.44179        2.08853       -1.75001
C         -1.52688        0.88707       -0.32647
O         -1.77566        0.42858       -1.41439
O         -2.46609        1.17928        0.59601
C         -3.81823        0.81062        0.26554
H         -3.88704       -0.26859        0.12098
H         -4.41813        1.11796        1.11894
H         -4.14502        1.32161       -0.64121
C         -0.14738        1.19612        0.21599
C          0.59110       -0.05936        0.83862
C          0.88181        1.64030       -0.86246
C          1.98255        2.44595       -0.14937
C          2.69484        1.30593        0.63335
C          1.96475        0.03089        0.10169
O          1.56276        0.43605       -1.21940
H         -0.26820        1.95729        0.98576
H          0.69749        0.07206        1.91497
H          2.65001        2.89970       -0.88332
H          1.58669        3.23698        0.49087
H          3.75592        1.25190        0.38618
H          2.61135        1.40753        1.71769

symmetry c1
no_reorient
no_com
}

set {
basis jun-cc-pvdz
scf_type df
guess sad
freeze_core true
}

energy('fisapt0')
--------------------------------------------------------------------------

  Memory set to 698.492 GiB by Python driver.

*** tstart() called on ThinkPad-P50
*** at Mon Jan 15 17:41:11 2018

   => Loading Basis Set <=

    Name: JUN-CC-PVDZ
    Role: ORBITAL
    Keyword: BASIS
    atoms 1, 5, 8, 13, 16, 20-25  entry C          line   157 file /home/junteng/Softwares/psi4conda/share/psi4/basis/jun-cc-pvdz.gbs 
    atoms 2-4, 9-12, 17-19, 27-32 entry H          line    35 file /home/junteng/Softwares/psi4conda/share/psi4/basis/jun-cc-pvdz.gbs 
    atoms 6-7, 14-15, 26          entry O          line   225 file /home/junteng/Softwares/psi4conda/share/psi4/basis/jun-cc-pvdz.gbs 


         ---------------------------------------------------------
                                   SCF
            by Justin Turney, Rob Parrish, and Andy Simmonett
                              RHF Reference
                        4 Threads, 715255 MiB Core
         ---------------------------------------------------------

  ==> Geometry <==

    Molecular point group: c1
    Full point group: C1

    Geometry (in Angstrom), charge = 0, multiplicity = 1:

       Center              X                  Y                   Z               Mass       
    ------------   -----------------  -----------------  -----------------  -----------------
           C          2.830920000000    -1.209990000000     0.065460000000    12.000000000000
           H          2.328730000000    -2.025460000000    -0.450290000000     1.007825032070
           H          3.071920000000    -1.528380000000     1.083850000000     1.007825032070
           H          3.767130000000    -0.989310000000    -0.452330000000     1.007825032070
           C         -0.238700000000    -1.324730000000     0.669120000000    12.000000000000
           O         -1.063830000000    -1.672880000000     1.483620000000    15.994914619560
           O         -0.015700000000    -1.968150000000    -0.482220000000    15.994914619560
           C         -0.893220000000    -3.066500000000    -0.787620000000    12.000000000000
           H         -0.530650000000    -3.467990000000    -1.731030000000     1.007825032070
           H         -0.855370000000    -3.822410000000    -0.002070000000     1.007825032070
           H         -1.915220000000    -2.701970000000    -0.899050000000     1.007825032070
           H          0.441790000000     2.088530000000    -1.750010000000     1.007825032070
           C         -1.526880000000     0.887070000000    -0.326470000000    12.000000000000
           O         -1.775660000000     0.428580000000    -1.414390000000    15.994914619560
           O         -2.466090000000     1.179280000000     0.596010000000    15.994914619560
           C         -3.818230000000     0.810620000000     0.265540000000    12.000000000000
           H         -3.887040000000    -0.268590000000     0.120980000000     1.007825032070
           H         -4.418130000000     1.117960000000     1.118940000000     1.007825032070
           H         -4.145020000000     1.321610000000    -0.641210000000     1.007825032070
           C         -0.147380000000     1.196120000000     0.215990000000    12.000000000000
           C          0.591100000000    -0.059360000000     0.838620000000    12.000000000000
           C          0.881810000000     1.640300000000    -0.862460000000    12.000000000000
           C          1.982550000000     2.445950000000    -0.149370000000    12.000000000000
           C          2.694840000000     1.305930000000     0.633350000000    12.000000000000
           C          1.964750000000     0.030890000000     0.101690000000    12.000000000000
           O          1.562760000000     0.436050000000    -1.219400000000    15.994914619560
           H         -0.268200000000     1.957290000000     0.985760000000     1.007825032070
           H          0.697490000000     0.072060000000     1.914970000000     1.007825032070
           H          2.650010000000     2.899700000000    -0.883320000000     1.007825032070
           H          1.586690000000     3.236980000000     0.490870000000     1.007825032070
           H          3.755920000000     1.251900000000     0.386180000000     1.007825032070
           H          2.611350000000     1.407530000000     1.717690000000     1.007825032070

  Running in c1 symmetry.

  Rotational constants: A =      0.02514  B =      0.01701  C =      0.01250 [cm^-1]
  Rotational constants: A =    753.58732  B =    509.94183  C =    374.81098 [MHz]
  Nuclear repulsion = 1259.319848223926556

  Charge       = 0
  Multiplicity = 1
  Electrons    = 122
  Nalpha       = 61
  Nbeta        = 61

  ==> Algorithm <==

  SCF Algorithm Type is DF.
  DIIS enabled.
  MOM disabled.
  Fractional occupation disabled.
  Guess Type is SAD.
  Energy threshold   = 1.00e-08
  Density threshold  = 1.00e-08
  Integral threshold = 0.00e+00

  ==> Primary Basis <==

  Basis Set: JUN-CC-PVDZ
    Blend: JUN-CC-PVDZ
    Number of shells: 176
    Number of basis function: 368
    Number of Cartesian functions: 384
    Spherical Harmonics?: true
    Max angular momentum: 2

   => Loading Basis Set <=

    Name: (JUN-CC-PVDZ AUX)
    Role: JKFIT
    Keyword: DF_BASIS_SCF
    atoms 1, 5, 8, 13, 16, 20-25  entry C          line   145 file /home/junteng/Softwares/psi4conda/share/psi4/basis/jun-cc-pvdz-jkfit.gbs 
    atoms 2-4, 9-12, 17-19, 27-32 entry H          line    69 file /home/junteng/Softwares/psi4conda/share/psi4/basis/jun-cc-pvdz-jkfit.gbs 
    atoms 6-7, 14-15, 26          entry O          line   257 file /home/junteng/Softwares/psi4conda/share/psi4/basis/jun-cc-pvdz-jkfit.gbs 

  ==> Pre-Iterations <==

   -------------------------------------------------------
    Irrep   Nso     Nmo     Nalpha   Nbeta   Ndocc  Nsocc
   -------------------------------------------------------
     A        368     368       0       0       0       0
   -------------------------------------------------------
    Total     368     368      61      61      61       0
   -------------------------------------------------------

  ==> Integral Setup <==

  ==> DFJK: Density-Fitted J/K Matrices <==

    J tasked:                  Yes
    K tasked:                  Yes
    wK tasked:                  No
    OpenMP threads:              4
    Integrals threads:           4
    Memory (MB):            536441
    Algorithm:                Core
    Integral Cache:           NONE
    Schwarz Cutoff:          1E-12
    Fitting Condition:       1E-12

   => Auxiliary Basis Set <=

  Basis Set: (JUN-CC-PVDZ AUX)
    Blend: JUN-CC-PVDZ-JKFIT
    Number of shells: 576
    Number of basis function: 1632
    Number of Cartesian functions: 1856
    Spherical Harmonics?: true
    Max angular momentum: 3

  Minimum eigenvalue in the overlap matrix is 1.0954579910E-05.
  Using Symmetric Orthogonalization.

  SCF Guess: Superposition of Atomic Densities via on-the-fly atomic UHF.

  ==> Iterations <==

                           Total Energy        Delta E     RMS |[F,P]|

   @DF-RHF iter   0:  -807.07362112087594   -8.07074e+02   4.03566e-02 
   @DF-RHF iter   1:  -799.72171890019695    7.35190e+00   4.68488e-03 
   @DF-RHF iter   2:  -800.12707042420288   -4.05352e-01   2.88035e-03 DIIS
   @DF-RHF iter   3:  -800.24159261638488   -1.14522e-01   8.34076e-04 DIIS
   @DF-RHF iter   4:  -800.26157645928868   -1.99838e-02   2.80697e-04 DIIS
   @DF-RHF iter   5:  -800.26368139562453   -2.10494e-03   9.69974e-05 DIIS
   @DF-RHF iter   6:  -800.26407031001713   -3.88914e-04   4.10151e-05 DIIS
   @DF-RHF iter   7:  -800.26413799061027   -6.76806e-05   1.57627e-05 DIIS
   @DF-RHF iter   8:  -800.26414923984896   -1.12492e-05   5.73673e-06 DIIS
   @DF-RHF iter   9:  -800.26415106759418   -1.82775e-06   2.45706e-06 DIIS
   @DF-RHF iter  10:  -800.26415136003106   -2.92437e-07   1.00943e-06 DIIS
   @DF-RHF iter  11:  -800.26415141782081   -5.77897e-08   4.07711e-07 DIIS
   @DF-RHF iter  12:  -800.26415142686449   -9.04367e-09   1.61521e-07 DIIS
   @DF-RHF iter  13:  -800.26415142828421   -1.41972e-09   6.18796e-08 DIIS
   @DF-RHF iter  14:  -800.26415142852250   -2.38288e-10   2.65766e-08 DIIS
   @DF-RHF iter  15:  -800.26415142855831   -3.58114e-11   8.94406e-09 DIIS

  ==> Post-Iterations <==

    Orbital Energies (a.u.)
    -----------------------

    Doubly Occupied:                                                      

       1A    -20.610393     2A    -20.605766     3A    -20.563051  
       4A    -20.557626     5A    -20.554439     6A    -11.390947  
       7A    -11.389775     8A    -11.302950     9A    -11.294516  
      10A    -11.293232    11A    -11.290170    12A    -11.269104  
      13A    -11.267335    14A    -11.240625    15A    -11.239675  
      16A    -11.227501    17A     -1.469081    18A     -1.463743  
      19A     -1.401948    20A     -1.366557    21A     -1.363132  
      22A     -1.115039    23A     -1.061917    24A     -1.050471  
      25A     -0.991456    26A     -0.967067    27A     -0.936553  
      28A     -0.881918    29A     -0.822804    30A     -0.799128  
      31A     -0.767792    32A     -0.763554    33A     -0.716516  
      34A     -0.697667    35A     -0.690463    36A     -0.679504  
      37A     -0.675590    38A     -0.664716    39A     -0.657880  
      40A     -0.654175    41A     -0.626473    42A     -0.592994  
      43A     -0.584570    44A     -0.575887    45A     -0.570206  
      46A     -0.563138    47A     -0.541518    48A     -0.530686  
      49A     -0.528331    50A     -0.521355    51A     -0.517335  
      52A     -0.507668    53A     -0.499378    54A     -0.494540  
      55A     -0.480364    56A     -0.467972    57A     -0.464242  
      58A     -0.454210    59A     -0.451868    60A     -0.431095  
      61A     -0.423835  

    Virtual:                                                              

      62A      0.050944    63A      0.056799    64A      0.057675  
      65A      0.067724    66A      0.073100    67A      0.077259  
      68A      0.084958    69A      0.091581    70A      0.100789  
      71A      0.102780    72A      0.106785    73A      0.117079  
      74A      0.120097    75A      0.122878    76A      0.128372  
      77A      0.131353    78A      0.142230    79A      0.144547  
      80A      0.149550    81A      0.157317    82A      0.161091  
      83A      0.165526    84A      0.166150    85A      0.174097  
      86A      0.179797    87A      0.184761    88A      0.192154  
      89A      0.195410    90A      0.200944    91A      0.208467  
      92A      0.216753    93A      0.221381    94A      0.224845  
      95A      0.227221    96A      0.232571    97A      0.238170  
      98A      0.243632    99A      0.246903   100A      0.250952  
     101A      0.256687   102A      0.263595   103A      0.265972  
     104A      0.269007   105A      0.270537   106A      0.299063  
     107A      0.303162   108A      0.304810   109A      0.310349  
     110A      0.313476   111A      0.318563   112A      0.328822  
     113A      0.333799   114A      0.340818   115A      0.346923  
     116A      0.350600   117A      0.354578   118A      0.358104  
     119A      0.363119   120A      0.370431   121A      0.375729  
     122A      0.383558   123A      0.391257   124A      0.391704  
     125A      0.398710   126A      0.404477   127A      0.408734  
     128A      0.416719   129A      0.422191   130A      0.425397  
     131A      0.427419   132A      0.432470   133A      0.436396  
     134A      0.444666   135A      0.446492   136A      0.448518  
     137A      0.455453   138A      0.459759   139A      0.463271  
     140A      0.481151   141A      0.491759   142A      0.496256  
     143A      0.501451   144A      0.512313   145A      0.517050  
     146A      0.525727   147A      0.533768   148A      0.539019  
     149A      0.547737   150A      0.554413   151A      0.566733  
     152A      0.571006   153A      0.583270   154A      0.598395  
     155A      0.606133   156A      0.621378   157A      0.657825  
     158A      0.662108   159A      0.702673   160A      0.712817  
     161A      0.750758   162A      0.765513   163A      0.771835  
     164A      0.784818   165A      0.798018   166A      0.808949  
     167A      0.824337   168A      0.844733   169A      0.856805  
     170A      0.861588   171A      0.874313   172A      0.886408  
     173A      0.887024   174A      0.891778   175A      0.900469  
     176A      0.912369   177A      0.914738   178A      0.926668  
     179A      0.930803   180A      0.934537   181A      0.938191  
     182A      0.947760   183A      0.948496   184A      0.959524  
     185A      0.968125   186A      0.968798   187A      0.975840  
     188A      0.982811   189A      0.984760   190A      0.989707  
     191A      0.997303   192A      1.002240   193A      1.015231  
     194A      1.032670   195A      1.039117   196A      1.043422  
     197A      1.050636   198A      1.068282   199A      1.074434  
     200A      1.091131   201A      1.096533   202A      1.104205  
     203A      1.114419   204A      1.117584   205A      1.126915  
     206A      1.149847   207A      1.167710   208A      1.202897  
     209A      1.211170   210A      1.235758   211A      1.253415  
     212A      1.268563   213A      1.277532   214A      1.294440  
     215A      1.335396   216A      1.339565   217A      1.364768  
     218A      1.371654   219A      1.435159   220A      1.449747  
     221A      1.471148   222A      1.473362   223A      1.491217  
     224A      1.502282   225A      1.504720   226A      1.510929  
     227A      1.533323   228A      1.545697   229A      1.577061  
     230A      1.581716   231A      1.584304   232A      1.596857  
     233A      1.611504   234A      1.620046   235A      1.624834  
     236A      1.628611   237A      1.643696   238A      1.652056  
     239A      1.667442   240A      1.673010   241A      1.684702  
     242A      1.686087   243A      1.696611   244A      1.700833  
     245A      1.711427   246A      1.727686   247A      1.739565  
     248A      1.748549   249A      1.761912   250A      1.771092  
     251A      1.786101   252A      1.807192   253A      1.831698  
     254A      1.851852   255A      1.852999   256A      1.869150  
     257A      1.883480   258A      1.891752   259A      1.902055  
     260A      1.908177   261A      1.931120   262A      1.935509  
     263A      1.950363   264A      1.955727   265A      1.964482  
     266A      1.969781   267A      1.986429   268A      1.997305  
     269A      2.006165   270A      2.008283   271A      2.013318  
     272A      2.022717   273A      2.034539   274A      2.040281  
     275A      2.048452   276A      2.055336   277A      2.066508  
     278A      2.089617   279A      2.095837   280A      2.102104  
     281A      2.110625   282A      2.114539   283A      2.121773  
     284A      2.143146   285A      2.146659   286A      2.164446  
     287A      2.185078   288A      2.187762   289A      2.198424  
     290A      2.211617   291A      2.237284   292A      2.254862  
     293A      2.271243   294A      2.276268   295A      2.305453  
     296A      2.318456   297A      2.329646   298A      2.335986  
     299A      2.353442   300A      2.357772   301A      2.383933  
     302A      2.393906   303A      2.401047   304A      2.407872  
     305A      2.417045   306A      2.425781   307A      2.434644  
     308A      2.438885   309A      2.458604   310A      2.470017  
     311A      2.478356   312A      2.504083   313A      2.530859  
     314A      2.549297   315A      2.563602   316A      2.602246  
     317A      2.640511   318A      2.658855   319A      2.665565  
     320A      2.716366   321A      2.744884   322A      2.755443  
     323A      2.777325   324A      2.785004   325A      2.794091  
     326A      2.812703   327A      2.821747   328A      2.831339  
     329A      2.847713   330A      2.856027   331A      2.873504  
     332A      2.874267   333A      2.884588   334A      2.897272  
     335A      2.925068   336A      2.932622   337A      2.953083  
     338A      2.966251   339A      2.996854   340A      3.005660  
     341A      3.021222   342A      3.024753   343A      3.079887  
     344A      3.111041   345A      3.129301   346A      3.181953  
     347A      3.264723   348A      3.271125   349A      3.297552  
     350A      3.332413   351A      3.358545   352A      3.396648  
     353A      3.417876   354A      3.429161   355A      3.525183  
     356A      3.551117   357A      3.573805   358A      3.599011  
     359A      3.673596   360A      3.688575   361A      3.706161  
     362A      3.775283   363A      3.822656   364A      3.863586  
     365A      3.954170   366A      3.970403   367A      4.087631  
     368A      4.116038  

    Final Occupation by Irrep:
              A 
    DOCC [    61 ]

  Energy converged.

  @DF-RHF Final Energy:  -800.26415142855831

   => Energetics <=

    Nuclear Repulsion Energy =           1259.3198482239265559
    One-Electron Energy =               -3598.0011148117773701
    Two-Electron Energy =                1538.4171151592922797
    DFT Exchange-Correlation Energy =       0.0000000000000000
    Empirical Dispersion Energy =           0.0000000000000000
    PCM Polarization Energy =               0.0000000000000000
    EFP Energy =                            0.0000000000000000
    Total Energy =                       -800.2641514285583071



Properties will be evaluated at   0.000000,   0.000000,   0.000000 Bohr

Properties computed using the SCF density matrix

  Nuclear Dipole Moment: (a.u.)
     X:     1.4222      Y:     7.0114      Z:    -6.2323

  Electronic Dipole Moment: (a.u.)
     X:    -1.0923      Y:    -6.5054      Z:     6.7176

  Dipole Moment: (a.u.)
     X:     0.3299      Y:     0.5061      Z:     0.4853     Total:     0.7749

  Dipole Moment: (Debye)
     X:     0.8384      Y:     1.2863      Z:     1.2335     Total:     1.9695


*** tstop() called on ThinkPad-P50 at Mon Jan 15 17:42:02 2018
Module time:
	user time   =     155.08 seconds =       2.58 minutes
	system time =       0.77 seconds =       0.01 minutes
	total time  =         51 seconds =       0.85 minutes
Total time:
	user time   =     155.08 seconds =       2.58 minutes
	system time =       0.77 seconds =       0.01 minutes
	total time  =         51 seconds =       0.85 minutes
   => Loading Basis Set <=

    Name: (JUN-CC-PVDZ AUX)
    Role: JKFIT
    Keyword: DF_BASIS_SCF
    atoms 1, 5, 8, 13, 16, 20-25  entry C          line   145 file /home/junteng/Softwares/psi4conda/share/psi4/basis/jun-cc-pvdz-jkfit.gbs 
    atoms 2-4, 9-12, 17-19, 27-32 entry H          line    69 file /home/junteng/Softwares/psi4conda/share/psi4/basis/jun-cc-pvdz-jkfit.gbs 
    atoms 6-7, 14-15, 26          entry O          line   257 file /home/junteng/Softwares/psi4conda/share/psi4/basis/jun-cc-pvdz-jkfit.gbs 

   => Loading Basis Set <=

    Name: (JUN-CC-PVDZ AUX)
    Role: RIFIT
    Keyword: DF_BASIS_SAPT
    atoms 1, 5, 8, 13, 16, 20-25  entry C          line    99 file /home/junteng/Softwares/psi4conda/share/psi4/basis/jun-cc-pvdz-ri.gbs 
    atoms 2-4, 9-12, 17-19, 27-32 entry H          line    29 file /home/junteng/Softwares/psi4conda/share/psi4/basis/jun-cc-pvdz-ri.gbs 
    atoms 6-7, 14-15, 26          entry O          line   187 file /home/junteng/Softwares/psi4conda/share/psi4/basis/jun-cc-pvdz-ri.gbs 

   => Loading Basis Set <=

    Name: CC-PVTZ-MINAO
    Role: ORBITAL
    Keyword: BASIS
    atoms 1, 5, 8, 13, 16, 20-25  entry C          line   130 file /home/junteng/Softwares/psi4conda/share/psi4/basis/cc-pvtz-minao.gbs 
    atoms 2-4, 9-12, 17-19, 27-32 entry H          line    19 file /home/junteng/Softwares/psi4conda/share/psi4/basis/cc-pvtz-minao.gbs 
    atoms 6-7, 14-15, 26          entry O          line   190 file /home/junteng/Softwares/psi4conda/share/psi4/basis/cc-pvtz-minao.gbs 


*** tstart() called on ThinkPad-P50
*** at Mon Jan 15 17:42:02 2018

	 --------------------------------------------
	                    FISAPT0                  
	                  Rob Parrish                
	 --------------------------------------------

    Do F-SAPT =         Yes
    Do Plot   =          No
    Memory    =      78.580 [GD]

  ==> Localization (IBO) <==

  ==> IBO Localizer 2 <==

    MinAO Basis = CC-PVTZ-MINAO
    Use Ghosts  =       FALSE
    Use Stars   =       FALSE
    Condition   =   1.000E-07
    Power       =           4
    Convergence =   1.000E-12
    Maxiter     =        1000

    @IBO Iter:                   Metric       Gradient
    @IBO    1:   1.9779586798519417E+00   2.755990E+00
    @IBO    2:   2.2154590361443858E+00   2.688889E+00
    @IBO    3:   2.3182053869455532E+00   1.332468E+00
    @IBO    4:   2.3318718670957970E+00   1.592543E-01
    @IBO    5:   2.3320308538980563E+00   3.714779E-03
    @IBO    6:   2.3320309280623359E+00   6.425126E-05
    @IBO    7:   2.3320309280928262E+00   2.117323E-06
    @IBO    8:   2.3320309280928599E+00   7.389843E-08
    @IBO    9:   2.3320309280928608E+00   3.145466E-09
    @IBO   10:   2.3320309280928599E+00   1.476569E-10
    @IBO   11:   2.3320309280928604E+00   7.093104E-12
    @IBO   12:   2.3320309280928599E+00   3.413203E-13

    IBO Localizer 2 converged.

  ==> Partitioning <==

   => Atomic Partitioning <= 

    Monomer A:   4 atoms
    Monomer B:   7 atoms
    Monomer C:  21 atoms

   => Link Bond Identification <=

    Link Bond Selection = AUTOMATIC

    Charge Completeness = 0.800

    Total Link Bonds = 2

    --------------------------
    N     Orb Type Aind1 Aind2
    --------------------------
    1      29   BC     5    21
    2      37   AC     1    25
    --------------------------

   => Link Bond Assignment <=

    Link Bond Assignment      = C

   => Partition Summary <=

    Monomer A:  0 charge,   8 protons,   8 electrons,   4 docc
    Monomer B:  0 charge,  30 protons,  30 electrons,  15 docc
    Monomer C:  0 charge,  84 protons,  84 electrons,  42 docc

  ==> Overlap Integrals <==

  ==> Kinetic Integrals <==

  ==> Nuclear Integrals <==

    Nuclear Repulsion Tot:   1.2593198482239263E+03 [Eh]

  ==> Coulomb Integrals <==

  ==> DFJK: Density-Fitted J/K Matrices <==

    J tasked:                  Yes
    K tasked:                  Yes
    wK tasked:                  No
    OpenMP threads:              4
    Integrals threads:           4
    Memory (MB):            643730
    Algorithm:                Core
    Integral Cache:           NONE
    Schwarz Cutoff:          1E-12
    Fitting Condition:       1E-12

   => Auxiliary Basis Set <=

  Basis Set: (JUN-CC-PVDZ AUX)
    Blend: JUN-CC-PVDZ-JKFIT
    Number of shells: 576
    Number of basis function: 1632
    Number of Cartesian functions: 1856
    Spherical Harmonics?: true
    Max angular momentum: 3

  ==> Relaxed SCF Equations <==

  ==> SCF A: <==

    Maxiter =          50
    E Tol   =   1.000E-06
    D Tol   =   1.000E-08

    Max DIIS Vectors = 5

    Iter   N:                        E          dE         |D|
    Iter   1:  -3.6204224941977415E+01  -3.620E+01   5.289E-04 
    Iter   2:  -3.6206734387035155E+01  -2.509E-03   5.154E-05 DIIS
    Iter   3:  -3.6206807458914710E+01  -7.307E-05   1.140E-05 DIIS
    Iter   4:  -3.6206812728490412E+01  -5.270E-06   2.976E-06 DIIS
    Iter   5:  -3.6206813040765418E+01  -3.123E-07   5.784E-07 DIIS
    Iter   6:  -3.6206813053088034E+01  -1.232E-08   7.609E-08 DIIS
    Iter   7:  -3.6206813053309041E+01  -2.210E-10   1.146E-08 DIIS
    Iter   8:  -3.6206813053314065E+01  -5.024E-12   1.629E-09 DIIS

    FISAPTSCF Converged.

    Final SCF Energy:  -3.6206813053314065E+01 [Eh]

   => Occupied Orbital Energies <=

       1  -11.219602     2   -0.836076     3   -0.547739  
       4   -0.544492  

   => Virtual Orbital Energies <=

       5    0.033190     6    0.055405     7    0.057980  
       8    0.066026     9    0.067040    10    0.076393  
      11    0.083376    12    0.087476    13    0.095527  
      14    0.099960    15    0.102085    16    0.106327  
      17    0.117313    18    0.120226    19    0.124390  
      20    0.129761    21    0.132974    22    0.140985  
      23    0.146321    24    0.152854    25    0.156210  
      26    0.165898    27    0.175202    28    0.176343  
      29    0.180443    30    0.187641    31    0.191511  
      32    0.200114    33    0.201556    34    0.206202  
      35    0.207874    36    0.218264    37    0.221945  
      38    0.228775    39    0.232636    40    0.237890  
      41    0.245967    42    0.248823    43    0.253928  
      44    0.258270    45    0.262131    46    0.268511  
      47    0.272440    48    0.278361    49    0.286270  
      50    0.290243    51    0.301145    52    0.312158  
      53    0.315384    54    0.318869    55    0.323103  
      56    0.329770    57    0.334225    58    0.348388  
      59    0.353940    60    0.358314    61    0.361745  
      62    0.365185    63    0.370405    64    0.373415  
      65    0.381297    66    0.386914    67    0.394987  
      68    0.396446    69    0.403447    70    0.407892  
      71    0.413963    72    0.421744    73    0.425532  
      74    0.431707    75    0.434659    76    0.439140  
      77    0.443702    78    0.450335    79    0.461404  
      80    0.471967    81    0.474165    82    0.480512  
      83    0.495137    84    0.501193    85    0.514133  
      86    0.519838    87    0.528975    88    0.529340  
      89    0.542466    90    0.547977    91    0.552221  
      92    0.569662    93    0.588034    94    0.595092  
      95    0.601119    96    0.610939    97    0.615296  
      98    0.621639    99    0.632198   100    0.648475  
     101    0.660295   102    0.680859   103    0.706722  
     104    0.713703   105    0.731191   106    0.769362  
     107    0.777994   108    0.786429   109    0.794466  
     110    0.810040   111    0.827906   112    0.848320  
     113    0.863181   114    0.880778   115    0.890560  
     116    0.895001   117    0.909124   118    0.919057  
     119    0.925730   120    0.928170   121    0.934880  
     122    0.940323   123    0.950677   124    0.955285  
     125    0.959937   126    0.966533   127    0.977386  
     128    0.981811   129    0.983843   130    0.991984  
     131    1.004076   132    1.011044   133    1.017756  
     134    1.018430   135    1.041463   136    1.050419  
     137    1.052360   138    1.054600   139    1.068086  
     140    1.084318   141    1.091348   142    1.096372  
     143    1.112290   144    1.123155   145    1.127756  
     146    1.143838   147    1.165718   148    1.180088  
     149    1.185122   150    1.207335   151    1.234511  
     152    1.246593   153    1.262548   154    1.287522  
     155    1.307254   156    1.351357   157    1.367428  
     158    1.376419   159    1.407795   160    1.434099  
     161    1.466027   162    1.482669   163    1.504452  
     164    1.517931   165    1.526371   166    1.536913  
     167    1.553531   168    1.556970   169    1.564147  
     170    1.591152   171    1.601096   172    1.611991  
     173    1.619151   174    1.629383   175    1.641547  
     176    1.655941   177    1.660968   178    1.665829  
     179    1.680335   180    1.688004   181    1.711493  
     182    1.718127   183    1.734040   184    1.752366  
     185    1.780855   186    1.802853   187    1.809130  
     188    1.812676   189    1.828561   190    1.829502  
     191    1.850088   192    1.860289   193    1.881286  
     194    1.884778   195    1.906880   196    1.921718  
     197    1.932957   198    1.940741   199    1.952615  
     200    1.964374   201    1.966353   202    1.974748  
     203    1.992792   204    2.007070   205    2.008721  
     206    2.015625   207    2.027168   208    2.034152  
     209    2.044342   210    2.052869   211    2.055715  
     212    2.080394   213    2.093868   214    2.102804  
     215    2.118138   216    2.126765   217    2.132674  
     218    2.135868   219    2.154979   220    2.156679  
     221    2.162167   222    2.172113   223    2.172617  
     224    2.186710   225    2.206884   226    2.231049  
     227    2.238465   228    2.253953   229    2.276386  
     230    2.287184   231    2.298105   232    2.315414  
     233    2.317369   234    2.335882   235    2.344321  
     236    2.367061   237    2.376021   238    2.381840  
     239    2.398169   240    2.411945   241    2.418318  
     242    2.421674   243    2.424489   244    2.437639  
     245    2.454134   246    2.478704   247    2.495947  
     248    2.501217   249    2.515305   250    2.547978  
     251    2.555496   252    2.572926   253    2.580713  
     254    2.642755   255    2.650419   256    2.673480  
     257    2.683996   258    2.692326   259    2.712315  
     260    2.721134   261    2.735448   262    2.757575  
     263    2.774425   264    2.785317   265    2.796790  
     266    2.815766   267    2.840707   268    2.856707  
     269    2.861866   270    2.872846   271    2.888525  
     272    2.892194   273    2.904035   274    2.908608  
     275    2.931366   276    2.937835   277    2.958429  
     278    2.984655   279    3.009747   280    3.014551  
     281    3.017886   282    3.052885   283    3.093595  
     284    3.111639   285    3.126930   286    3.203349  
     287    3.265520   288    3.317589   289    3.357414  
     290    3.404281   291    3.432179   292    3.449460  
     293    3.549681   294    3.597051   295    3.648513  
     296    3.662479   297    3.714310   298    3.761036  
     299    3.784377   300    3.811785   301    3.907303  
     302    3.978042   303    3.979645   304    4.111871  
     305    4.131083   306    4.212635   307    4.456152  
     308    4.524180   309    4.558150   310    4.760884  
     311    4.944547   312    5.055562   313    5.078671  
     314    5.237900   315    5.343295   316    5.526689  
     317    5.620543   318    5.750785   319    5.827227  
     320    6.146866   321    6.383191   322    6.702134  
     323   13.392079   324   18.438629   325   33.422889  
     326   33.489441  

  ==> SCF B: <==

    Maxiter =          50
    E Tol   =   1.000E-06
    D Tol   =   1.000E-08

    Max DIIS Vectors = 5

    Iter   N:                        E          dE         |D|
    Iter   1:  -2.2404381694695394E+02  -2.240E+02   1.180E-03 
    Iter   2:  -2.2405472550854989E+02  -1.091E-02   1.065E-04 DIIS
    Iter   3:  -2.2405505998373144E+02  -3.345E-04   2.952E-05 DIIS
    Iter   4:  -2.2405508126693439E+02  -2.128E-05   1.791E-05 DIIS
    Iter   5:  -2.2405508576596785E+02  -4.499E-06   2.634E-06 DIIS
    Iter   6:  -2.2405508601643243E+02  -2.505E-07   1.122E-06 DIIS
    Iter   7:  -2.2405508604286641E+02  -2.643E-08   3.439E-07 DIIS
    Iter   8:  -2.2405508604623870E+02  -3.372E-09   1.187E-07 DIIS
    Iter   9:  -2.2405508604662970E+02  -3.910E-10   5.218E-08 DIIS
    Iter  10:  -2.2405508604672386E+02  -9.416E-11   2.016E-08 DIIS
    Iter  11:  -2.2405508604673716E+02  -1.330E-11   9.669E-09 DIIS

    FISAPTSCF Converged.

    Final SCF Energy:  -2.2405508604673716E+02 [Eh]

   => Occupied Orbital Energies <=

       1  -20.601257     2  -20.547991     3  -11.383903  
       4  -11.286787     5   -1.436406     6   -1.354081  
       7   -0.956903     8   -0.761369     9   -0.667348  
      10   -0.657857    11   -0.614805    12   -0.539375  
      13   -0.528477    14   -0.471514    15   -0.454813  

   => Virtual Orbital Energies <=

      16    0.008050    17    0.058189    18    0.058822  
      19    0.066601    20    0.068065    21    0.075252  
      22    0.084411    23    0.088535    24    0.096405  
      25    0.101892    26    0.103243    27    0.106392  
      28    0.117026    29    0.121580    30    0.123331  
      31    0.129611    32    0.132878    33    0.141766  
      34    0.146063    35    0.153533    36    0.162711  
      37    0.163502    38    0.167493    39    0.172713  
      40    0.175410    41    0.183295    42    0.187666  
      43    0.193272    44    0.196154    45    0.205328  
      46    0.210553    47    0.220077    48    0.221658  
      49    0.227688    50    0.231259    51    0.237439  
      52    0.240448    53    0.247523    54    0.249134  
      55    0.259257    56    0.262604    57    0.265385  
      58    0.274428    59    0.276335    60    0.301621  
      61    0.303680    62    0.308693    63    0.313626  
      64    0.318759    65    0.320372    66    0.328716  
      67    0.334511    68    0.338080    69    0.346625  
      70    0.350899    71    0.357661    72    0.362419  
      73    0.370187    74    0.374968    75    0.380646  
      76    0.387732    77    0.391000    78    0.394722  
      79    0.406313    80    0.413567    81    0.416575  
      82    0.418456    83    0.420563    84    0.428127  
      85    0.431791    86    0.438680    87    0.439859  
      88    0.448738    89    0.450366    90    0.454241  
      91    0.456624    92    0.471063    93    0.477315  
      94    0.481637    95    0.487114    96    0.505682  
      97    0.515643    98    0.521426    99    0.528131  
     100    0.533658   101    0.540562   102    0.547215  
     103    0.550434   104    0.561641   105    0.571362  
     106    0.580375   107    0.585783   108    0.606887  
     109    0.618460   110    0.625626   111    0.634170  
     112    0.648006   113    0.662691   114    0.686599  
     115    0.705521   116    0.728256   117    0.738398  
     118    0.769501   119    0.786805   120    0.793810  
     121    0.813169   122    0.818719   123    0.843659  
     124    0.866630   125    0.872359   126    0.885535  
     127    0.890424   128    0.899268   129    0.913344  
     130    0.919654   131    0.922330   132    0.926766  
     133    0.937671   134    0.943464   135    0.947269  
     136    0.957174   137    0.961119   138    0.970839  
     139    0.980647   140    0.983661   141    0.991713  
     142    0.999551   143    1.002066   144    1.012005  
     145    1.025837   146    1.029106   147    1.045192  
     148    1.054649   149    1.058853   150    1.068337  
     151    1.087058   152    1.094761   153    1.106266  
     154    1.117585   155    1.125845   156    1.129603  
     157    1.151356   158    1.163718   159    1.212324  
     160    1.235501   161    1.249599   162    1.262967  
     163    1.283472   164    1.297499   165    1.311175  
     166    1.347775   167    1.354500   168    1.376035  
     169    1.403871   170    1.434509   171    1.451766  
     172    1.467233   173    1.489159   174    1.498184  
     175    1.506067   176    1.509644   177    1.524467  
     178    1.538773   179    1.539959   180    1.553506  
     181    1.569174   182    1.580708   183    1.595626  
     184    1.611101   185    1.619655   186    1.626134  
     187    1.630057   188    1.642624   189    1.647510  
     190    1.664305   191    1.676934   192    1.685110  
     193    1.693223   194    1.699200   195    1.713616  
     196    1.717264   197    1.718561   198    1.729061  
     199    1.742019   200    1.757829   201    1.762773  
     202    1.775815   203    1.802100   204    1.826879  
     205    1.849049   206    1.855704   207    1.867937  
     208    1.877231   209    1.890872   210    1.900600  
     211    1.914666   212    1.925547   213    1.937042  
     214    1.946428   215    1.959945   216    1.972005  
     217    1.974157   218    1.980202   219    1.991415  
     220    1.992023   221    2.004533   222    2.018165  
     223    2.019557   224    2.025486   225    2.032726  
     226    2.045740   227    2.061308   228    2.065634  
     229    2.076275   230    2.082288   231    2.090990  
     232    2.105543   233    2.117713   234    2.125831  
     235    2.133495   236    2.145803   237    2.159977  
     238    2.178414   239    2.190041   240    2.198154  
     241    2.212336   242    2.239259   243    2.251643  
     244    2.263430   245    2.272314   246    2.294028  
     247    2.304560   248    2.319108   249    2.338533  
     250    2.346484   251    2.371647   252    2.387391  
     253    2.389843   254    2.408980   255    2.411399  
     256    2.413973   257    2.427146   258    2.435114  
     259    2.438374   260    2.446447   261    2.457467  
     262    2.467081   263    2.490075   264    2.507217  
     265    2.532240   266    2.555808   267    2.565427  
     268    2.595582   269    2.609291   270    2.623768  
     271    2.662026   272    2.670147   273    2.686696  
     274    2.709645   275    2.744952   276    2.769433  
     277    2.790541   278    2.803655   279    2.805765  
     280    2.820063   281    2.821081   282    2.856629  
     283    2.859288   284    2.869186   285    2.871587  
     286    2.878289   287    2.912679   288    2.923730  
     289    2.945188   290    2.975666   291    2.986046  
     292    2.998326   293    3.023811   294    3.026589  
     295    3.053063   296    3.079331   297    3.099079  
     298    3.118553   299    3.139315   300    3.198737  
     301    3.269749   302    3.279002   303    3.303317  
     304    3.339604   305    3.369901   306    3.422148  
     307    3.429442   308    3.462046   309    3.559059  
     310    3.569641   311    3.580240   312    3.607369  
     313    3.681167   314    3.708852   315    3.712887  
     316    3.781084   317    3.820133   318    3.882778  
     319    3.914294   320    3.961746   321    3.980917  
     322    4.094065   323    4.125166   324    4.526759  
     325    4.552765   326   13.287126  

  ==> Frozen Core <==


    ------------------
    Range      A     B
    ------------------
    nbf      368   368
    nmo      326   326
    nocc       4    15
    nvir     322   311
    nfocc      1     4
    naocc      3    11
    navir    322   311
    nfvir      0     0
    ------------------

  ==> Unification <==

  ==> dHF <==

    E ABC(HF) =  -8.0026415142855831E+02 [Eh]
    E AC(0)   =  -5.7223361106038590E+02 [Eh]
    E BC(0)   =  -7.6010915422340531E+02 [Eh]
    E A(0)    =  -2.5031722487110486E+01 [Eh]
    E B(0)    =  -2.1265546858152447E+02 [Eh]
    E AC(HF)  =  -5.7223102294905004E+02 [Eh]
    E BC(HF)  =  -7.6009788512362184E+02 [Eh]
    E AB(HF)  =  -2.3765982347386176E+02 [Eh]
    E A(HF)   =  -2.5018477022352080E+01 [Eh]
    E B(HF)   =  -2.1263780044482769E+02 [Eh]
    E C       =  -5.3206830265078816E+02 [Eh]
    E HF      =   1.0311204444747091E-02 [Eh]

  ==> Electrostatics <==

    Elst10,r            =     0.005247620981 [Eh]

  ==> Exchange <==

    Exch10(S^2)         =     0.006203518966 [Eh]
    Exch10              =     0.006233885098 [Eh]

  ==> Induction <==

    Ind20,u (A<-B)      =    -0.001220075446 [Eh]
    Ind20,u (B<-A)      =    -0.000469387694 [Eh]
    Ind20,u             =    -0.001689463140 [Eh]
    Exch-Ind20,u (A<-B) =     0.000764662554 [Eh]
    Exch-Ind20,u (B<-A) =     0.000218515046 [Eh]
    Exch-Ind20,u        =     0.000983177601 [Eh]

  ==> CPHF Iterations <==

    Maxiter     =          50
    Convergence =   1.000E-08

    -----------------------------------------
    Iter   Monomer A    Monomer B    Time [s]
    -----------------------------------------
    1      1.381E-01    2.210E-01           5
    2      2.048E-02    7.736E-02          10
    3      4.160E-03    2.194E-02          16
    4      5.693E-04    7.545E-03          21
    5      7.216E-05    2.575E-03          27
    6      9.962E-06    9.538E-04          32
    7      1.579E-06    3.292E-04          37
    8      2.660E-07    1.474E-04          42
    9      3.119E-08    3.932E-05          47
    10     2.536E-09*   1.029E-05          52
    11     2.536E-09*   2.653E-06          54
    12     2.536E-09*   4.524E-07          57
    13     2.536E-09*   1.348E-07          59
    14     2.536E-09*   3.596E-08          62
    15     2.536E-09*   9.229E-09*         64
    -----------------------------------------

    Ind20,r (A<-B)      =    -0.001422720036 [Eh]
    Ind20,r (B<-A)      =    -0.000552260754 [Eh]
    Ind20,r             =    -0.001974980790 [Eh]
    Exch-Ind20,r (A<-B) =     0.000921944908 [Eh]
    Exch-Ind20,r (B<-A) =     0.000292594662 [Eh]
    Exch-Ind20,r        =     0.001214539570 [Eh]

  ==> F-SAPT Localization (IBO) <==

  Local Orbitals for Monomer A:

  ==> IBO Localizer 2 <==

    MinAO Basis = CC-PVTZ-MINAO
    Use Ghosts  =       FALSE
    Use Stars   =       FALSE
    Condition   =   1.000E-07
    Power       =           4
    Convergence =   1.000E-12
    Maxiter     =        1000

    @IBO Iter:                   Metric       Gradient
    @IBO    1:   1.0648414243531028E+00   5.973551E-02
    @IBO    2:   1.0830078573161857E+00   2.824513E-02
    @IBO    3:   1.0836033905158160E+00   6.054127E-04
    @IBO    4:   1.0836036484059657E+00   9.257224E-08
    @IBO    5:   1.0836036484059717E+00   3.943423E-12
    @IBO    6:   1.0836036484059717E+00   3.181613E-15

    IBO Localizer 2 converged.

  Local Orbitals for Monomer B:

  ==> IBO Localizer 2 <==

    MinAO Basis = CC-PVTZ-MINAO
    Use Ghosts  =       FALSE
    Use Stars   =       FALSE
    Condition   =   1.000E-07
    Power       =           4
    Convergence =   1.000E-12
    Maxiter     =        1000

    @IBO Iter:                   Metric       Gradient
    @IBO    1:   1.4799057969079155E+00   1.679318E+00
    @IBO    2:   1.6750592521319936E+00   9.489566E-01
    @IBO    3:   1.7070980492846042E+00   4.228925E-01
    @IBO    4:   1.7096687396868020E+00   1.247645E-02
    @IBO    5:   1.7096745694954740E+00   6.925332E-04
    @IBO    6:   1.7096745748617832E+00   8.962530E-06
    @IBO    7:   1.7096745748630380E+00   2.243905E-07
    @IBO    8:   1.7096745748630389E+00   6.843333E-09
    @IBO    9:   1.7096745748630389E+00   2.733916E-10
    @IBO   10:   1.7096745748630389E+00   1.182659E-11
    @IBO   11:   1.7096745748630389E+00   5.161121E-13

    IBO Localizer 2 converged.

  ==> F-SAPT Electrostatics <==

  ==> DFERI: Density Fitted 3-Index Tensors <==

    Schwarz cutoff =   0.000E+00
    J cutoff       =   1.000E-12
    Mem (GB)       =         628

   => Auxiliary Basis <=

  Basis Set: (JUN-CC-PVDZ AUX)
    Blend: JUN-CC-PVDZ-JKFIT
    Number of shells: 576
    Number of basis function: 1632
    Number of Cartesian functions: 1856
    Spherical Harmonics?: true
    Max angular momentum: 3

    Elst10,r            =     0.005247621041 [Eh]

  ==> F-SAPT Exchange <==

  ==> DFERI: Density Fitted 3-Index Tensors <==

    Schwarz cutoff =   0.000E+00
    J cutoff       =   1.000E-12
    Mem (GB)       =         628

   => Auxiliary Basis <=

  Basis Set: (JUN-CC-PVDZ AUX)
    Blend: JUN-CC-PVDZ-JKFIT
    Number of shells: 576
    Number of basis function: 1632
    Number of Cartesian functions: 1856
    Spherical Harmonics?: true
    Max angular momentum: 3

    Exch10(S^2)         =     0.006203518966 [Eh]

    Scaling F-SAPT Exch10(S^2) by   1.005E+00 to match Exch10

  ==> F-SAPT Induction <==

  ==> DFERI: Density Fitted 3-Index Tensors <==

    Schwarz cutoff =   0.000E+00
    J cutoff       =   1.000E-12
    Mem (GB)       =         628

   => Auxiliary Basis <=

  Basis Set: (JUN-CC-PVDZ AUX)
    Blend: JUN-CC-PVDZ-JKFIT
    Number of shells: 576
    Number of basis function: 1632
    Number of Cartesian functions: 1856
    Spherical Harmonics?: true
    Max angular momentum: 3

    Ind20,u (A<-B)      =    -0.001220075446 [Eh]
    Ind20,u (B<-A)      =    -0.000469387694 [Eh]
    Ind20,u             =    -0.001689463140 [Eh]
    Exch-Ind20,u (A<-B) =     0.000764662554 [Eh]
    Exch-Ind20,u (B<-A) =     0.000218515046 [Eh]
    Exch-Ind20,u        =     0.000983177600 [Eh]

    Scaling for delta HF        =   1.539E+00
    Scaling for response (A<-B) =   1.100E+00
    Scaling for response (B<-A) =   1.035E+00
    Scaling for total (A<-B)    =   1.692E+00
    Scaling for total (B<-A)    =   1.593E+00

  ==> F-SAPT Dispersion <==

  ==> DFERI: Density Fitted 3-Index Tensors <==

    Schwarz cutoff =   0.000E+00
    J cutoff       =   1.000E-12
    Mem (GB)       =         628

   => Auxiliary Basis <=

  Basis Set: (JUN-CC-PVDZ AUX)
    Blend: JUN-CC-PVDZ-RI
    Number of shells: 432
    Number of basis function: 1264
    Number of Cartesian functions: 1456
    Spherical Harmonics?: true
    Max angular momentum: 3

    Disp20              =    -0.002630688279 [Eh]
    Exch-Disp20         =     0.000374767797 [Eh]

  ==> F-SAPT Output <==

    F-SAPT Data Filepath = fsapt/

  ==> Results <==


    SAPT Results  
  --------------------------------------------------------------------------------------------------------
    Electrostatics                  5.24762098 [mEh]       3.29293202 [kcal/mol]      13.77762889 [kJ/mol]
      Elst10,r                      5.24762098 [mEh]       3.29293202 [kcal/mol]      13.77762889 [kJ/mol]

    Exchange                        6.23388510 [mEh]       3.91182212 [kcal/mol]      16.36706532 [kJ/mol]
      Exch10                        6.23388510 [mEh]       3.91182212 [kcal/mol]      16.36706532 [kJ/mol]
      Exch10(S^2)                   6.20351897 [mEh]       3.89276708 [kcal/mol]      16.28733905 [kJ/mol]

    Induction                      -1.17030163 [mEh]      -0.73437539 [kcal/mol]      -3.07262694 [kJ/mol]
      Ind20,r                      -1.97498079 [mEh]      -1.23931921 [kcal/mol]      -5.18531206 [kJ/mol]
      Exch-Ind20,r                  1.21453957 [mEh]       0.76213512 [kcal/mol]       3.18877364 [kJ/mol]
      delta HF,r (2)               -0.40986041 [mEh]      -0.25719130 [kcal/mol]      -1.07608852 [kJ/mol]
      Induction (A<-B)             -0.77068146 [mEh]      -0.48360994 [kcal/mol]      -2.02342417 [kJ/mol]
      Induction (B<-A)             -0.39962017 [mEh]      -0.25076546 [kcal/mol]      -1.04920277 [kJ/mol]

    Dispersion                     -2.25592048 [mEh]      -1.41561153 [kcal/mol]      -5.92291923 [kJ/mol]
      Disp20                       -2.63068828 [mEh]      -1.65078189 [kcal/mol]      -6.90687208 [kJ/mol]
      Exch-Disp20                   0.37476780 [mEh]       0.23517035 [kcal/mol]       0.98395285 [kJ/mol]

  Total HF                         10.31120444 [mEh]       6.47037875 [kcal/mol]      27.07206727 [kJ/mol]
  Total SAPT0                       8.05528396 [mEh]       5.05476721 [kcal/mol]      21.14914804 [kJ/mol]

  --------------------------------------------------------------------------------------------------------
    Han Solo: This is *not* gonna work.
    Luke Skywalker: Why didn't you say so before?
    Han Solo: I *did* say so before.

*** tstop() called on ThinkPad-P50 at Mon Jan 15 17:44:49 2018
Module time:
	user time   =     576.90 seconds =       9.62 minutes
	system time =       2.16 seconds =       0.04 minutes
	total time  =        167 seconds =       2.78 minutes
Total time:
	user time   =     733.11 seconds =      12.22 minutes
	system time =       2.93 seconds =       0.05 minutes
	total time  =        218 seconds =       3.63 minutes

*** Psi4 exiting successfully. Buy a developer a beer!
