
    -----------------------------------------------------------------------
          Psi4: An Open-Source Ab Initio Electronic Structure Package
                               Psi4 1.1 release

                         Git: Rev {HEAD} add49b9 


    R. M. Parrish, L. A. Burns, D. G. A. Smith, A. C. Simmonett,
    A. E. DePrince III, E. G. Hohenstein, U. Bozkaya, A. Yu. Sokolov,
    R. Di Remigio, R. M. Richard, J. F. Gonthier, A. M. James,
    H. R. McAlexander, A. Kumar, M. Saitow, X. Wang, B. P. Pritchard,
    P. Verma, H. F. Schaefer III, K. Patkowski, R. A. King, E. F. Valeev,
    F. A. Evangelista, J. M. Turney, T. D. Crawford, and C. D. Sherrill,
    J. Chem. Theory Comput. in press (2017).
    (doi: 10.1021/acs.jctc.7b00174)

    -----------------------------------------------------------------------


    Psi4 started on: Monday, 15 January 2018 05:44PM

    Process ID:  18012
    PSIDATADIR: /home/junteng/Softwares/psi4conda/share/psi4
    Memory:     500.0 MiB
    Threads:    4
    
  ==> Input File <==

--------------------------------------------------------------------------
memory 750000 mb

molecule mol {
0 1
C         -0.61879       -1.32178        0.74401
O         -1.27838       -1.61519        1.71389
O         -0.85218       -1.80874       -0.48403
C         -2.01505       -2.64025       -0.62077
H         -2.05670       -2.90894       -1.67414
H         -1.92824       -3.53246        0.00153
H         -2.90903       -2.08773       -0.32806
--
0 1
C         -1.08636        1.66624        0.18028
O         -1.32111        2.85293        0.17967
O         -1.98268        0.73904       -0.17952
C         -3.28527        1.22298       -0.55973
H         -3.86242        0.33476       -0.80595
H         -3.74492        1.76353        0.26840
H         -3.20658        1.88258       -1.42464
--
0 1
C          2.07890       -2.04347       -0.59568
H          2.97257       -2.04901       -1.22349
H          2.27288       -2.67484        0.27662
H          1.25043       -2.46792       -1.15705
H          1.01437        2.24375       -1.24604
C          0.28331        1.13713        0.56550
C          0.57831       -0.38549        0.82863
C          1.31905        1.44893       -0.56941
C          2.71067        1.60112        0.06703
C          3.01138        0.12270        0.43609
C          1.77773       -0.62712       -0.15430
O          1.41867        0.21113       -1.27364
H          0.53945        1.71673        1.45263
H          0.91159       -0.49579        1.86079
H          3.42040        1.97884       -0.67070
H          2.71193        2.27929        0.92206
H          3.92244       -0.23138       -0.04806
H          3.11784       -0.04256        1.51001

symmetry c1
no_reorient
no_com
}

set {
basis jun-cc-pvdz
scf_type df
guess sad
freeze_core true
}

energy('fisapt0')
--------------------------------------------------------------------------

  Memory set to 698.492 GiB by Python driver.

*** tstart() called on ThinkPad-P50
*** at Mon Jan 15 17:44:49 2018

   => Loading Basis Set <=

    Name: JUN-CC-PVDZ
    Role: ORBITAL
    Keyword: BASIS
    atoms 1, 4, 8, 11, 15, 20-25   entry C          line   157 file /home/junteng/Softwares/psi4conda/share/psi4/basis/jun-cc-pvdz.gbs 
    atoms 2-3, 9-10, 26            entry O          line   225 file /home/junteng/Softwares/psi4conda/share/psi4/basis/jun-cc-pvdz.gbs 
    atoms 5-7, 12-14, 16-19, 27-32 entry H          line    35 file /home/junteng/Softwares/psi4conda/share/psi4/basis/jun-cc-pvdz.gbs 


         ---------------------------------------------------------
                                   SCF
            by Justin Turney, Rob Parrish, and Andy Simmonett
                              RHF Reference
                        4 Threads, 715255 MiB Core
         ---------------------------------------------------------

  ==> Geometry <==

    Molecular point group: c1
    Full point group: C1

    Geometry (in Angstrom), charge = 0, multiplicity = 1:

       Center              X                  Y                   Z               Mass       
    ------------   -----------------  -----------------  -----------------  -----------------
           C         -0.618790000000    -1.321780000000     0.744010000000    12.000000000000
           O         -1.278380000000    -1.615190000000     1.713890000000    15.994914619560
           O         -0.852180000000    -1.808740000000    -0.484030000000    15.994914619560
           C         -2.015050000000    -2.640250000000    -0.620770000000    12.000000000000
           H         -2.056700000000    -2.908940000000    -1.674140000000     1.007825032070
           H         -1.928240000000    -3.532460000000     0.001530000000     1.007825032070
           H         -2.909030000000    -2.087730000000    -0.328060000000     1.007825032070
           C         -1.086360000000     1.666240000000     0.180280000000    12.000000000000
           O         -1.321110000000     2.852930000000     0.179670000000    15.994914619560
           O         -1.982680000000     0.739040000000    -0.179520000000    15.994914619560
           C         -3.285270000000     1.222980000000    -0.559730000000    12.000000000000
           H         -3.862420000000     0.334760000000    -0.805950000000     1.007825032070
           H         -3.744920000000     1.763530000000     0.268400000000     1.007825032070
           H         -3.206580000000     1.882580000000    -1.424640000000     1.007825032070
           C          2.078900000000    -2.043470000000    -0.595680000000    12.000000000000
           H          2.972570000000    -2.049010000000    -1.223490000000     1.007825032070
           H          2.272880000000    -2.674840000000     0.276620000000     1.007825032070
           H          1.250430000000    -2.467920000000    -1.157050000000     1.007825032070
           H          1.014370000000     2.243750000000    -1.246040000000     1.007825032070
           C          0.283310000000     1.137130000000     0.565500000000    12.000000000000
           C          0.578310000000    -0.385490000000     0.828630000000    12.000000000000
           C          1.319050000000     1.448930000000    -0.569410000000    12.000000000000
           C          2.710670000000     1.601120000000     0.067030000000    12.000000000000
           C          3.011380000000     0.122700000000     0.436090000000    12.000000000000
           C          1.777730000000    -0.627120000000    -0.154300000000    12.000000000000
           O          1.418670000000     0.211130000000    -1.273640000000    15.994914619560
           H          0.539450000000     1.716730000000     1.452630000000     1.007825032070
           H          0.911590000000    -0.495790000000     1.860790000000     1.007825032070
           H          3.420400000000     1.978840000000    -0.670700000000     1.007825032070
           H          2.711930000000     2.279290000000     0.922060000000     1.007825032070
           H          3.922440000000    -0.231380000000    -0.048060000000     1.007825032070
           H          3.117840000000    -0.042560000000     1.510010000000     1.007825032070

  Running in c1 symmetry.

  Rotational constants: A =      0.02340  B =      0.01824  C =      0.01226 [cm^-1]
  Rotational constants: A =    701.65682  B =    546.84272  C =    367.68073 [MHz]
  Nuclear repulsion = 1256.984555845361911

  Charge       = 0
  Multiplicity = 1
  Electrons    = 122
  Nalpha       = 61
  Nbeta        = 61

  ==> Algorithm <==

  SCF Algorithm Type is DF.
  DIIS enabled.
  MOM disabled.
  Fractional occupation disabled.
  Guess Type is SAD.
  Energy threshold   = 1.00e-08
  Density threshold  = 1.00e-08
  Integral threshold = 0.00e+00

  ==> Primary Basis <==

  Basis Set: JUN-CC-PVDZ
    Blend: JUN-CC-PVDZ
    Number of shells: 176
    Number of basis function: 368
    Number of Cartesian functions: 384
    Spherical Harmonics?: true
    Max angular momentum: 2

   => Loading Basis Set <=

    Name: (JUN-CC-PVDZ AUX)
    Role: JKFIT
    Keyword: DF_BASIS_SCF
    atoms 1, 4, 8, 11, 15, 20-25   entry C          line   145 file /home/junteng/Softwares/psi4conda/share/psi4/basis/jun-cc-pvdz-jkfit.gbs 
    atoms 2-3, 9-10, 26            entry O          line   257 file /home/junteng/Softwares/psi4conda/share/psi4/basis/jun-cc-pvdz-jkfit.gbs 
    atoms 5-7, 12-14, 16-19, 27-32 entry H          line    69 file /home/junteng/Softwares/psi4conda/share/psi4/basis/jun-cc-pvdz-jkfit.gbs 

  ==> Pre-Iterations <==

   -------------------------------------------------------
    Irrep   Nso     Nmo     Nalpha   Nbeta   Ndocc  Nsocc
   -------------------------------------------------------
     A        368     368       0       0       0       0
   -------------------------------------------------------
    Total     368     368      61      61      61       0
   -------------------------------------------------------

  ==> Integral Setup <==

  ==> DFJK: Density-Fitted J/K Matrices <==

    J tasked:                  Yes
    K tasked:                  Yes
    wK tasked:                  No
    OpenMP threads:              4
    Integrals threads:           4
    Memory (MB):            536441
    Algorithm:                Core
    Integral Cache:           NONE
    Schwarz Cutoff:          1E-12
    Fitting Condition:       1E-12

   => Auxiliary Basis Set <=

  Basis Set: (JUN-CC-PVDZ AUX)
    Blend: JUN-CC-PVDZ-JKFIT
    Number of shells: 576
    Number of basis function: 1632
    Number of Cartesian functions: 1856
    Spherical Harmonics?: true
    Max angular momentum: 3

  Minimum eigenvalue in the overlap matrix is 1.0451197289E-05.
  Using Symmetric Orthogonalization.

  SCF Guess: Superposition of Atomic Densities via on-the-fly atomic UHF.

  ==> Iterations <==

                           Total Energy        Delta E     RMS |[F,P]|

   @DF-RHF iter   0:  -807.54218313062836   -8.07542e+02   2.92034e-02 
   @DF-RHF iter   1:  -799.73417214056758    7.80801e+00   4.81270e-03 
   @DF-RHF iter   2:  -800.13221294322932   -3.98041e-01   2.77373e-03 DIIS
   @DF-RHF iter   3:  -800.24317645857980   -1.10964e-01   7.91584e-04 DIIS
   @DF-RHF iter   4:  -800.26034490646748   -1.71684e-02   2.47526e-04 DIIS
   @DF-RHF iter   5:  -800.26193644471448   -1.59154e-03   1.00085e-04 DIIS
   @DF-RHF iter   6:  -800.26227270769834   -3.36263e-04   4.05035e-05 DIIS
   @DF-RHF iter   7:  -800.26235007846140   -7.73708e-05   1.45691e-05 DIIS
   @DF-RHF iter   8:  -800.26236274740097   -1.26689e-05   6.60898e-06 DIIS
   @DF-RHF iter   9:  -800.26236536614726   -2.61875e-06   2.46677e-06 DIIS
   @DF-RHF iter  10:  -800.26236574751385   -3.81367e-07   9.86926e-07 DIIS
   @DF-RHF iter  11:  -800.26236580426837   -5.67545e-08   3.34878e-07 DIIS
   @DF-RHF iter  12:  -800.26236581078706   -6.51869e-09   1.18093e-07 DIIS
   @DF-RHF iter  13:  -800.26236581158855   -8.01492e-10   4.77917e-08 DIIS
   @DF-RHF iter  14:  -800.26236581170815   -1.19599e-10   1.76200e-08 DIIS
   @DF-RHF iter  15:  -800.26236581172293   -1.47793e-11   6.92611e-09 DIIS

  ==> Post-Iterations <==

    Orbital Energies (a.u.)
    -----------------------

    Doubly Occupied:                                                      

       1A    -20.617451     2A    -20.605300     3A    -20.569056  
       4A    -20.556420     5A    -20.550361     6A    -11.396315  
       7A    -11.389196     8A    -11.305345     9A    -11.300365  
      10A    -11.300027    11A    -11.294285    12A    -11.270725  
      13A    -11.266544    14A    -11.241218    15A    -11.240579  
      16A    -11.228376    17A     -1.475088    18A     -1.463390  
      19A     -1.405729    20A     -1.369197    21A     -1.361562  
      22A     -1.114458    23A     -1.064163    24A     -1.050950  
      25A     -0.991631    26A     -0.973686    27A     -0.940376  
      28A     -0.887420    29A     -0.820249    30A     -0.801829  
      31A     -0.778279    32A     -0.769050    33A     -0.718809  
      34A     -0.698813    35A     -0.693094    36A     -0.676101  
      37A     -0.673534    38A     -0.667958    39A     -0.660614  
      40A     -0.658578    41A     -0.629672    42A     -0.600297  
      43A     -0.583430    44A     -0.578535    45A     -0.566721  
      46A     -0.563970    47A     -0.549223    48A     -0.538152  
      49A     -0.531153    50A     -0.522797    51A     -0.511817  
      52A     -0.510132    53A     -0.502388    54A     -0.493331  
      55A     -0.486209    56A     -0.471651    57A     -0.466768  
      58A     -0.456928    59A     -0.448547    60A     -0.434028  
      61A     -0.424384  

    Virtual:                                                              

      62A      0.048844    63A      0.052640    64A      0.060121  
      65A      0.069708    66A      0.072428    67A      0.078954  
      68A      0.085749    69A      0.092596    70A      0.097636  
      71A      0.104685    72A      0.106459    73A      0.113649  
      74A      0.120529    75A      0.123441    76A      0.131739  
      77A      0.135062    78A      0.137325    79A      0.145321  
      80A      0.153797    81A      0.154167    82A      0.156259  
      83A      0.166867    84A      0.171310    85A      0.175189  
      86A      0.180734    87A      0.184461    88A      0.190362  
      89A      0.193378    90A      0.199931    91A      0.208345  
      92A      0.212590    93A      0.218506    94A      0.222507  
      95A      0.228154    96A      0.231068    97A      0.233145  
      98A      0.242538    99A      0.248128   100A      0.255795  
     101A      0.257668   102A      0.261707   103A      0.266159  
     104A      0.268755   105A      0.275631   106A      0.285524  
     107A      0.294657   108A      0.304706   109A      0.308867  
     110A      0.315122   111A      0.322195   112A      0.326562  
     113A      0.332035   114A      0.342091   115A      0.342924  
     116A      0.348318   117A      0.354410   118A      0.358962  
     119A      0.365892   120A      0.371663   121A      0.375515  
     122A      0.382962   123A      0.383956   124A      0.384665  
     125A      0.391145   126A      0.393609   127A      0.401690  
     128A      0.403984   129A      0.412759   130A      0.416011  
     131A      0.418901   132A      0.424947   133A      0.433053  
     134A      0.438848   135A      0.448141   136A      0.454133  
     137A      0.460451   138A      0.472366   139A      0.475158  
     140A      0.478967   141A      0.491912   142A      0.496202  
     143A      0.500029   144A      0.503869   145A      0.510637  
     146A      0.519728   147A      0.530771   148A      0.535504  
     149A      0.541800   150A      0.549289   151A      0.563392  
     152A      0.573729   153A      0.584693   154A      0.600747  
     155A      0.623566   156A      0.628564   157A      0.638963  
     158A      0.674822   159A      0.686133   160A      0.716740  
     161A      0.744537   162A      0.769552   163A      0.784692  
     164A      0.795267   165A      0.808576   166A      0.813031  
     167A      0.824033   168A      0.833556   169A      0.838967  
     170A      0.859983   171A      0.875644   172A      0.887854  
     173A      0.893215   174A      0.898970   175A      0.904617  
     176A      0.912936   177A      0.913527   178A      0.917980  
     179A      0.929472   180A      0.938301   181A      0.945407  
     182A      0.950287   183A      0.954651   184A      0.961209  
     185A      0.966522   186A      0.967622   187A      0.977977  
     188A      0.980257   189A      0.985421   190A      0.992573  
     191A      0.998213   192A      1.003442   193A      1.008808  
     194A      1.023174   195A      1.037483   196A      1.049084  
     197A      1.054931   198A      1.056009   199A      1.076828  
     200A      1.082209   201A      1.091884   202A      1.106723  
     203A      1.111409   204A      1.119549   205A      1.138751  
     206A      1.147159   207A      1.163130   208A      1.190093  
     209A      1.220492   210A      1.238247   211A      1.246215  
     212A      1.268317   213A      1.277835   214A      1.294419  
     215A      1.330900   216A      1.339785   217A      1.346847  
     218A      1.367109   219A      1.412043   220A      1.437489  
     221A      1.457918   222A      1.473582   223A      1.482224  
     224A      1.491274   225A      1.497203   226A      1.504353  
     227A      1.521677   228A      1.535242   229A      1.550960  
     230A      1.553914   231A      1.567462   232A      1.579116  
     233A      1.592777   234A      1.603895   235A      1.618963  
     236A      1.629884   237A      1.635214   238A      1.645102  
     239A      1.658504   240A      1.664651   241A      1.667340  
     242A      1.680241   243A      1.689861   244A      1.702623  
     245A      1.723960   246A      1.726593   247A      1.743003  
     248A      1.753475   249A      1.780206   250A      1.794172  
     251A      1.801837   252A      1.809360   253A      1.831191  
     254A      1.856378   255A      1.858834   256A      1.864882  
     257A      1.873586   258A      1.887836   259A      1.899706  
     260A      1.911673   261A      1.931348   262A      1.944686  
     263A      1.950765   264A      1.955842   265A      1.968580  
     266A      1.978445   267A      1.987268   268A      1.995706  
     269A      2.001906   270A      2.009754   271A      2.021147  
     272A      2.023901   273A      2.031608   274A      2.039537  
     275A      2.050094   276A      2.063488   277A      2.064142  
     278A      2.073748   279A      2.088622   280A      2.096474  
     281A      2.103258   282A      2.126686   283A      2.132816  
     284A      2.145271   285A      2.158098   286A      2.168322  
     287A      2.175496   288A      2.186337   289A      2.192197  
     290A      2.205356   291A      2.222724   292A      2.234050  
     293A      2.265788   294A      2.270143   295A      2.294806  
     296A      2.316407   297A      2.325348   298A      2.337868  
     299A      2.352372   300A      2.363853   301A      2.381538  
     302A      2.387162   303A      2.394551   304A      2.402702  
     305A      2.419225   306A      2.430957   307A      2.435630  
     308A      2.439286   309A      2.452862   310A      2.472814  
     311A      2.482003   312A      2.508442   313A      2.530249  
     314A      2.551100   315A      2.559483   316A      2.582447  
     317A      2.628666   318A      2.641736   319A      2.675610  
     320A      2.701703   321A      2.730021   322A      2.735422  
     323A      2.761940   324A      2.781379   325A      2.796255  
     326A      2.803885   327A      2.816989   328A      2.833970  
     329A      2.840756   330A      2.854298   331A      2.870752  
     332A      2.879809   333A      2.885997   334A      2.895283  
     335A      2.917764   336A      2.927065   337A      2.941606  
     338A      2.965082   339A      2.991587   340A      3.000932  
     341A      3.011073   342A      3.024144   343A      3.064670  
     344A      3.115197   345A      3.163120   346A      3.178256  
     347A      3.245990   348A      3.272991   349A      3.300989  
     350A      3.321476   351A      3.378151   352A      3.384972  
     353A      3.391833   354A      3.423377   355A      3.509015  
     356A      3.528927   357A      3.565030   358A      3.583410  
     359A      3.658716   360A      3.680417   361A      3.693501  
     362A      3.782219   363A      3.828302   364A      3.859048  
     365A      3.939794   366A      3.964599   367A      4.069908  
     368A      4.092529  

    Final Occupation by Irrep:
              A 
    DOCC [    61 ]

  Energy converged.

  @DF-RHF Final Energy:  -800.26236581172293

   => Energetics <=

    Nuclear Repulsion Energy =           1256.9845558453619105
    One-Electron Energy =               -3593.0613335138464208
    Two-Electron Energy =                1535.8144118567613532
    DFT Exchange-Correlation Energy =       0.0000000000000000
    Empirical Dispersion Energy =           0.0000000000000000
    PCM Polarization Energy =               0.0000000000000000
    EFP Energy =                            0.0000000000000000
    Total Energy =                       -800.2623658117229297



Properties will be evaluated at   0.000000,   0.000000,   0.000000 Bohr

Properties computed using the SCF density matrix

  Nuclear Dipole Moment: (a.u.)
     X:     1.5569      Y:    -0.3247      Z:    -1.3327

  Electronic Dipole Moment: (a.u.)
     X:    -1.2077      Y:    -0.2104      Z:     1.0022

  Dipole Moment: (a.u.)
     X:     0.3492      Y:    -0.5351      Z:    -0.3304     Total:     0.7194

  Dipole Moment: (Debye)
     X:     0.8875      Y:    -1.3601      Z:    -0.8399     Total:     1.8284


*** tstop() called on ThinkPad-P50 at Mon Jan 15 17:45:41 2018
Module time:
	user time   =     158.98 seconds =       2.65 minutes
	system time =       0.70 seconds =       0.01 minutes
	total time  =         52 seconds =       0.87 minutes
Total time:
	user time   =     158.98 seconds =       2.65 minutes
	system time =       0.70 seconds =       0.01 minutes
	total time  =         52 seconds =       0.87 minutes
   => Loading Basis Set <=

    Name: (JUN-CC-PVDZ AUX)
    Role: JKFIT
    Keyword: DF_BASIS_SCF
    atoms 1, 4, 8, 11, 15, 20-25   entry C          line   145 file /home/junteng/Softwares/psi4conda/share/psi4/basis/jun-cc-pvdz-jkfit.gbs 
    atoms 2-3, 9-10, 26            entry O          line   257 file /home/junteng/Softwares/psi4conda/share/psi4/basis/jun-cc-pvdz-jkfit.gbs 
    atoms 5-7, 12-14, 16-19, 27-32 entry H          line    69 file /home/junteng/Softwares/psi4conda/share/psi4/basis/jun-cc-pvdz-jkfit.gbs 

   => Loading Basis Set <=

    Name: (JUN-CC-PVDZ AUX)
    Role: RIFIT
    Keyword: DF_BASIS_SAPT
    atoms 1, 4, 8, 11, 15, 20-25   entry C          line    99 file /home/junteng/Softwares/psi4conda/share/psi4/basis/jun-cc-pvdz-ri.gbs 
    atoms 2-3, 9-10, 26            entry O          line   187 file /home/junteng/Softwares/psi4conda/share/psi4/basis/jun-cc-pvdz-ri.gbs 
    atoms 5-7, 12-14, 16-19, 27-32 entry H          line    29 file /home/junteng/Softwares/psi4conda/share/psi4/basis/jun-cc-pvdz-ri.gbs 

   => Loading Basis Set <=

    Name: CC-PVTZ-MINAO
    Role: ORBITAL
    Keyword: BASIS
    atoms 1, 4, 8, 11, 15, 20-25   entry C          line   130 file /home/junteng/Softwares/psi4conda/share/psi4/basis/cc-pvtz-minao.gbs 
    atoms 2-3, 9-10, 26            entry O          line   190 file /home/junteng/Softwares/psi4conda/share/psi4/basis/cc-pvtz-minao.gbs 
    atoms 5-7, 12-14, 16-19, 27-32 entry H          line    19 file /home/junteng/Softwares/psi4conda/share/psi4/basis/cc-pvtz-minao.gbs 


*** tstart() called on ThinkPad-P50
*** at Mon Jan 15 17:45:42 2018

	 --------------------------------------------
	                    FISAPT0                  
	                  Rob Parrish                
	 --------------------------------------------

    Do F-SAPT =         Yes
    Do Plot   =          No
    Memory    =      78.580 [GD]

  ==> Localization (IBO) <==

  ==> IBO Localizer 2 <==

    MinAO Basis = CC-PVTZ-MINAO
    Use Ghosts  =       FALSE
    Use Stars   =       FALSE
    Condition   =   1.000E-07
    Power       =           4
    Convergence =   1.000E-12
    Maxiter     =        1000

    @IBO Iter:                   Metric       Gradient
    @IBO    1:   1.9611637830046065E+00   2.563338E+00
    @IBO    2:   2.2205170095207039E+00   2.503523E+00
    @IBO    3:   2.3196251065185476E+00   1.246068E+00
    @IBO    4:   2.3322350427884864E+00   1.237768E-01
    @IBO    5:   2.3323301968028187E+00   3.326114E-03
    @IBO    6:   2.3323302610584871E+00   4.801086E-05
    @IBO    7:   2.3323302610773471E+00   1.171052E-06
    @IBO    8:   2.3323302610773591E+00   3.668296E-08
    @IBO    9:   2.3323302610773591E+00   1.251692E-09
    @IBO   10:   2.3323302610773595E+00   4.653163E-11
    @IBO   11:   2.3323302610773595E+00   1.851343E-12
    @IBO   12:   2.3323302610773595E+00   7.759602E-14

    IBO Localizer 2 converged.

  ==> Partitioning <==

   => Atomic Partitioning <= 

    Monomer A:   7 atoms
    Monomer B:   7 atoms
    Monomer C:  18 atoms

   => Link Bond Identification <=

    Link Bond Selection = AUTOMATIC

    Charge Completeness = 0.800

    Total Link Bonds = 2

    --------------------------
    N     Orb Type Aind1 Aind2
    --------------------------
    1      38   AC     1    21
    2      48   BC     8    20
    --------------------------

   => Link Bond Assignment <=

    Link Bond Assignment      = C

   => Partition Summary <=

    Monomer A:  0 charge,  30 protons,  30 electrons,  15 docc
    Monomer B:  0 charge,  30 protons,  30 electrons,  15 docc
    Monomer C:  0 charge,  62 protons,  62 electrons,  31 docc

  ==> Overlap Integrals <==

  ==> Kinetic Integrals <==

  ==> Nuclear Integrals <==

    Nuclear Repulsion Tot:   1.2569845558453640E+03 [Eh]

  ==> Coulomb Integrals <==

  ==> DFJK: Density-Fitted J/K Matrices <==

    J tasked:                  Yes
    K tasked:                  Yes
    wK tasked:                  No
    OpenMP threads:              4
    Integrals threads:           4
    Memory (MB):            643730
    Algorithm:                Core
    Integral Cache:           NONE
    Schwarz Cutoff:          1E-12
    Fitting Condition:       1E-12

   => Auxiliary Basis Set <=

  Basis Set: (JUN-CC-PVDZ AUX)
    Blend: JUN-CC-PVDZ-JKFIT
    Number of shells: 576
    Number of basis function: 1632
    Number of Cartesian functions: 1856
    Spherical Harmonics?: true
    Max angular momentum: 3

  ==> Relaxed SCF Equations <==

  ==> SCF A: <==

    Maxiter =          50
    E Tol   =   1.000E-06
    D Tol   =   1.000E-08

    Max DIIS Vectors = 5

    Iter   N:                        E          dE         |D|
    Iter   1:  -2.2405287909750743E+02  -2.241E+02   1.429E-03 
    Iter   2:  -2.2406225154688107E+02  -9.372E-03   8.141E-05 DIIS
    Iter   3:  -2.2406240603590726E+02  -1.545E-04   2.540E-05 DIIS
    Iter   4:  -2.2406241677861206E+02  -1.074E-05   1.244E-05 DIIS
    Iter   5:  -2.2406241918587966E+02  -2.407E-06   2.500E-06 DIIS
    Iter   6:  -2.2406241935017567E+02  -1.643E-07   1.117E-06 DIIS
    Iter   7:  -2.2406241937927069E+02  -2.910E-08   3.307E-07 DIIS
    Iter   8:  -2.2406241938303802E+02  -3.767E-09   1.423E-07 DIIS
    Iter   9:  -2.2406241938362388E+02  -5.859E-10   5.406E-08 DIIS
    Iter  10:  -2.2406241938376692E+02  -1.430E-10   2.318E-08 DIIS
    Iter  11:  -2.2406241938378807E+02  -2.115E-11   1.271E-08 DIIS
    Iter  12:  -2.2406241938379202E+02  -3.951E-12   5.908E-09 DIIS

    FISAPTSCF Converged.

    Final SCF Energy:  -2.2406241938379202E+02 [Eh]

   => Occupied Orbital Energies <=

       1  -20.602632     2  -20.542425     3  -11.382137  
       4  -11.290705     5   -1.436515     6   -1.351108  
       7   -0.959374     8   -0.763222     9   -0.664661  
      10   -0.660366    11   -0.617716    12   -0.536736  
      13   -0.531283    14   -0.468138    15   -0.454952  

   => Virtual Orbital Energies <=

      16    0.029009    17    0.053294    18    0.056653  
      19    0.068170    20    0.070276    21    0.074005  
      22    0.083678    23    0.091254    24    0.093893  
      25    0.098481    26    0.102430    27    0.109196  
      28    0.120636    29    0.120761    30    0.127418  
      31    0.132395    32    0.135153    33    0.138532  
      34    0.140368    35    0.155713    36    0.158021  
      37    0.165792    38    0.168602    39    0.178580  
      40    0.182880    41    0.184590    42    0.191425  
      43    0.194824    44    0.197535    45    0.200327  
      46    0.208259    47    0.220726    48    0.222359  
      49    0.228520    50    0.234504    51    0.237655  
      52    0.248006    53    0.251584    54    0.253814  
      55    0.259049    56    0.262890    57    0.271546  
      58    0.278308    59    0.282884    60    0.285501  
      61    0.290058    62    0.296649    63    0.302716  
      64    0.304970    65    0.316012    66    0.323221  
      67    0.328981    68    0.335922    69    0.338564  
      70    0.340870    71    0.349714    72    0.356008  
      73    0.363263    74    0.370495    75    0.374764  
      76    0.383092    77    0.385918    78    0.393070  
      79    0.399197    80    0.403540    81    0.407944  
      82    0.411520    83    0.424350    84    0.430870  
      85    0.432448    86    0.438200    87    0.444347  
      88    0.449118    89    0.452590    90    0.456528  
      91    0.467331    92    0.473847    93    0.486919  
      94    0.495683    95    0.503293    96    0.510072  
      97    0.514655    98    0.532212    99    0.539713  
     100    0.546049   101    0.554565   102    0.560647  
     103    0.578734   104    0.582456   105    0.590211  
     106    0.606365   107    0.610460   108    0.618045  
     109    0.628859   110    0.635849   111    0.639641  
     112    0.656846   113    0.673704   114    0.677223  
     115    0.707644   116    0.727097   117    0.759774  
     118    0.776164   119    0.801257   120    0.810897  
     121    0.820273   122    0.824626   123    0.840645  
     124    0.872100   125    0.880217   126    0.883863  
     127    0.890670   128    0.898118   129    0.910134  
     130    0.925494   131    0.928050   132    0.938741  
     133    0.939658   134    0.951277   135    0.956031  
     136    0.964906   137    0.972806   138    0.975627  
     139    0.984613   140    0.990282   141    0.995399  
     142    0.996056   143    1.005135   144    1.011801  
     145    1.023003   146    1.033428   147    1.039542  
     148    1.050156   149    1.060492   150    1.066751  
     151    1.071907   152    1.089208   153    1.100709  
     154    1.115846   155    1.126042   156    1.127998  
     157    1.143788   158    1.159866   159    1.169328  
     160    1.189050   161    1.203737   162    1.240952  
     163    1.246676   164    1.267297   165    1.296561  
     166    1.308124   167    1.322749   168    1.362280  
     169    1.370428   170    1.398700   171    1.424609  
     172    1.456335   173    1.478261   174    1.508063  
     175    1.515154   176    1.524131   177    1.534076  
     178    1.546842   179    1.559526   180    1.577880  
     181    1.586798   182    1.600598   183    1.607018  
     184    1.617380   185    1.629451   186    1.635997  
     187    1.650609   188    1.668434   189    1.677976  
     190    1.683849   191    1.693792   192    1.726926  
     193    1.729221   194    1.739682   195    1.756779  
     196    1.786196   197    1.788500   198    1.804746  
     199    1.819368   200    1.837624   201    1.848208  
     202    1.849356   203    1.864409   204    1.875203  
     205    1.886346   206    1.906607   207    1.917057  
     208    1.924885   209    1.940385   210    1.948433  
     211    1.959390   212    1.968114   213    1.983210  
     214    1.987114   215    1.995531   216    2.009445  
     217    2.013142   218    2.020199   219    2.026727  
     220    2.041975   221    2.052611   222    2.064402  
     223    2.084944   224    2.086507   225    2.102363  
     226    2.108181   227    2.110916   228    2.125381  
     229    2.138957   230    2.148853   231    2.156891  
     232    2.164943   233    2.175957   234    2.192758  
     235    2.198276   236    2.209811   237    2.222576  
     238    2.239358   239    2.255041   240    2.259765  
     241    2.279416   242    2.295897   243    2.306034  
     244    2.317597   245    2.323812   246    2.344684  
     247    2.365038   248    2.369197   249    2.374120  
     250    2.383537   251    2.405088   252    2.406075  
     253    2.417211   254    2.432911   255    2.438576  
     256    2.453982   257    2.471331   258    2.479555  
     259    2.499091   260    2.505692   261    2.537206  
     262    2.552231   263    2.569230   264    2.579659  
     265    2.635085   266    2.639920   267    2.664238  
     268    2.682019   269    2.690285   270    2.693396  
     271    2.712517   272    2.726613   273    2.753491  
     274    2.770511   275    2.792400   276    2.809114  
     277    2.817307   278    2.837588   279    2.840853  
     280    2.864563   281    2.871263   282    2.884679  
     283    2.891284   284    2.894935   285    2.910128  
     286    2.928189   287    2.930627   288    2.948604  
     289    2.970879   290    2.999159   291    3.024631  
     292    3.037778   293    3.054380   294    3.071281  
     295    3.094364   296    3.159414   297    3.207814  
     298    3.276132   299    3.332935   300    3.359088  
     301    3.404738   302    3.418841   303    3.438115  
     304    3.542968   305    3.586285   306    3.637239  
     307    3.641958   308    3.665033   309    3.699888  
     310    3.748805   311    3.825969   312    3.879992  
     313    3.953854   314    4.013086   315    4.086765  
     316    4.130406   317    4.201537   318    4.437277  
     319    4.510397   320    4.539416   321    4.747317  
     322    4.942765   323    5.044691   324    5.068759  
     325    5.207604   326    5.326411   327    5.510321  
     328    5.551757   329    5.680414   330    5.813397  
     331    6.213943   332    6.361780   333    6.687639  
     334   13.366377   335   18.428855   336   33.415822  
     337   33.471152  

  ==> SCF B: <==

    Maxiter =          50
    E Tol   =   1.000E-06
    D Tol   =   1.000E-08

    Max DIIS Vectors = 5

    Iter   N:                        E          dE         |D|
    Iter   1:  -2.2410567270584403E+02  -2.241E+02   2.007E-03 
    Iter   2:  -2.2412359728700105E+02  -1.792E-02   1.189E-04 DIIS
    Iter   3:  -2.2412389254123582E+02  -2.953E-04   4.432E-05 DIIS
    Iter   4:  -2.2412392008746872E+02  -2.755E-05   2.010E-05 DIIS
    Iter   5:  -2.2412392636157006E+02  -6.274E-06   3.322E-06 DIIS
    Iter   6:  -2.2412392665220332E+02  -2.906E-07   1.157E-06 DIIS
    Iter   7:  -2.2412392669164305E+02  -3.944E-08   3.613E-07 DIIS
    Iter   8:  -2.2412392669462506E+02  -2.982E-09   1.457E-07 DIIS
    Iter   9:  -2.2412392669510012E+02  -4.751E-10   5.517E-08 DIIS
    Iter  10:  -2.2412392669520364E+02  -1.035E-10   2.306E-08 DIIS
    Iter  11:  -2.2412392669521995E+02  -1.631E-11   1.447E-08 DIIS
    Iter  12:  -2.2412392669522782E+02  -7.873E-12   4.873E-09 DIIS

    FISAPTSCF Converged.

    Final SCF Energy:  -2.2412392669522782E+02 [Eh]

   => Occupied Orbital Energies <=

       1  -20.608046     2  -20.544875     3  -11.385013  
       4  -11.293721     5   -1.439657     6   -1.354200  
       7   -0.962621     8   -0.766537     9   -0.667153  
      10   -0.662482    11   -0.620523    12   -0.540650  
      13   -0.534918    14   -0.471560    15   -0.458619  

   => Virtual Orbital Energies <=

      16    0.030534    17    0.054423    18    0.060694  
      19    0.061701    20    0.069987    21    0.078754  
      22    0.083845    23    0.087499    24    0.092133  
      25    0.101019    26    0.105764    27    0.111418  
      28    0.116237    29    0.118692    30    0.125488  
      31    0.129075    32    0.134716    33    0.139915  
      34    0.146129    35    0.154569    36    0.158227  
      37    0.160735    38    0.170719    39    0.175582  
      40    0.176208    41    0.185493    42    0.187390  
      43    0.195935    44    0.202165    45    0.208824  
      46    0.212611    47    0.219619    48    0.222146  
      49    0.227042    50    0.230570    51    0.237380  
      52    0.241441    53    0.251249    54    0.254950  
      55    0.259830    56    0.262630    57    0.267690  
      58    0.274026    59    0.277225    60    0.286875  
      61    0.292760    62    0.301990    63    0.304903  
      64    0.311202    65    0.320578    66    0.323519  
      67    0.328548    68    0.336913    69    0.342277  
      70    0.348828    71    0.359789    72    0.361326  
      73    0.363938    74    0.370422    75    0.378784  
      76    0.384509    77    0.387504    78    0.390022  
      79    0.394458    80    0.401399    81    0.402569  
      82    0.411307    83    0.412884    84    0.421501  
      85    0.432139    86    0.435084    87    0.442665  
      88    0.447343    89    0.452296    90    0.461572  
      91    0.469097    92    0.470263    93    0.483429  
      94    0.486266    95    0.494878    96    0.509852  
      97    0.515400    98    0.520520    99    0.538030  
     100    0.544346   101    0.544915   102    0.559724  
     103    0.567498   104    0.579614   105    0.595147  
     106    0.599507   107    0.605279   108    0.612244  
     109    0.629416   110    0.638751   111    0.653157  
     112    0.667729   113    0.681975   114    0.699532  
     115    0.715517   116    0.742701   117    0.769283  
     118    0.787522   119    0.797566   120    0.810264  
     121    0.817199   122    0.839128   123    0.845227  
     124    0.848589   125    0.873614   126    0.887788  
     127    0.900057   128    0.904525   129    0.914885  
     130    0.917186   131    0.924740   132    0.926533  
     133    0.939999   134    0.942738   135    0.956439  
     136    0.961431   137    0.970701   138    0.977429  
     139    0.985564   140    0.987008   141    0.996621  
     142    0.998410   143    1.010277   144    1.018297  
     145    1.027530   146    1.040383   147    1.050000  
     148    1.051891   149    1.057533   150    1.063397  
     151    1.087463   152    1.106330   153    1.113936  
     154    1.119067   155    1.122022   156    1.134481  
     157    1.142429   158    1.165217   159    1.166893  
     160    1.186377   161    1.200290   162    1.225739  
     163    1.236557   164    1.258929   165    1.289107  
     166    1.303290   167    1.330802   168    1.363842  
     169    1.380519   170    1.399328   171    1.425657  
     172    1.461256   173    1.469557   174    1.477928  
     175    1.492464   176    1.519596   177    1.526867  
     178    1.536199   179    1.563792   180    1.569311  
     181    1.583768   182    1.586511   183    1.601136  
     184    1.617979   185    1.627306   186    1.643286  
     187    1.650971   188    1.659981   189    1.665600  
     190    1.682041   191    1.707448   192    1.715356  
     193    1.720172   194    1.732117   195    1.739449  
     196    1.784793   197    1.805109   198    1.819551  
     199    1.827779   200    1.829869   201    1.837203  
     202    1.848041   203    1.863902   204    1.875181  
     205    1.885590   206    1.889187   207    1.910570  
     208    1.929774   209    1.944307   210    1.965684  
     211    1.968104   212    1.974235   213    1.980193  
     214    1.990987   215    2.000651   216    2.020096  
     217    2.023333   218    2.027207   219    2.035944  
     220    2.043213   221    2.056362   222    2.066483  
     223    2.081063   224    2.081865   225    2.111425  
     226    2.112189   227    2.118436   228    2.127267  
     229    2.140599   230    2.145956   231    2.155012  
     232    2.160090   233    2.170051   234    2.177454  
     235    2.182688   236    2.209497   237    2.217419  
     238    2.228975   239    2.251158   240    2.271535  
     241    2.274142   242    2.287996   243    2.313795  
     244    2.333724   245    2.344609   246    2.354676  
     247    2.359891   248    2.376265   249    2.387211  
     250    2.394296   251    2.404820   252    2.412639  
     253    2.419194   254    2.429522   255    2.446490  
     256    2.464021   257    2.480461   258    2.494904  
     259    2.506660   260    2.531348   261    2.567793  
     262    2.570439   263    2.574213   264    2.589376  
     265    2.605435   266    2.622510   267    2.660846  
     268    2.675567   269    2.683434   270    2.694998  
     271    2.709448   272    2.744318   273    2.755272  
     274    2.761102   275    2.790983   276    2.810212  
     277    2.823780   278    2.845673   279    2.859953  
     280    2.862139   281    2.871988   282    2.880926  
     283    2.891350   284    2.894472   285    2.921196  
     286    2.938866   287    2.958965   288    2.967698  
     289    2.975146   290    2.984089   291    3.010348  
     292    3.018311   293    3.053545   294    3.065955  
     295    3.098518   296    3.154120   297    3.197353  
     298    3.267471   299    3.316347   300    3.340667  
     301    3.402741   302    3.412647   303    3.430860  
     304    3.537693   305    3.580335   306    3.632589  
     307    3.663068   308    3.679254   309    3.728476  
     310    3.790669   311    3.835541   312    3.911818  
     313    3.954117   314    3.977229   315    4.084156  
     316    4.134540   317    4.217301   318    4.452161  
     319    4.525962   320    4.558658   321    4.756971  
     322    4.949151   323    5.044089   324    5.069999  
     325    5.227258   326    5.342094   327    5.524583  
     328    5.598714   329    5.754767   330    5.829427  
     331    6.151887   332    6.365315   333    6.699665  
     334   13.390129   335   18.432112   336   33.425541  
     337   33.486015  

  ==> Frozen Core <==


    ------------------
    Range      A     B
    ------------------
    nbf      368   368
    nmo      337   337
    nocc      15    15
    nvir     322   322
    nfocc      4     4
    naocc     11    11
    navir    322   322
    nfvir      0     0
    ------------------

  ==> Unification <==

  ==> dHF <==

    E ABC(HF) =  -8.0026236581172293E+02 [Eh]
    E AC(0)   =  -5.7223237591197187E+02 [Eh]
    E BC(0)   =  -5.7224522358036472E+02 [Eh]
    E A(0)    =  -2.1265904341305958E+02 [Eh]
    E B(0)    =  -2.1266679190806349E+02 [Eh]
    E AC(HF)  =  -5.7222283562568794E+02 [Eh]
    E BC(HF)  =  -5.7222696959097982E+02 [Eh]
    E AB(HF)  =  -4.2528846570838755E+02 [Eh]
    E A(HF)   =  -2.1264055751061710E+02 [Eh]
    E B(HF)   =  -2.1263915466195931E+02 [Eh]
    E C       =  -3.4419619294075733E+02 [Eh]
    E HF      =   1.9040739856336586E-02 [Eh]

  ==> Electrostatics <==

    Elst10,r            =     0.011986410687 [Eh]

  ==> Exchange <==

    Exch10(S^2)         =     0.008924932511 [Eh]
    Exch10              =     0.008957614629 [Eh]

  ==> Induction <==

    Ind20,u (A<-B)      =    -0.001249122982 [Eh]
    Ind20,u (B<-A)      =    -0.002066944361 [Eh]
    Ind20,u             =    -0.003316067343 [Eh]
    Exch-Ind20,u (A<-B) =     0.000812994207 [Eh]
    Exch-Ind20,u (B<-A) =     0.001225943694 [Eh]
    Exch-Ind20,u        =     0.002038937901 [Eh]

  ==> CPHF Iterations <==

    Maxiter     =          50
    Convergence =   1.000E-08

    -----------------------------------------
    Iter   Monomer A    Monomer B    Time [s]
    -----------------------------------------
    1      1.558E-01    2.119E-01           5
    2      5.321E-02    8.092E-02          10
    3      1.263E-02    1.921E-02          15
    4      5.856E-03    6.714E-03          20
    5      1.967E-03    1.926E-03          26
    6      7.390E-04    6.775E-04          31
    7      2.386E-04    1.809E-04          36
    8      1.001E-04    7.494E-05          41
    9      2.468E-05    2.318E-05          46
    10     6.140E-06    8.707E-06          50
    11     2.466E-06    2.073E-06          55
    12     7.499E-07    3.450E-07          60
    13     1.581E-07    9.406E-08          65
    14     5.137E-08    2.960E-08          69
    15     9.765E-09*   6.358E-09*         74
    -----------------------------------------

    Ind20,r (A<-B)      =    -0.001406659937 [Eh]
    Ind20,r (B<-A)      =    -0.002458718389 [Eh]
    Ind20,r             =    -0.003865378326 [Eh]
    Exch-Ind20,r (A<-B) =     0.000951885456 [Eh]
    Exch-Ind20,r (B<-A) =     0.001566827482 [Eh]
    Exch-Ind20,r        =     0.002518712938 [Eh]

  ==> F-SAPT Localization (IBO) <==

  Local Orbitals for Monomer A:

  ==> IBO Localizer 2 <==

    MinAO Basis = CC-PVTZ-MINAO
    Use Ghosts  =       FALSE
    Use Stars   =       FALSE
    Condition   =   1.000E-07
    Power       =           4
    Convergence =   1.000E-12
    Maxiter     =        1000

    @IBO Iter:                   Metric       Gradient
    @IBO    1:   1.4839479344050617E+00   1.583139E+00
    @IBO    2:   1.6745594646266411E+00   1.091948E+00
    @IBO    3:   1.7095390387272040E+00   3.313823E-01
    @IBO    4:   1.7109795140217678E+00   5.911749E-03
    @IBO    5:   1.7109806849908935E+00   2.802260E-04
    @IBO    6:   1.7109806860718735E+00   6.074964E-06
    @IBO    7:   1.7109806860726724E+00   2.359560E-07
    @IBO    8:   1.7109806860726737E+00   9.655925E-09
    @IBO    9:   1.7109806860726737E+00   4.023351E-10
    @IBO   10:   1.7109806860726737E+00   1.678239E-11
    @IBO   11:   1.7109806860726737E+00   6.993532E-13

    IBO Localizer 2 converged.

  Local Orbitals for Monomer B:

  ==> IBO Localizer 2 <==

    MinAO Basis = CC-PVTZ-MINAO
    Use Ghosts  =       FALSE
    Use Stars   =       FALSE
    Condition   =   1.000E-07
    Power       =           4
    Convergence =   1.000E-12
    Maxiter     =        1000

    @IBO Iter:                   Metric       Gradient
    @IBO    1:   1.4845571292763442E+00   1.586993E+00
    @IBO    2:   1.6748238664504407E+00   1.070310E+00
    @IBO    3:   1.7089188801280097E+00   3.246410E-01
    @IBO    4:   1.7102994364018971E+00   7.988706E-03
    @IBO    5:   1.7103014190144281E+00   3.283129E-04
    @IBO    6:   1.7103014203036035E+00   4.917773E-06
    @IBO    7:   1.7103014203040272E+00   1.466471E-07
    @IBO    8:   1.7103014203040279E+00   4.749782E-09
    @IBO    9:   1.7103014203040279E+00   1.823812E-10
    @IBO   10:   1.7103014203040279E+00   7.481761E-12
    @IBO   11:   1.7103014203040279E+00   3.131678E-13

    IBO Localizer 2 converged.

  ==> F-SAPT Electrostatics <==

  ==> DFERI: Density Fitted 3-Index Tensors <==

    Schwarz cutoff =   0.000E+00
    J cutoff       =   1.000E-12
    Mem (GB)       =         628

   => Auxiliary Basis <=

  Basis Set: (JUN-CC-PVDZ AUX)
    Blend: JUN-CC-PVDZ-JKFIT
    Number of shells: 576
    Number of basis function: 1632
    Number of Cartesian functions: 1856
    Spherical Harmonics?: true
    Max angular momentum: 3

    Elst10,r            =     0.011986410966 [Eh]

  ==> F-SAPT Exchange <==

  ==> DFERI: Density Fitted 3-Index Tensors <==

    Schwarz cutoff =   0.000E+00
    J cutoff       =   1.000E-12
    Mem (GB)       =         628

   => Auxiliary Basis <=

  Basis Set: (JUN-CC-PVDZ AUX)
    Blend: JUN-CC-PVDZ-JKFIT
    Number of shells: 576
    Number of basis function: 1632
    Number of Cartesian functions: 1856
    Spherical Harmonics?: true
    Max angular momentum: 3

    Exch10(S^2)         =     0.008924932511 [Eh]

    Scaling F-SAPT Exch10(S^2) by   1.004E+00 to match Exch10

  ==> F-SAPT Induction <==

  ==> DFERI: Density Fitted 3-Index Tensors <==

    Schwarz cutoff =   0.000E+00
    J cutoff       =   1.000E-12
    Mem (GB)       =         628

   => Auxiliary Basis <=

  Basis Set: (JUN-CC-PVDZ AUX)
    Blend: JUN-CC-PVDZ-JKFIT
    Number of shells: 576
    Number of basis function: 1632
    Number of Cartesian functions: 1856
    Spherical Harmonics?: true
    Max angular momentum: 3

    Ind20,u (A<-B)      =    -0.001249122981 [Eh]
    Ind20,u (B<-A)      =    -0.002066944362 [Eh]
    Ind20,u             =    -0.003316067343 [Eh]
    Exch-Ind20,u (A<-B) =     0.000812994206 [Eh]
    Exch-Ind20,u (B<-A) =     0.001225943694 [Eh]
    Exch-Ind20,u        =     0.002038937901 [Eh]

    Scaling for delta HF        =   1.413E+00
    Scaling for response (A<-B) =   1.043E+00
    Scaling for response (B<-A) =   1.061E+00
    Scaling for total (A<-B)    =   1.474E+00
    Scaling for total (B<-A)    =   1.499E+00

  ==> F-SAPT Dispersion <==

  ==> DFERI: Density Fitted 3-Index Tensors <==

    Schwarz cutoff =   0.000E+00
    J cutoff       =   1.000E-12
    Mem (GB)       =         628

   => Auxiliary Basis <=

  Basis Set: (JUN-CC-PVDZ AUX)
    Blend: JUN-CC-PVDZ-RI
    Number of shells: 432
    Number of basis function: 1264
    Number of Cartesian functions: 1456
    Spherical Harmonics?: true
    Max angular momentum: 3

    Disp20              =    -0.004984705357 [Eh]
    Exch-Disp20         =     0.000657744451 [Eh]

  ==> F-SAPT Output <==

    F-SAPT Data Filepath = fsapt/

  ==> Results <==


    SAPT Results  
  --------------------------------------------------------------------------------------------------------
    Electrostatics                 11.98641069 [mEh]       7.52158658 [kcal/mol]      31.47032126 [kJ/mol]
      Elst10,r                     11.98641069 [mEh]       7.52158658 [kcal/mol]      31.47032126 [kJ/mol]

    Exchange                        8.95761463 [mEh]       5.62098828 [kcal/mol]      23.51821721 [kJ/mol]
      Exch10                        8.95761463 [mEh]       5.62098828 [kcal/mol]      23.51821721 [kJ/mol]
      Exch10(S^2)                   8.92493251 [mEh]       5.60047994 [kcal/mol]      23.43241031 [kJ/mol]

    Induction                      -1.90328546 [mEh]      -1.19432971 [kcal/mol]      -4.99707597 [kJ/mol]
      Ind20,r                      -3.86537833 [mEh]      -2.42556162 [kcal/mol]     -10.14855080 [kJ/mol]
      Exch-Ind20,r                  2.51871294 [mEh]       1.58051630 [kcal/mol]       6.61288082 [kJ/mol]
      delta HF,r (2)               -0.55662007 [mEh]      -0.34928438 [kcal/mol]      -1.46140600 [kJ/mol]
      Induction (A<-B)             -0.64274738 [mEh]      -0.40333009 [kcal/mol]      -1.68753326 [kJ/mol]
      Induction (B<-A)             -1.26053808 [mEh]      -0.79099962 [kcal/mol]      -3.30954272 [kJ/mol]

    Dispersion                     -4.32696091 [mEh]      -2.71520907 [kcal/mol]     -11.36043586 [kJ/mol]
      Disp20                       -4.98470536 [mEh]      -3.12794997 [kcal/mol]     -13.08734391 [kJ/mol]
      Exch-Disp20                   0.65774445 [mEh]       0.41274089 [kcal/mol]       1.72690806 [kJ/mol]

  Total HF                         19.04073986 [mEh]      11.94824515 [kcal/mol]      49.99146249 [kJ/mol]
  Total SAPT0                      14.71377895 [mEh]       9.23303607 [kcal/mol]      38.63102663 [kJ/mol]

  --------------------------------------------------------------------------------------------------------
    Han Solo: This is *not* gonna work.
    Luke Skywalker: Why didn't you say so before?
    Han Solo: I *did* say so before.

*** tstop() called on ThinkPad-P50 at Mon Jan 15 17:48:52 2018
Module time:
	user time   =     653.84 seconds =      10.90 minutes
	system time =       2.77 seconds =       0.05 minutes
	total time  =        190 seconds =       3.17 minutes
Total time:
	user time   =     813.97 seconds =      13.57 minutes
	system time =       3.48 seconds =       0.06 minutes
	total time  =        243 seconds =       4.05 minutes

*** Psi4 exiting successfully. Buy a developer a beer!
