
    -----------------------------------------------------------------------
          Psi4: An Open-Source Ab Initio Electronic Structure Package
                               Psi4 1.1 release

                         Git: Rev {HEAD} add49b9 


    R. M. Parrish, L. A. Burns, D. G. A. Smith, A. C. Simmonett,
    A. E. DePrince III, E. G. Hohenstein, U. Bozkaya, A. Yu. Sokolov,
    R. Di Remigio, R. M. Richard, J. F. Gonthier, A. M. James,
    H. R. McAlexander, A. Kumar, M. Saitow, X. Wang, B. P. Pritchard,
    P. Verma, H. F. Schaefer III, K. Patkowski, R. A. King, E. F. Valeev,
    F. A. Evangelista, J. M. Turney, T. D. Crawford, and C. D. Sherrill,
    J. Chem. Theory Comput. in press (2017).
    (doi: 10.1021/acs.jctc.7b00174)

    -----------------------------------------------------------------------


    Psi4 started on: Monday, 15 January 2018 05:48PM

    Process ID:  18197
    PSIDATADIR: /home/junteng/Softwares/psi4conda/share/psi4
    Memory:     500.0 MiB
    Threads:    4
    
  ==> Input File <==

--------------------------------------------------------------------------
memory 750000 mb

molecule mol {
0 1
C          2.07890       -2.04347       -0.59568
H          2.97257       -2.04901       -1.22349
H          2.27288       -2.67484        0.27662
H          1.25043       -2.46792       -1.15705
--
0 1
C         -0.61879       -1.32178        0.74401
O         -1.27838       -1.61519        1.71389
O         -0.85218       -1.80874       -0.48403
C         -2.01505       -2.64025       -0.62077
H         -2.05670       -2.90894       -1.67414
H         -1.92824       -3.53246        0.00153
H         -2.90903       -2.08773       -0.32806
--
0 1
H          1.01437        2.24375       -1.24604
C         -1.08636        1.66624        0.18028
O         -1.32111        2.85293        0.17967
O         -1.98268        0.73904       -0.17952
C         -3.28527        1.22298       -0.55973
H         -3.86242        0.33476       -0.80595
H         -3.74492        1.76353        0.26840
H         -3.20658        1.88258       -1.42464
C          0.28331        1.13713        0.56550
C          0.57831       -0.38549        0.82863
C          1.31905        1.44893       -0.56941
C          2.71067        1.60112        0.06703
C          3.01138        0.12270        0.43609
C          1.77773       -0.62712       -0.15430
O          1.41867        0.21113       -1.27364
H          0.53945        1.71673        1.45263
H          0.91159       -0.49579        1.86079
H          3.42040        1.97884       -0.67070
H          2.71193        2.27929        0.92206
H          3.92244       -0.23138       -0.04806
H          3.11784       -0.04256        1.51001

symmetry c1
no_reorient
no_com
}

set {
basis jun-cc-pvdz
scf_type df
guess sad
freeze_core true
}

energy('fisapt0')
--------------------------------------------------------------------------

  Memory set to 698.492 GiB by Python driver.

*** tstart() called on ThinkPad-P50
*** at Mon Jan 15 17:48:52 2018

   => Loading Basis Set <=

    Name: JUN-CC-PVDZ
    Role: ORBITAL
    Keyword: BASIS
    atoms 1, 5, 8, 13, 16, 20-25  entry C          line   157 file /home/junteng/Softwares/psi4conda/share/psi4/basis/jun-cc-pvdz.gbs 
    atoms 2-4, 9-12, 17-19, 27-32 entry H          line    35 file /home/junteng/Softwares/psi4conda/share/psi4/basis/jun-cc-pvdz.gbs 
    atoms 6-7, 14-15, 26          entry O          line   225 file /home/junteng/Softwares/psi4conda/share/psi4/basis/jun-cc-pvdz.gbs 


         ---------------------------------------------------------
                                   SCF
            by Justin Turney, Rob Parrish, and Andy Simmonett
                              RHF Reference
                        4 Threads, 715255 MiB Core
         ---------------------------------------------------------

  ==> Geometry <==

    Molecular point group: c1
    Full point group: C1

    Geometry (in Angstrom), charge = 0, multiplicity = 1:

       Center              X                  Y                   Z               Mass       
    ------------   -----------------  -----------------  -----------------  -----------------
           C          2.078900000000    -2.043470000000    -0.595680000000    12.000000000000
           H          2.972570000000    -2.049010000000    -1.223490000000     1.007825032070
           H          2.272880000000    -2.674840000000     0.276620000000     1.007825032070
           H          1.250430000000    -2.467920000000    -1.157050000000     1.007825032070
           C         -0.618790000000    -1.321780000000     0.744010000000    12.000000000000
           O         -1.278380000000    -1.615190000000     1.713890000000    15.994914619560
           O         -0.852180000000    -1.808740000000    -0.484030000000    15.994914619560
           C         -2.015050000000    -2.640250000000    -0.620770000000    12.000000000000
           H         -2.056700000000    -2.908940000000    -1.674140000000     1.007825032070
           H         -1.928240000000    -3.532460000000     0.001530000000     1.007825032070
           H         -2.909030000000    -2.087730000000    -0.328060000000     1.007825032070
           H          1.014370000000     2.243750000000    -1.246040000000     1.007825032070
           C         -1.086360000000     1.666240000000     0.180280000000    12.000000000000
           O         -1.321110000000     2.852930000000     0.179670000000    15.994914619560
           O         -1.982680000000     0.739040000000    -0.179520000000    15.994914619560
           C         -3.285270000000     1.222980000000    -0.559730000000    12.000000000000
           H         -3.862420000000     0.334760000000    -0.805950000000     1.007825032070
           H         -3.744920000000     1.763530000000     0.268400000000     1.007825032070
           H         -3.206580000000     1.882580000000    -1.424640000000     1.007825032070
           C          0.283310000000     1.137130000000     0.565500000000    12.000000000000
           C          0.578310000000    -0.385490000000     0.828630000000    12.000000000000
           C          1.319050000000     1.448930000000    -0.569410000000    12.000000000000
           C          2.710670000000     1.601120000000     0.067030000000    12.000000000000
           C          3.011380000000     0.122700000000     0.436090000000    12.000000000000
           C          1.777730000000    -0.627120000000    -0.154300000000    12.000000000000
           O          1.418670000000     0.211130000000    -1.273640000000    15.994914619560
           H          0.539450000000     1.716730000000     1.452630000000     1.007825032070
           H          0.911590000000    -0.495790000000     1.860790000000     1.007825032070
           H          3.420400000000     1.978840000000    -0.670700000000     1.007825032070
           H          2.711930000000     2.279290000000     0.922060000000     1.007825032070
           H          3.922440000000    -0.231380000000    -0.048060000000     1.007825032070
           H          3.117840000000    -0.042560000000     1.510010000000     1.007825032070

  Running in c1 symmetry.

  Rotational constants: A =      0.02340  B =      0.01824  C =      0.01226 [cm^-1]
  Rotational constants: A =    701.65682  B =    546.84272  C =    367.68073 [MHz]
  Nuclear repulsion = 1256.984555845361456

  Charge       = 0
  Multiplicity = 1
  Electrons    = 122
  Nalpha       = 61
  Nbeta        = 61

  ==> Algorithm <==

  SCF Algorithm Type is DF.
  DIIS enabled.
  MOM disabled.
  Fractional occupation disabled.
  Guess Type is SAD.
  Energy threshold   = 1.00e-08
  Density threshold  = 1.00e-08
  Integral threshold = 0.00e+00

  ==> Primary Basis <==

  Basis Set: JUN-CC-PVDZ
    Blend: JUN-CC-PVDZ
    Number of shells: 176
    Number of basis function: 368
    Number of Cartesian functions: 384
    Spherical Harmonics?: true
    Max angular momentum: 2

   => Loading Basis Set <=

    Name: (JUN-CC-PVDZ AUX)
    Role: JKFIT
    Keyword: DF_BASIS_SCF
    atoms 1, 5, 8, 13, 16, 20-25  entry C          line   145 file /home/junteng/Softwares/psi4conda/share/psi4/basis/jun-cc-pvdz-jkfit.gbs 
    atoms 2-4, 9-12, 17-19, 27-32 entry H          line    69 file /home/junteng/Softwares/psi4conda/share/psi4/basis/jun-cc-pvdz-jkfit.gbs 
    atoms 6-7, 14-15, 26          entry O          line   257 file /home/junteng/Softwares/psi4conda/share/psi4/basis/jun-cc-pvdz-jkfit.gbs 

  ==> Pre-Iterations <==

   -------------------------------------------------------
    Irrep   Nso     Nmo     Nalpha   Nbeta   Ndocc  Nsocc
   -------------------------------------------------------
     A        368     368       0       0       0       0
   -------------------------------------------------------
    Total     368     368      61      61      61       0
   -------------------------------------------------------

  ==> Integral Setup <==

  ==> DFJK: Density-Fitted J/K Matrices <==

    J tasked:                  Yes
    K tasked:                  Yes
    wK tasked:                  No
    OpenMP threads:              4
    Integrals threads:           4
    Memory (MB):            536441
    Algorithm:                Core
    Integral Cache:           NONE
    Schwarz Cutoff:          1E-12
    Fitting Condition:       1E-12

   => Auxiliary Basis Set <=

  Basis Set: (JUN-CC-PVDZ AUX)
    Blend: JUN-CC-PVDZ-JKFIT
    Number of shells: 576
    Number of basis function: 1632
    Number of Cartesian functions: 1856
    Spherical Harmonics?: true
    Max angular momentum: 3

  Minimum eigenvalue in the overlap matrix is 1.0451197289E-05.
  Using Symmetric Orthogonalization.

  SCF Guess: Superposition of Atomic Densities via on-the-fly atomic UHF.

  ==> Iterations <==

                           Total Energy        Delta E     RMS |[F,P]|

   @DF-RHF iter   0:  -807.21665522370381   -8.07217e+02   4.08171e-02 
   @DF-RHF iter   1:  -799.77532441314747    7.44133e+00   4.39646e-03 
   @DF-RHF iter   2:  -800.16778120296726   -3.92457e-01   2.22971e-03 DIIS
   @DF-RHF iter   3:  -800.24287175538734   -7.50906e-02   8.26004e-04 DIIS
   @DF-RHF iter   4:  -800.26028105934768   -1.74093e-02   2.29915e-04 DIIS
   @DF-RHF iter   5:  -800.26189271231442   -1.61165e-03   1.01327e-04 DIIS
   @DF-RHF iter   6:  -800.26225923715890   -3.66525e-04   4.22037e-05 DIIS
   @DF-RHF iter   7:  -800.26234898429107   -8.97471e-05   1.52643e-05 DIIS
   @DF-RHF iter   8:  -800.26236281875288   -1.38345e-05   6.52683e-06 DIIS
   @DF-RHF iter   9:  -800.26236537328089   -2.55453e-06   2.53975e-06 DIIS
   @DF-RHF iter  10:  -800.26236573059373   -3.57313e-07   1.11741e-06 DIIS
   @DF-RHF iter  11:  -800.26236579890804   -6.83143e-08   3.99208e-07 DIIS
   @DF-RHF iter  12:  -800.26236580755312   -8.64509e-09   1.51035e-07 DIIS
   @DF-RHF iter  13:  -800.26236580868044   -1.12732e-09   6.27853e-08 DIIS
   @DF-RHF iter  14:  -800.26236580883869   -1.58252e-10   2.33850e-08 DIIS
   @DF-RHF iter  15:  -800.26236580886507   -2.63753e-11   7.08450e-09 DIIS

  ==> Post-Iterations <==

    Orbital Energies (a.u.)
    -----------------------

    Doubly Occupied:                                                      

       1A    -20.617451     2A    -20.605300     3A    -20.569056  
       4A    -20.556420     5A    -20.550362     6A    -11.396315  
       7A    -11.389196     8A    -11.305345     9A    -11.300365  
      10A    -11.300027    11A    -11.294285    12A    -11.270724  
      13A    -11.266544    14A    -11.241218    15A    -11.240579  
      16A    -11.228376    17A     -1.475088    18A     -1.463390  
      19A     -1.405729    20A     -1.369197    21A     -1.361562  
      22A     -1.114458    23A     -1.064163    24A     -1.050950  
      25A     -0.991631    26A     -0.973686    27A     -0.940376  
      28A     -0.887420    29A     -0.820249    30A     -0.801829  
      31A     -0.778279    32A     -0.769050    33A     -0.718809  
      34A     -0.698813    35A     -0.693094    36A     -0.676101  
      37A     -0.673534    38A     -0.667958    39A     -0.660614  
      40A     -0.658578    41A     -0.629672    42A     -0.600297  
      43A     -0.583430    44A     -0.578535    45A     -0.566721  
      46A     -0.563970    47A     -0.549223    48A     -0.538152  
      49A     -0.531153    50A     -0.522797    51A     -0.511817  
      52A     -0.510132    53A     -0.502388    54A     -0.493331  
      55A     -0.486209    56A     -0.471651    57A     -0.466768  
      58A     -0.456928    59A     -0.448547    60A     -0.434028  
      61A     -0.424384  

    Virtual:                                                              

      62A      0.048844    63A      0.052640    64A      0.060121  
      65A      0.069708    66A      0.072428    67A      0.078954  
      68A      0.085749    69A      0.092596    70A      0.097636  
      71A      0.104685    72A      0.106459    73A      0.113649  
      74A      0.120529    75A      0.123441    76A      0.131739  
      77A      0.135062    78A      0.137325    79A      0.145321  
      80A      0.153797    81A      0.154167    82A      0.156259  
      83A      0.166867    84A      0.171310    85A      0.175189  
      86A      0.180734    87A      0.184461    88A      0.190362  
      89A      0.193378    90A      0.199931    91A      0.208345  
      92A      0.212590    93A      0.218506    94A      0.222507  
      95A      0.228154    96A      0.231068    97A      0.233145  
      98A      0.242538    99A      0.248128   100A      0.255795  
     101A      0.257668   102A      0.261707   103A      0.266158  
     104A      0.268755   105A      0.275631   106A      0.285524  
     107A      0.294657   108A      0.304706   109A      0.308867  
     110A      0.315123   111A      0.322195   112A      0.326562  
     113A      0.332035   114A      0.342091   115A      0.342924  
     116A      0.348318   117A      0.354410   118A      0.358962  
     119A      0.365892   120A      0.371663   121A      0.375515  
     122A      0.382962   123A      0.383956   124A      0.384665  
     125A      0.391145   126A      0.393609   127A      0.401690  
     128A      0.403984   129A      0.412760   130A      0.416011  
     131A      0.418901   132A      0.424947   133A      0.433053  
     134A      0.438848   135A      0.448141   136A      0.454133  
     137A      0.460451   138A      0.472366   139A      0.475158  
     140A      0.478967   141A      0.491912   142A      0.496202  
     143A      0.500029   144A      0.503869   145A      0.510637  
     146A      0.519728   147A      0.530771   148A      0.535504  
     149A      0.541801   150A      0.549288   151A      0.563392  
     152A      0.573729   153A      0.584693   154A      0.600747  
     155A      0.623566   156A      0.628565   157A      0.638963  
     158A      0.674822   159A      0.686133   160A      0.716740  
     161A      0.744537   162A      0.769552   163A      0.784692  
     164A      0.795267   165A      0.808576   166A      0.813031  
     167A      0.824033   168A      0.833556   169A      0.838967  
     170A      0.859983   171A      0.875644   172A      0.887854  
     173A      0.893215   174A      0.898970   175A      0.904617  
     176A      0.912936   177A      0.913527   178A      0.917980  
     179A      0.929472   180A      0.938301   181A      0.945407  
     182A      0.950287   183A      0.954651   184A      0.961209  
     185A      0.966522   186A      0.967622   187A      0.977977  
     188A      0.980257   189A      0.985421   190A      0.992573  
     191A      0.998213   192A      1.003442   193A      1.008808  
     194A      1.023174   195A      1.037483   196A      1.049084  
     197A      1.054931   198A      1.056009   199A      1.076828  
     200A      1.082209   201A      1.091884   202A      1.106723  
     203A      1.111409   204A      1.119549   205A      1.138751  
     206A      1.147159   207A      1.163130   208A      1.190093  
     209A      1.220492   210A      1.238247   211A      1.246215  
     212A      1.268317   213A      1.277835   214A      1.294419  
     215A      1.330900   216A      1.339785   217A      1.346847  
     218A      1.367109   219A      1.412043   220A      1.437489  
     221A      1.457918   222A      1.473582   223A      1.482224  
     224A      1.491274   225A      1.497203   226A      1.504353  
     227A      1.521677   228A      1.535242   229A      1.550960  
     230A      1.553914   231A      1.567462   232A      1.579116  
     233A      1.592777   234A      1.603895   235A      1.618963  
     236A      1.629884   237A      1.635214   238A      1.645102  
     239A      1.658504   240A      1.664651   241A      1.667340  
     242A      1.680241   243A      1.689861   244A      1.702623  
     245A      1.723960   246A      1.726593   247A      1.743003  
     248A      1.753475   249A      1.780206   250A      1.794172  
     251A      1.801837   252A      1.809360   253A      1.831191  
     254A      1.856378   255A      1.858834   256A      1.864882  
     257A      1.873586   258A      1.887836   259A      1.899706  
     260A      1.911673   261A      1.931348   262A      1.944686  
     263A      1.950765   264A      1.955842   265A      1.968580  
     266A      1.978445   267A      1.987268   268A      1.995706  
     269A      2.001906   270A      2.009754   271A      2.021147  
     272A      2.023901   273A      2.031608   274A      2.039537  
     275A      2.050094   276A      2.063488   277A      2.064142  
     278A      2.073748   279A      2.088622   280A      2.096474  
     281A      2.103258   282A      2.126686   283A      2.132816  
     284A      2.145271   285A      2.158098   286A      2.168322  
     287A      2.175496   288A      2.186337   289A      2.192197  
     290A      2.205356   291A      2.222724   292A      2.234050  
     293A      2.265788   294A      2.270143   295A      2.294806  
     296A      2.316407   297A      2.325348   298A      2.337868  
     299A      2.352372   300A      2.363853   301A      2.381538  
     302A      2.387162   303A      2.394551   304A      2.402702  
     305A      2.419225   306A      2.430957   307A      2.435630  
     308A      2.439286   309A      2.452862   310A      2.472814  
     311A      2.482003   312A      2.508442   313A      2.530249  
     314A      2.551100   315A      2.559483   316A      2.582447  
     317A      2.628666   318A      2.641736   319A      2.675610  
     320A      2.701703   321A      2.730021   322A      2.735422  
     323A      2.761940   324A      2.781379   325A      2.796255  
     326A      2.803885   327A      2.816989   328A      2.833970  
     329A      2.840756   330A      2.854298   331A      2.870752  
     332A      2.879809   333A      2.885997   334A      2.895283  
     335A      2.917764   336A      2.927065   337A      2.941606  
     338A      2.965082   339A      2.991587   340A      3.000932  
     341A      3.011073   342A      3.024144   343A      3.064670  
     344A      3.115197   345A      3.163120   346A      3.178256  
     347A      3.245990   348A      3.272991   349A      3.300989  
     350A      3.321476   351A      3.378151   352A      3.384972  
     353A      3.391833   354A      3.423377   355A      3.509016  
     356A      3.528927   357A      3.565030   358A      3.583410  
     359A      3.658716   360A      3.680417   361A      3.693501  
     362A      3.782219   363A      3.828302   364A      3.859048  
     365A      3.939793   366A      3.964599   367A      4.069908  
     368A      4.092529  

    Final Occupation by Irrep:
              A 
    DOCC [    61 ]

  Energy converged.

  @DF-RHF Final Energy:  -800.26236580886507

   => Energetics <=

    Nuclear Repulsion Energy =           1256.9845558453614558
    One-Electron Energy =               -3593.0613276611270521
    Two-Electron Energy =                1535.8144060069007537
    DFT Exchange-Correlation Energy =       0.0000000000000000
    Empirical Dispersion Energy =           0.0000000000000000
    PCM Polarization Energy =               0.0000000000000000
    EFP Energy =                            0.0000000000000000
    Total Energy =                       -800.2623658088650700



Properties will be evaluated at   0.000000,   0.000000,   0.000000 Bohr

Properties computed using the SCF density matrix

  Nuclear Dipole Moment: (a.u.)
     X:     1.5569      Y:    -0.3247      Z:    -1.3327

  Electronic Dipole Moment: (a.u.)
     X:    -1.2077      Y:    -0.2104      Z:     1.0022

  Dipole Moment: (a.u.)
     X:     0.3492      Y:    -0.5351      Z:    -0.3304     Total:     0.7194

  Dipole Moment: (Debye)
     X:     0.8875      Y:    -1.3601      Z:    -0.8399     Total:     1.8284


*** tstop() called on ThinkPad-P50 at Mon Jan 15 17:49:42 2018
Module time:
	user time   =     151.02 seconds =       2.52 minutes
	system time =       0.76 seconds =       0.01 minutes
	total time  =         50 seconds =       0.83 minutes
Total time:
	user time   =     151.02 seconds =       2.52 minutes
	system time =       0.76 seconds =       0.01 minutes
	total time  =         50 seconds =       0.83 minutes
   => Loading Basis Set <=

    Name: (JUN-CC-PVDZ AUX)
    Role: JKFIT
    Keyword: DF_BASIS_SCF
    atoms 1, 5, 8, 13, 16, 20-25  entry C          line   145 file /home/junteng/Softwares/psi4conda/share/psi4/basis/jun-cc-pvdz-jkfit.gbs 
    atoms 2-4, 9-12, 17-19, 27-32 entry H          line    69 file /home/junteng/Softwares/psi4conda/share/psi4/basis/jun-cc-pvdz-jkfit.gbs 
    atoms 6-7, 14-15, 26          entry O          line   257 file /home/junteng/Softwares/psi4conda/share/psi4/basis/jun-cc-pvdz-jkfit.gbs 

   => Loading Basis Set <=

    Name: (JUN-CC-PVDZ AUX)
    Role: RIFIT
    Keyword: DF_BASIS_SAPT
    atoms 1, 5, 8, 13, 16, 20-25  entry C          line    99 file /home/junteng/Softwares/psi4conda/share/psi4/basis/jun-cc-pvdz-ri.gbs 
    atoms 2-4, 9-12, 17-19, 27-32 entry H          line    29 file /home/junteng/Softwares/psi4conda/share/psi4/basis/jun-cc-pvdz-ri.gbs 
    atoms 6-7, 14-15, 26          entry O          line   187 file /home/junteng/Softwares/psi4conda/share/psi4/basis/jun-cc-pvdz-ri.gbs 

   => Loading Basis Set <=

    Name: CC-PVTZ-MINAO
    Role: ORBITAL
    Keyword: BASIS
    atoms 1, 5, 8, 13, 16, 20-25  entry C          line   130 file /home/junteng/Softwares/psi4conda/share/psi4/basis/cc-pvtz-minao.gbs 
    atoms 2-4, 9-12, 17-19, 27-32 entry H          line    19 file /home/junteng/Softwares/psi4conda/share/psi4/basis/cc-pvtz-minao.gbs 
    atoms 6-7, 14-15, 26          entry O          line   190 file /home/junteng/Softwares/psi4conda/share/psi4/basis/cc-pvtz-minao.gbs 


*** tstart() called on ThinkPad-P50
*** at Mon Jan 15 17:49:42 2018

	 --------------------------------------------
	                    FISAPT0                  
	                  Rob Parrish                
	 --------------------------------------------

    Do F-SAPT =         Yes
    Do Plot   =          No
    Memory    =      78.580 [GD]

  ==> Localization (IBO) <==

  ==> IBO Localizer 2 <==

    MinAO Basis = CC-PVTZ-MINAO
    Use Ghosts  =       FALSE
    Use Stars   =       FALSE
    Condition   =   1.000E-07
    Power       =           4
    Convergence =   1.000E-12
    Maxiter     =        1000

    @IBO Iter:                   Metric       Gradient
    @IBO    1:   1.9611663752753639E+00   2.563349E+00
    @IBO    2:   2.2205082509716623E+00   2.503557E+00
    @IBO    3:   2.3196239544695509E+00   1.246021E+00
    @IBO    4:   2.3322349378025193E+00   1.238234E-01
    @IBO    5:   2.3323301991522505E+00   3.333915E-03
    @IBO    6:   2.3323302636576209E+00   4.803565E-05
    @IBO    7:   2.3323302636765022E+00   1.171494E-06
    @IBO    8:   2.3323302636765146E+00   3.670150E-08
    @IBO    9:   2.3323302636765146E+00   1.252748E-09
    @IBO   10:   2.3323302636765146E+00   4.659222E-11
    @IBO   11:   2.3323302636765146E+00   1.854671E-12
    @IBO   12:   2.3323302636765146E+00   7.770466E-14

    IBO Localizer 2 converged.

  ==> Partitioning <==

   => Atomic Partitioning <= 

    Monomer A:   4 atoms
    Monomer B:   7 atoms
    Monomer C:  21 atoms

   => Link Bond Identification <=

    Link Bond Selection = AUTOMATIC

    Charge Completeness = 0.800

    Total Link Bonds = 2

    --------------------------
    N     Orb Type Aind1 Aind2
    --------------------------
    1      16   AC     1    25
    2      38   BC     5    21
    --------------------------

   => Link Bond Assignment <=

    Link Bond Assignment      = C

   => Partition Summary <=

    Monomer A:  0 charge,   8 protons,   8 electrons,   4 docc
    Monomer B:  0 charge,  30 protons,  30 electrons,  15 docc
    Monomer C:  0 charge,  84 protons,  84 electrons,  42 docc

  ==> Overlap Integrals <==

  ==> Kinetic Integrals <==

  ==> Nuclear Integrals <==

    Nuclear Repulsion Tot:   1.2569845558453640E+03 [Eh]

  ==> Coulomb Integrals <==

  ==> DFJK: Density-Fitted J/K Matrices <==

    J tasked:                  Yes
    K tasked:                  Yes
    wK tasked:                  No
    OpenMP threads:              4
    Integrals threads:           4
    Memory (MB):            643730
    Algorithm:                Core
    Integral Cache:           NONE
    Schwarz Cutoff:          1E-12
    Fitting Condition:       1E-12

   => Auxiliary Basis Set <=

  Basis Set: (JUN-CC-PVDZ AUX)
    Blend: JUN-CC-PVDZ-JKFIT
    Number of shells: 576
    Number of basis function: 1632
    Number of Cartesian functions: 1856
    Spherical Harmonics?: true
    Max angular momentum: 3

  ==> Relaxed SCF Equations <==

  ==> SCF A: <==

    Maxiter =          50
    E Tol   =   1.000E-06
    D Tol   =   1.000E-08

    Max DIIS Vectors = 5

    Iter   N:                        E          dE         |D|
    Iter   1:  -3.6229122780172133E+01  -3.623E+01   5.697E-04 
    Iter   2:  -3.6232047352657631E+01  -2.925E-03   5.694E-05 DIIS
    Iter   3:  -3.6232137546157063E+01  -9.019E-05   1.279E-05 DIIS
    Iter   4:  -3.6232144237465675E+01  -6.691E-06   3.245E-06 DIIS
    Iter   5:  -3.6232144613145721E+01  -3.757E-07   6.436E-07 DIIS
    Iter   6:  -3.6232144627927141E+01  -1.478E-08   8.204E-08 DIIS
    Iter   7:  -3.6232144628184301E+01  -2.572E-10   1.269E-08 DIIS
    Iter   8:  -3.6232144628190404E+01  -6.104E-12   1.724E-09 DIIS

    FISAPTSCF Converged.

    Final SCF Energy:  -3.6232144628190404E+01 [Eh]

   => Occupied Orbital Energies <=

       1  -11.222562     2   -0.839229     3   -0.550175  
       4   -0.547739  

   => Virtual Orbital Energies <=

       5    0.030988     6    0.054205     7    0.060841  
       8    0.061777     9    0.069953    10    0.078981  
      11    0.084131    12    0.087717    13    0.092130  
      14    0.101458    15    0.105670    16    0.111766  
      17    0.116494    18    0.118555    19    0.125673  
      20    0.129246    21    0.134969    22    0.139761  
      23    0.146024    24    0.154600    25    0.158563  
      26    0.160995    27    0.170923    28    0.175735  
      29    0.178205    30    0.185716    31    0.187710  
      32    0.196515    33    0.202626    34    0.209569  
      35    0.212660    36    0.219634    37    0.222490  
      38    0.227205    39    0.230829    40    0.237913  
      41    0.241624    42    0.251966    43    0.255200  
      44    0.259999    45    0.262731    46    0.268257  
      47    0.274291    48    0.277981    49    0.287218  
      50    0.293252    51    0.302268    52    0.304289  
      53    0.311738    54    0.320810    55    0.323728  
      56    0.328578    57    0.337033    58    0.342412  
      59    0.348506    60    0.359991    61    0.361442  
      62    0.364172    63    0.370575    64    0.378913  
      65    0.384997    66    0.387849    67    0.390176  
      68    0.394782    69    0.401227    70    0.403151  
      71    0.411872    72    0.413381    73    0.422257  
      74    0.432032    75    0.435373    76    0.442731  
      77    0.447796    78    0.452699    79    0.462266  
      80    0.469310    81    0.470854    82    0.484196  
      83    0.486649    84    0.495876    85    0.509945  
      86    0.517418    87    0.521372    88    0.538838  
      89    0.544571    90    0.545715    91    0.559883  
      92    0.568429    93    0.580534    94    0.595573  
      95    0.600289    96    0.606195    97    0.613192  
      98    0.629905    99    0.639645   100    0.655025  
     101    0.668942   102    0.683851   103    0.700354  
     104    0.716423   105    0.744452   106    0.769915  
     107    0.787695   108    0.797746   109    0.810062  
     110    0.817547   111    0.839579   112    0.845706  
     113    0.848161   114    0.874320   115    0.887757  
     116    0.900174   117    0.904268   118    0.914828  
     119    0.917312   120    0.924646   121    0.926437  
     122    0.940023   123    0.943014   124    0.956659  
     125    0.961180   126    0.970070   127    0.978706  
     128    0.986791   129    0.988536   130    0.997173  
     131    0.998753   132    1.010362   133    1.018714  
     134    1.028407   135    1.041561   136    1.051067  
     137    1.052583   138    1.058876   139    1.063046  
     140    1.088346   141    1.106692   142    1.113139  
     143    1.119402   144    1.122462   145    1.134938  
     146    1.143137   147    1.165861   148    1.167312  
     149    1.187052   150    1.200746   151    1.225440  
     152    1.237357   153    1.260065   154    1.290057  
     155    1.303937   156    1.332692   157    1.364396  
     158    1.382026   159    1.400795   160    1.426919  
     161    1.463095   162    1.470214   163    1.479840  
     164    1.493177   165    1.519956   166    1.526841  
     167    1.536857   168    1.563986   169    1.570213  
     170    1.584487   171    1.587532   172    1.602094  
     173    1.618651   174    1.628641   175    1.644050  
     176    1.651743   177    1.659977   178    1.663798  
     179    1.682307   180    1.708184   181    1.715864  
     182    1.720902   183    1.732166   184    1.740356  
     185    1.785616   186    1.805501   187    1.820179  
     188    1.828103   189    1.830300   190    1.838228  
     191    1.849089   192    1.865313   193    1.875492  
     194    1.886141   195    1.889733   196    1.910507  
     197    1.930077   198    1.945095   199    1.966007  
     200    1.968322   201    1.974103   202    1.981046  
     203    1.991305   204    2.000560   205    2.019890  
     206    2.023290   207    2.026663   208    2.036534  
     209    2.043507   210    2.056464   211    2.066979  
     212    2.081711   213    2.082089   214    2.111662  
     215    2.112590   216    2.119421   217    2.128171  
     218    2.141439   219    2.146439   220    2.156018  
     221    2.160629   222    2.169407   223    2.178060  
     224    2.182608   225    2.210609   226    2.218039  
     227    2.229564   228    2.252287   229    2.272003  
     230    2.274999   231    2.288589   232    2.314095  
     233    2.334145   234    2.345416   235    2.355379  
     236    2.360501   237    2.376237   238    2.386058  
     239    2.395269   240    2.404660   241    2.412421  
     242    2.419986   243    2.430352   244    2.446585  
     245    2.464275   246    2.481817   247    2.495459  
     248    2.507257   249    2.532400   250    2.568443  
     251    2.571926   252    2.575775   253    2.590350  
     254    2.606460   255    2.624069   256    2.661326  
     257    2.676433   258    2.684636   259    2.695147  
     260    2.710310   261    2.745379   262    2.755985  
     263    2.761161   264    2.789373   265    2.810231  
     266    2.823857   267    2.845370   268    2.859198  
     269    2.862694   270    2.870997   271    2.880794  
     272    2.891410   273    2.894241   274    2.920223  
     275    2.938480   276    2.960018   277    2.968728  
     278    2.975475   279    2.984733   280    3.011229  
     281    3.019282   282    3.054446   283    3.067011  
     284    3.099285   285    3.154789   286    3.197981  
     287    3.270849   288    3.319660   289    3.341863  
     290    3.405013   291    3.414787   292    3.431016  
     293    3.538105   294    3.582731   295    3.633978  
     296    3.664625   297    3.682064   298    3.730041  
     299    3.794319   300    3.838313   301    3.912725  
     302    3.957306   303    3.978723   304    4.085561  
     305    4.135768   306    4.218378   307    4.454839  
     308    4.528125   309    4.560837   310    4.758754  
     311    4.950831   312    5.045100   313    5.071254  
     314    5.229579   315    5.344591   316    5.526022  
     317    5.600017   318    5.754872   319    5.830620  
     320    6.155009   321    6.368021   322    6.701321  
     323   13.391730   324   18.433325   325   33.427069  
     326   33.489201  

  ==> SCF B: <==

    Maxiter =          50
    E Tol   =   1.000E-06
    D Tol   =   1.000E-08

    Max DIIS Vectors = 5

    Iter   N:                        E          dE         |D|
    Iter   1:  -2.2403022312556561E+02  -2.240E+02   1.265E-03 
    Iter   2:  -2.2404301024194606E+02  -1.279E-02   1.170E-04 DIIS
    Iter   3:  -2.2404342496831094E+02  -4.147E-04   3.172E-05 DIIS
    Iter   4:  -2.2404345263337692E+02  -2.767E-05   1.897E-05 DIIS
    Iter   5:  -2.2404345773809999E+02  -5.105E-06   3.044E-06 DIIS
    Iter   6:  -2.2404345806557728E+02  -3.275E-07   1.249E-06 DIIS
    Iter   7:  -2.2404345809750697E+02  -3.193E-08   3.771E-07 DIIS
    Iter   8:  -2.2404345810142294E+02  -3.916E-09   1.264E-07 DIIS
    Iter   9:  -2.2404345810185913E+02  -4.362E-10   5.558E-08 DIIS
    Iter  10:  -2.2404345810196676E+02  -1.076E-10   2.237E-08 DIIS
    Iter  11:  -2.2404345810198362E+02  -1.685E-11   1.102E-08 DIIS
    Iter  12:  -2.2404345810198618E+02  -2.558E-12   5.042E-09 DIIS

    FISAPTSCF Converged.

    Final SCF Energy:  -2.2404345810198618E+02 [Eh]

   => Occupied Orbital Energies <=

       1  -20.601877     2  -20.544333     3  -11.383898  
       4  -11.291615     5   -1.436264     6   -1.352603  
       7   -0.959664     8   -0.763122     9   -0.666233  
      10   -0.659820    11   -0.617892    12   -0.538397  
      13   -0.531971    14   -0.470014    15   -0.455800  

   => Virtual Orbital Energies <=

      16    0.007424    17    0.051522    18    0.060223  
      19    0.067435    20    0.069797    21    0.077200  
      22    0.085171    23    0.087469    24    0.096271  
      25    0.101190    26    0.104412    27    0.107241  
      28    0.113715    29    0.121307    30    0.124279  
      31    0.132575    32    0.133705    33    0.139001  
      34    0.147150    35    0.156408    36    0.158533  
      37    0.160598    38    0.170579    39    0.173375  
      40    0.178323    41    0.181508    42    0.186185  
      43    0.192089    44    0.194786    45    0.205497  
      46    0.209686    47    0.216015    48    0.222523  
      49    0.224898    50    0.229681    51    0.233140  
      52    0.236169    53    0.253281    54    0.255438  
      55    0.259583    56    0.261730    57    0.267625  
      58    0.271713    59    0.278899    60    0.289142  
      61    0.296766    62    0.309789    63    0.312573  
      64    0.316389    65    0.319710    66    0.322518  
      67    0.334436    68    0.346339    69    0.350624  
      70    0.351264    71    0.357844    72    0.359849  
      73    0.371462    74    0.373182    75    0.377847  
      76    0.385487    77    0.388441    78    0.392744  
      79    0.394940    80    0.401904    81    0.404473  
      82    0.407467    83    0.415149    84    0.416965  
      85    0.425444    86    0.425873    87    0.433492  
      88    0.445667    89    0.451081    90    0.452928  
      91    0.462539    92    0.473263    93    0.483940  
      94    0.488098    95    0.495742    96    0.502549  
      97    0.509123    98    0.516359    99    0.521056  
     100    0.525020   101    0.534982   102    0.544699  
     103    0.551672   104    0.560101   105    0.564878  
     106    0.587852   107    0.595276   108    0.611366  
     109    0.617373   110    0.637015   111    0.639234  
     112    0.645821   113    0.669779   114    0.685474  
     115    0.697936   116    0.701565   117    0.745415  
     118    0.770238   119    0.802566   120    0.808327  
     121    0.819599   122    0.824791   123    0.844298  
     124    0.850677   125    0.869850   126    0.886366  
     127    0.889972   128    0.901312   129    0.909927  
     130    0.915087   131    0.921546   132    0.926122  
     133    0.942791   134    0.949304   135    0.953012  
     136    0.956643   137    0.962906   138    0.972202  
     139    0.977188   140    0.982006   141    0.992980  
     142    0.995519   143    1.001603   144    1.007947  
     145    1.019082   146    1.028118   147    1.033325  
     148    1.057722   149    1.060036   150    1.074736  
     151    1.086871   152    1.089539   153    1.103664  
     154    1.110334   155    1.118790   156    1.131236  
     157    1.151502   158    1.164254   159    1.217118  
     160    1.226897   161    1.242035   162    1.254392  
     163    1.283228   164    1.304096   165    1.323750  
     166    1.337860   167    1.362020   168    1.364682  
     169    1.390022   170    1.412335   171    1.433342  
     172    1.455146   173    1.469511   174    1.484766  
     175    1.500384   176    1.504462   177    1.517672  
     178    1.527312   179    1.533019   180    1.546344  
     181    1.562910   182    1.574576   183    1.578125  
     184    1.589284   185    1.595350   186    1.610794  
     187    1.622320   188    1.633396   189    1.649435  
     190    1.651037   191    1.653209   192    1.664458  
     193    1.676706   194    1.689994   195    1.698445  
     196    1.715385   197    1.725962   198    1.745921  
     199    1.757633   200    1.763741   201    1.770804  
     202    1.789228   203    1.810191   204    1.827855  
     205    1.855329   206    1.861994   207    1.866755  
     208    1.870107   209    1.888855   210    1.905456  
     211    1.921321   212    1.935804   213    1.938538  
     214    1.943611   215    1.962022   216    1.976051  
     217    1.978947   218    1.985597   219    1.994259  
     220    2.001094   221    2.011567   222    2.015464  
     223    2.019426   224    2.028951   225    2.036939  
     226    2.048410   227    2.052733   228    2.065873  
     229    2.069306   230    2.074088   231    2.098034  
     232    2.112115   233    2.114135   234    2.122929  
     235    2.131914   236    2.152416   237    2.158373  
     238    2.173988   239    2.192362   240    2.194490  
     241    2.211441   242    2.234611   243    2.244580  
     244    2.255047   245    2.265691   246    2.272832  
     247    2.297796   248    2.306838   249    2.346404  
     250    2.356632   251    2.370324   252    2.376210  
     253    2.389638   254    2.395261   255    2.399099  
     256    2.415183   257    2.428460   258    2.438926  
     259    2.444331   260    2.455234   261    2.460488  
     262    2.469937   263    2.481287   264    2.518091  
     265    2.538539   266    2.555961   267    2.566837  
     268    2.571666   269    2.595049   270    2.627041  
     271    2.647849   272    2.662564   273    2.687245  
     274    2.709708   275    2.730471   276    2.755289  
     277    2.777227   278    2.789721   279    2.808563  
     280    2.811215   281    2.824439   282    2.827219  
     283    2.857015   284    2.866369   285    2.876376  
     286    2.893589   287    2.902898   288    2.915387  
     289    2.936487   290    2.950051   291    2.990768  
     292    2.998625   293    3.010289   294    3.024858  
     295    3.046213   296    3.075034   297    3.084987  
     298    3.124736   299    3.174828   300    3.195377  
     301    3.251727   302    3.278870   303    3.307344  
     304    3.326853   305    3.393067   306    3.403186  
     307    3.414836   308    3.448812   309    3.534199  
     310    3.558306   311    3.572338   312    3.591392  
     313    3.669955   314    3.686495   315    3.712121  
     316    3.786408   317    3.828575   318    3.879311  
     319    3.910408   320    3.946324   321    3.973546  
     322    4.075244   323    4.099178   324    4.528260  
     325    4.556309   326   13.286018  

  ==> Frozen Core <==


    ------------------
    Range      A     B
    ------------------
    nbf      368   368
    nmo      326   326
    nocc       4    15
    nvir     322   311
    nfocc      1     4
    naocc      3    11
    navir    322   311
    nfvir      0     0
    ------------------

  ==> Unification <==

  ==> dHF <==

    E ABC(HF) =  -8.0026236580886507E+02 [Eh]
    E AC(0)   =  -5.7222999140370280E+02 [Eh]
    E BC(0)   =  -7.6011048004520217E+02 [Eh]
    E A(0)    =  -2.5031495318358992E+01 [Eh]
    E B(0)    =  -2.1266037772776986E+02 [Eh]
    E AC(HF)  =  -5.7222696955568404E+02 [Eh]
    E BC(HF)  =  -7.6009724506878115E+02 [Eh]
    E AB(HF)  =  -2.3766244602887082E+02 [Eh]
    E A(HF)   =  -2.5017222716490018E+01 [Eh]
    E B(HF)   =  -2.1264055748473140E+02 [Eh]
    E C       =  -5.3206651464325023E+02 [Eh]
    E HF      =   1.1590996789664132E-02 [Eh]

  ==> Electrostatics <==

    Elst10,r            =     0.005317382149 [Eh]

  ==> Exchange <==

    Exch10(S^2)         =     0.007540344434 [Eh]
    Exch10              =     0.007583794974 [Eh]

  ==> Induction <==

    Ind20,u (A<-B)      =    -0.001438881024 [Eh]
    Ind20,u (B<-A)      =    -0.000554766731 [Eh]
    Ind20,u             =    -0.001993647755 [Eh]
    Exch-Ind20,u (A<-B) =     0.000954048182 [Eh]
    Exch-Ind20,u (B<-A) =     0.000286285723 [Eh]
    Exch-Ind20,u        =     0.001240333904 [Eh]

  ==> CPHF Iterations <==

    Maxiter     =          50
    Convergence =   1.000E-08

    -----------------------------------------
    Iter   Monomer A    Monomer B    Time [s]
    -----------------------------------------
    1      1.381E-01    2.222E-01           5
    2      1.898E-02    7.836E-02          10
    3      3.981E-03    2.201E-02          14
    4      5.260E-04    7.640E-03          19
    5      6.605E-05    2.599E-03          24
    6      9.049E-06    9.431E-04          29
    7      1.454E-06    3.154E-04          33
    8      2.469E-07    1.428E-04          38
    9      3.015E-08    3.880E-05          43
    10     2.460E-09*   1.023E-05          47
    11     2.460E-09*   2.727E-06          50
    12     2.460E-09*   4.478E-07          52
    13     2.460E-09*   1.317E-07          55
    14     2.460E-09*   3.508E-08          57
    15     2.460E-09*   8.951E-09*         60
    -----------------------------------------

    Ind20,r (A<-B)      =    -0.001683154204 [Eh]
    Ind20,r (B<-A)      =    -0.000662893629 [Eh]
    Ind20,r             =    -0.002346047833 [Eh]
    Exch-Ind20,r (A<-B) =     0.001152373449 [Eh]
    Exch-Ind20,r (B<-A) =     0.000388886267 [Eh]
    Exch-Ind20,r        =     0.001541259716 [Eh]

  ==> F-SAPT Localization (IBO) <==

  Local Orbitals for Monomer A:

  ==> IBO Localizer 2 <==

    MinAO Basis = CC-PVTZ-MINAO
    Use Ghosts  =       FALSE
    Use Stars   =       FALSE
    Condition   =   1.000E-07
    Power       =           4
    Convergence =   1.000E-12
    Maxiter     =        1000

    @IBO Iter:                   Metric       Gradient
    @IBO    1:   1.0648880788812087E+00   7.001121E-02
    @IBO    2:   1.0828484210938740E+00   3.175948E-02
    @IBO    3:   1.0836128382133592E+00   8.312881E-04
    @IBO    4:   1.0836133256179599E+00   1.763317E-07
    @IBO    5:   1.0836133256179818E+00   1.846731E-10
    @IBO    6:   1.0836133256179818E+00   2.534927E-15

    IBO Localizer 2 converged.

  Local Orbitals for Monomer B:

  ==> IBO Localizer 2 <==

    MinAO Basis = CC-PVTZ-MINAO
    Use Ghosts  =       FALSE
    Use Stars   =       FALSE
    Condition   =   1.000E-07
    Power       =           4
    Convergence =   1.000E-12
    Maxiter     =        1000

    @IBO Iter:                   Metric       Gradient
    @IBO    1:   1.4825480956683867E+00   1.679339E+00
    @IBO    2:   1.6772711412638592E+00   9.308887E-01
    @IBO    3:   1.7088012415426275E+00   3.206862E-01
    @IBO    4:   1.7101220435508080E+00   2.980265E-03
    @IBO    5:   1.7101223350742105E+00   1.129156E-04
    @IBO    6:   1.7101223352588395E+00   2.109867E-06
    @IBO    7:   1.7101223352589556E+00   8.078350E-08
    @IBO    8:   1.7101223352589559E+00   3.280753E-09
    @IBO    9:   1.7101223352589559E+00   1.407848E-10
    @IBO   10:   1.7101223352589561E+00   6.006134E-12
    @IBO   11:   1.7101223352589561E+00   2.532072E-13

    IBO Localizer 2 converged.

  ==> F-SAPT Electrostatics <==

  ==> DFERI: Density Fitted 3-Index Tensors <==

    Schwarz cutoff =   0.000E+00
    J cutoff       =   1.000E-12
    Mem (GB)       =         628

   => Auxiliary Basis <=

  Basis Set: (JUN-CC-PVDZ AUX)
    Blend: JUN-CC-PVDZ-JKFIT
    Number of shells: 576
    Number of basis function: 1632
    Number of Cartesian functions: 1856
    Spherical Harmonics?: true
    Max angular momentum: 3

    Elst10,r            =     0.005317381987 [Eh]

  ==> F-SAPT Exchange <==

  ==> DFERI: Density Fitted 3-Index Tensors <==

    Schwarz cutoff =   0.000E+00
    J cutoff       =   1.000E-12
    Mem (GB)       =         628

   => Auxiliary Basis <=

  Basis Set: (JUN-CC-PVDZ AUX)
    Blend: JUN-CC-PVDZ-JKFIT
    Number of shells: 576
    Number of basis function: 1632
    Number of Cartesian functions: 1856
    Spherical Harmonics?: true
    Max angular momentum: 3

    Exch10(S^2)         =     0.007540344434 [Eh]

    Scaling F-SAPT Exch10(S^2) by   1.006E+00 to match Exch10

  ==> F-SAPT Induction <==

  ==> DFERI: Density Fitted 3-Index Tensors <==

    Schwarz cutoff =   0.000E+00
    J cutoff       =   1.000E-12
    Mem (GB)       =         628

   => Auxiliary Basis <=

  Basis Set: (JUN-CC-PVDZ AUX)
    Blend: JUN-CC-PVDZ-JKFIT
    Number of shells: 576
    Number of basis function: 1632
    Number of Cartesian functions: 1856
    Spherical Harmonics?: true
    Max angular momentum: 3

    Ind20,u (A<-B)      =    -0.001438881024 [Eh]
    Ind20,u (B<-A)      =    -0.000554766731 [Eh]
    Ind20,u             =    -0.001993647755 [Eh]
    Exch-Ind20,u (A<-B) =     0.000954048182 [Eh]
    Exch-Ind20,u (B<-A) =     0.000286285723 [Eh]
    Exch-Ind20,u        =     0.001240333905 [Eh]

    Scaling for delta HF        =   1.628E+00
    Scaling for response (A<-B) =   1.095E+00
    Scaling for response (B<-A) =   1.021E+00
    Scaling for total (A<-B)    =   1.782E+00
    Scaling for total (B<-A)    =   1.661E+00

  ==> F-SAPT Dispersion <==

  ==> DFERI: Density Fitted 3-Index Tensors <==

    Schwarz cutoff =   0.000E+00
    J cutoff       =   1.000E-12
    Mem (GB)       =         628

   => Auxiliary Basis <=

  Basis Set: (JUN-CC-PVDZ AUX)
    Blend: JUN-CC-PVDZ-RI
    Number of shells: 432
    Number of basis function: 1264
    Number of Cartesian functions: 1456
    Spherical Harmonics?: true
    Max angular momentum: 3

    Disp20              =    -0.002976817645 [Eh]
    Exch-Disp20         =     0.000459533491 [Eh]

  ==> F-SAPT Output <==

    F-SAPT Data Filepath = fsapt/

  ==> Results <==


    SAPT Results  
  --------------------------------------------------------------------------------------------------------
    Electrostatics                  5.31738215 [mEh]       3.33670781 [kcal/mol]      13.96078683 [kJ/mol]
      Elst10,r                      5.31738215 [mEh]       3.33670781 [kcal/mol]      13.96078683 [kJ/mol]

    Exchange                        7.58379497 [mEh]       4.75890339 [kcal/mol]      19.91125370 [kJ/mol]
      Exch10                        7.58379497 [mEh]       4.75890339 [kcal/mol]      19.91125370 [kJ/mol]
      Exch10(S^2)                   7.54034443 [mEh]       4.73163777 [kcal/mol]      19.79717431 [kJ/mol]

    Induction                      -1.31018033 [mEh]      -0.82215061 [kcal/mol]      -3.43987847 [kJ/mol]
      Ind20,r                      -2.34604783 [mEh]      -1.47216730 [kcal/mol]      -6.15954858 [kJ/mol]
      Exch-Ind20,r                  1.54125972 [mEh]       0.96715511 [kcal/mol]       4.04657738 [kJ/mol]
      delta HF,r (2)               -0.50539222 [mEh]      -0.31713842 [kcal/mol]      -1.32690726 [kJ/mol]
      Induction (A<-B)             -0.86410136 [mEh]      -0.54223181 [kcal/mol]      -2.26869812 [kJ/mol]
      Induction (B<-A)             -0.44607897 [mEh]      -0.27991879 [kcal/mol]      -1.17118034 [kJ/mol]

    Dispersion                     -2.51728415 [mEh]      -1.57961972 [kcal/mol]      -6.60912955 [kJ/mol]
      Disp20                       -2.97681764 [mEh]      -1.86798135 [kcal/mol]      -7.81563473 [kJ/mol]
      Exch-Disp20                   0.45953349 [mEh]       0.28836163 [kcal/mol]       1.20650518 [kJ/mol]

  Total HF                         11.59099679 [mEh]       7.27346060 [kcal/mol]      30.43216207 [kJ/mol]
  Total SAPT0                       9.07371264 [mEh]       5.69384088 [kcal/mol]      23.82303252 [kJ/mol]

  --------------------------------------------------------------------------------------------------------
    Han Solo: This is *not* gonna work.
    Luke Skywalker: Why didn't you say so before?
    Han Solo: I *did* say so before.

*** tstop() called on ThinkPad-P50 at Mon Jan 15 17:52:20 2018
Module time:
	user time   =     544.03 seconds =       9.07 minutes
	system time =       2.09 seconds =       0.03 minutes
	total time  =        158 seconds =       2.63 minutes
Total time:
	user time   =     696.15 seconds =      11.60 minutes
	system time =       2.85 seconds =       0.05 minutes
	total time  =        208 seconds =       3.47 minutes

*** Psi4 exiting successfully. Buy a developer a beer!
