r0110.ten.osc.edu 10.25.153
Q-Chem Developer Version! Running on 10.25.153.*
                  Welcome to Q-Chem
     A Quantum Leap Into The Future Of Chemistry


 Q-Chem 5.0, Q-Chem, Inc., Pleasanton, CA (2017)

 Yihan Shao,  Zhengting Gan,  E. Epifanovsky,  A. T. B. Gilbert,  M. Wormit,  
 J. Kussmann,  A. W. Lange,  A. Behn,  Jia Deng,  Xintian Feng,  D. Ghosh,  
 M. Goldey,  P. R. Horn,  L. D. Jacobson,  I. Kaliman,  T. Kus,  A. Landau,  
 Jie Liu,  E. I. Proynov,  R. M. Richard,  R. P. Steele,  E. J. Sundstrom,  
 H. L. Woodcock III,  P. M. Zimmerman,  D. Zuev,  B. Albrecht,  E. Alguire,  
 S. A. Baeppler,  Z. Benda,  Y. A. Bernard,  E. J. Berquist,  K. B. Bravaya,  
 D. Casanova,  Chun-Min Chang,  Yunqing Chen,  A. Chien,  K. D. Closser,  
 M. P. Coons,  S. Dasgupta,  M. Diedenhofen,  Hainam Do,  R. G. Edgar,  
 Po-Tung Fang,  S. Fatehi,  Qingguo Feng,  Qinghui Ge,  A. Ghysels,  
 J. Gomes,  J. Gonthier,  A. Gunina,  M. W. D. Hanson-Heine,  
 P. H. P. Harbach,  A. W. Hauser,  J. E. Herr,  E. G. Hohenstein,  
 Z. C. Holden,  Kerwin Hui,  T.-C. Jagau,  Hyunjun Ji,  B. Kaduk,  
 K. Khistyaev,  Jaehoon Kim,  P. Klunzinger,  K. Koh,  D. Kosenkov,  
 T. Kowalczyk,  C. M. Krauter,  A. Kunitsa,  Ka Un Lao,  A. Laurent,  
 K. V. Lawler,  Joonho Lee,  D. Lefrancois,  S. Lehtola,  D. S. Levine,  
 Yi-Pei Li,  You-Sheng Lin,  Fenglai Liu,  E. Livshits,  A. Luenser,  
 P. Manohar,  E. Mansoor,  S. F. Manzer,  Shan-Ping Mao,  Yuezhi Mao,  
 N. Mardirossian,  A. V. Marenich,  L. A. Martinez-Martinez,  S. A. Maurer,  
 N. J. Mayhall,  S. C. McKenzie,  J.-M. Mewes,  A. F. Morrison,  K. Nanda,  
 T. S. Nguyen-Beck,  R. Olivares-Amaya,  J. A. Parkhill,  T. M. Perrine,  
 F. Plasser,  S. Prager,  A. Prociuk,  D. R. Rehn,  F. Rob,  M. Schneider,  
 N. Sergueev,  S. M. Sharada,  S. Sharma,  D. W. Small,  T. Stauch,  
 T. Stein,  Yu-Chuan Su,  A. J. W. Thom,  T. Tsuchimochi,  L. Vogt,  
 O. Vydrov,  M. A. Watson,  J. Wenzel,  M. de Wergifosse,  T. A. Wesolowski,  
 A. White,  J. Witte,  A. Yamada,  Jun Yang,  K. Yao,  S. Yeganeh,  
 S. R. Yost,  Zhi-Qiang You,  A. Zech,  Igor Ying Zhang,  Xing Zhang,  
 Yan Zhao,  Ying Zhu,  B. R. Brooks,  G. K. L. Chan,  C. J. Cramer,  
 M. S. Gordon,  W. J. Hehre,  A. Klamt,  M. W. Schmidt,  C. D. Sherrill,  
 D. G. Truhlar,  A. Aspuru-Guzik,  R. Baer,  A. T. Bell,  N. A. Besley,  
 Jeng-Da Chai,  A. Dreuw,  B. D. Dunietz,  T. R. Furlani,  Chao-Ping Hsu,  
 Yousung Jung,  Jing Kong,  D. S. Lambrecht,  WanZhen Liang,  C. Ochsenfeld,  
 V. A. Rassolov,  L. V. Slipchenko,  J. E. Subotnik,  T. Van Voorhis,  
 J. M. Herbert,  A. I. Krylov,  P. M. W. Gill,  M. Head-Gordon

 Contributors to earlier versions of Q-Chem not listed above: 
 R. D. Adamson,  B. Austin,  J. Baker,  G. J. O. Beran,  K. Brandhorst,  
 S. T. Brown,  E. F. C. Byrd,  A. K. Chakraborty,  C.-L. Cheng,  
 Siu Hung Chien,  D. M. Chipman,  D. L. Crittenden,  H. Dachsel,  
 R. A. DiStasio Jr.,  R. J. Doerksen,  A. D. Dutoi,  L. Fusti-Molnar,  
 W. A. Goddard III,  A. Golubeva-Zadorozhnaya,  S. R. Gwaltney,  G. Hawkins,  
 A. Heyden,  S. Hirata,  G. Kedziora,  F. J. Keil,  C. Kelley,  Jihan Kim,  
 R. A. King,  R. Z. Khaliullin,  P. P. Korambath,  W. Kurlancheek,  
 A. M. Lee,  M. S. Lee,  S. V. Levchenko,  Ching Yeh Lin,  D. Liotard,  
 R. C. Lochan,  I. Lotan,  P. E. Maslen,  N. Nair,  D. P. O'Neill,  
 D. Neuhauser,  E. Neuscamman,  C. M. Oana,  R. Olson,  B. Peters,  
 R. Peverati,  P. A. Pieniazek,  Y. M. Rhee,  J. Ritchie,  M. A. Rohrdanz,  
 E. Rosta,  N. J. Russ,  H. F. Schaefer III,  N. E. Schultz,  N. Shenvi,  
 A. C. Simmonett,  A. Sodt,  D. Stuck,  K. S. Thanthiriwatte,  V. Vanovschi,  
 Tao Wang,  A. Warshel,  C. F. Williams,  Q. Wu,  X. Xu,  W. Zhang

 Please cite Q-Chem as follows:
 Y. Shao et al., Mol. Phys. 113, 184-215 (2015)
 DOI: 10.1080/00268976.2014.952696

 Q-Chem 5.0.1 for Intel X86 EM64T Linux

 Parts of Q-Chem use Armadillo 5.200.1 (Boston Tea Smuggler).
 http://arma.sourceforge.net/

 Q-Chem begins on Sat Oct 14 21:19:07 2017  

Host: r0110.ten.osc.edu
0

     Scratch files written to /tmp/pbstmp.1310487/00//
Processing $rem in /users/PAS0291/osu6415/.qchemrc.
molden_format             true

Checking the input file for inconsistencies... 	...done.

--------------------------------------------------------------
User input:
--------------------------------------------------------------
$molecule
0 1
C 0.02133377 -0.88426616 -0.01414056
C -1.11967587 -0.06375173 -0.06208015
C 1.37976165 -0.30821899 -0.24533835
C -1.05259990 1.43132244 -0.15568976
O 2.34887300 -1.06942054 0.30441592
O 1.60350935 0.69513266 -0.88065123
O -0.29320782 1.94799312 0.82532275
O -1.66358005 2.08658608 -0.96379451
C -0.05510138 3.36567552 0.75454673
C 3.69974790 -0.63055385 0.07073040
C -0.13539102 -2.26650258 0.13552151
C -1.40445520 -2.83237538 0.21996776
C -2.53315771 -2.01930769 0.14783576
C -2.38806277 -0.64164089 0.00362036
H 0.48614886 3.60101371 -0.16308312
H 3.90880222 -0.59408392 -0.99941208
H -3.52459153 -2.45426212 0.20342965
H -0.99703000 3.91515084 0.77699559
H 0.54916523 3.60082500 1.62774248
H 4.33129001 -1.36711780 0.56222087
H 3.85677263 0.35921781 0.50167836
H -1.51038268 -3.90535789 0.33137008
H -3.25946192 -0.00041853 -0.05156808
H 0.74513104 -2.89408017 0.16753608
$end

$rem
sym_ignore      true
jobtype         opt
method          b3lyp
basis           6-311++G(d,p)
dft_d           d3_op
mem_total       62000
MEM_STATIC      4000
ao2mo_disk      350000
max_scf_cycles  200
geom_opt_max_cycles 1000
geom_opt_tol_displacement 1
GEOM_OPT_TOL_GRADIENT       1
GEOM_OPT_TOL_ENERGY         1
$end

--------------------------------------------------------------
 Adding empirical dispersion correction 
 ----------------------------------------------------------------
 Doing -D3(op) with
 s6 =   1.00000
 s8 =   0.78311
 a1 =   0.30000
 a2 =   4.25000
 n  =  10.00000
 -D3 energy without 3body term =     -0.0234745071 hartrees
 ----------------------------------------------------------------
             Standard Nuclear Orientation (Angstroms)
    I     Atom           X                Y                Z
 ----------------------------------------------------------------
    1      C       0.0213337700    -0.8842661600    -0.0141405600
    2      C      -1.1196758700    -0.0637517300    -0.0620801500
    3      C       1.3797616500    -0.3082189900    -0.2453383500
    4      C      -1.0525999000     1.4313224400    -0.1556897600
    5      O       2.3488730000    -1.0694205400     0.3044159200
    6      O       1.6035093500     0.6951326600    -0.8806512300
    7      O      -0.2932078200     1.9479931200     0.8253227500
    8      O      -1.6635800500     2.0865860800    -0.9637945100
    9      C      -0.0551013800     3.3656755200     0.7545467300
   10      C       3.6997479000    -0.6305538500     0.0707304000
   11      C      -0.1353910200    -2.2665025800     0.1355215100
   12      C      -1.4044552000    -2.8323753800     0.2199677600
   13      C      -2.5331577100    -2.0193076900     0.1478357600
   14      C      -2.3880627700    -0.6416408900     0.0036203600
   15      H       0.4861488600     3.6010137100    -0.1630831200
   16      H       3.9088022200    -0.5940839200    -0.9994120800
   17      H      -3.5245915300    -2.4542621200     0.2034296500
   18      H      -0.9970300000     3.9151508400     0.7769955900
   19      H       0.5491652300     3.6008250000     1.6277424800
   20      H       4.3312900100    -1.3671178000     0.5622208700
   21      H       3.8567726300     0.3592178100     0.5016783600
   22      H      -1.5103826800    -3.9053578900     0.3313700800
   23      H      -3.2594619200    -0.0004185300    -0.0515680800
   24      H       0.7451310400    -2.8940801700     0.1675360800
 ----------------------------------------------------------------
 Nuclear Repulsion Energy =   887.8952914521 hartrees
 There are       51 alpha and       51 beta electrons
 Requested basis set is 6-311++G(d,p)
 There are 134 shells and 378 basis functions

 Total QAlloc Memory Limit  62000 MB
 Mega-Array Size      3911 MB
 MEM_STATIC part      4000 MB
 A cutoff of  1.0D-11 yielded   7240 shell pairs
 There are     59630 function pairs (     63893 Cartesian)
 
 -------------------------------------------------------
 OpenMP Integral Computing Module                       
 Release: version 1.0, May 2013, Q-Chem Inc. Pittsburgh 
 -------------------------------------------------------
 Integral Job Info:
 Integral job number is                      11
 Integral operator is                         1
 short-range coefficients                     0
 long-range coefficients              100000000
 Omega coefficients                           0
 if combine SR and LR in K                    0
 Integral screening is                        0
 Integral computing path is                   2
 max size of driver memory is            800000
 size of driver memory is                593474
 size of scratch memory is              2361544
 max col of scratch BK array               1296
 max len of scratch array in speh3          155
 max len of scratch index in speh4           18
 max int batch size is                      520
 min int batch size is                       52
 fixed nKL is                                52
 max L of basis functions is                  2
 order of int derivative is                   0
 number of shells is                        134
 number of basis is                         392
 number of cartesian basis is               392
 number of contracted shell pairs          7240
 number of primitive shell pairs          17112
 maxK2 (contraction) of shell pair           36
 max number of K2 of shell pair               1
 max number of CS2 of shell pair           1289
 max number of PS2 of shell pair           2982
 mem total for path MDJ                  124168
 -------------------------------------------------------
 Smallest overlap matrix eigenvalue = 4.27E-07

 Q-Chem warning in module /fs/scratch/osu6415/qchem-kaunlao-vdw/stvman/mkSTV.C, line 281:

 Overlap eigenvalue is smaller than square root of threshold

 Linear dependence detected in AO basis
 Number of orthogonalized atomic orbitals = 377
 Maximum deviation from orthogonality = 4.121E-10

 Scale SEOQF with 1.000000e-01/1.000000e-01/1.000000e-01

 Standard Electronic Orientation quadrupole field applied
 Nucleus-field energy     =     0.0000000342 hartrees
 Guess from superposition of atomic densities
 Warning:  Energy on first SCF cycle will be non-variational
 A restricted hybrid HF-DFT SCF calculation will be
 performed using Pulay DIIS extrapolation
 Exchange:     0.2000 Hartree-Fock + 0.0800 Slater + 0.7200 B88
 Correlation:  0.1900 VWN1RPA + 0.8100 LYP
 Using SG-1 standard quadrature grid
 Dispersion:   Grimme D3
 SCF converges when DIIS error is below 1.0E-08
 using 20 threads for integral computing
 -------------------------------------------------------
 OpenMP Integral computing Module                
 Release: version 1.0, May 2013, Q-Chem Inc. Pittsburgh 
 -------------------------------------------------------
 -------------------------------------------------------
 OpenMP BLAS3 based DFT computing Module                
 Release: version 1.0, May 2013, Q-Chem Inc. Pittsburgh 
 -------------------------------------------------------
 ---------------------------------------
  Cycle       Energy         DIIS Error
 ---------------------------------------
    1    -691.1619992243      3.35E-02
    2    -687.9489601328      4.28E-03
    3    -687.4573491616      7.54E-03
    4    -688.1747448023      1.65E-03
    5    -688.2132167703      4.67E-04
    6    -688.2156769064      1.70E-04
    7    -688.2160601583      4.66E-05
    8    -688.2160903782      1.66E-05
    9    -688.2160950290      4.52E-06
   10    -688.2160953557      1.60E-06
   11    -688.2160953905      7.87E-07
   12    -688.2160953988      1.77E-07
   13    -688.2160953989      4.01E-08
   14    -688.2160953987      1.92E-08
   15    -688.2160953985      7.20E-09 Convergence criterion met
 ---------------------------------------
 SCF time:  CPU 504.24 s  wall 27.53 s
 SCF   energy in the final basis set = -688.21609540
 Total energy in the final basis set = -688.21609540
 
 --------------------------------------------------------------
 
                    Orbital Energies (a.u.)
 --------------------------------------------------------------
 
 Alpha MOs
 -- Occupied --
-19.180 -19.170 -19.121 -19.115 -10.314 -10.308 -10.234 -10.224
-10.212 -10.211 -10.199 -10.199 -10.197 -10.197  -1.121  -1.112
 -1.033  -1.026  -0.887  -0.796  -0.787  -0.740  -0.729  -0.655
 -0.639  -0.594  -0.573  -0.553  -0.523  -0.503  -0.493  -0.489
 -0.486  -0.480  -0.463  -0.457  -0.435  -0.431  -0.418  -0.401
 -0.390  -0.382  -0.375  -0.372  -0.361  -0.323  -0.309  -0.298
 -0.293  -0.277  -0.270
 -- Virtual --
 -0.068  -0.041  -0.012  -0.004   0.003   0.011   0.015   0.022
  0.027   0.030   0.031   0.039   0.046   0.052   0.056   0.057
  0.062   0.069   0.080   0.089   0.095   0.100   0.103   0.106
  0.110   0.113   0.115   0.119   0.124   0.127   0.128   0.133
  0.135   0.142   0.144   0.145   0.151   0.154   0.158   0.162
  0.168   0.170   0.175   0.177   0.187   0.190   0.197   0.201
  0.206   0.210   0.213   0.216   0.226   0.227   0.238   0.246
  0.250   0.258   0.261   0.264   0.275   0.280   0.282   0.287
  0.289   0.293   0.298   0.302   0.307   0.312   0.315   0.325
  0.332   0.336   0.343   0.349   0.355   0.359   0.361   0.368
  0.374   0.381   0.388   0.391   0.393   0.405   0.418   0.426
  0.429   0.459   0.466   0.492   0.495   0.505   0.512   0.529
  0.536   0.547   0.555   0.562   0.575   0.580   0.586   0.593
  0.598   0.611   0.624   0.631   0.643   0.644   0.657   0.658
  0.661   0.668   0.680   0.690   0.704   0.705   0.721   0.729
  0.735   0.740   0.751   0.758   0.763   0.776   0.804   0.825
  0.840   0.844   0.850   0.856   0.873   0.903   0.912   0.914
  0.938   0.939   0.986   0.996   1.003   1.018   1.034   1.046
  1.055   1.056   1.073   1.097   1.102   1.121   1.146   1.167
  1.172   1.192   1.210   1.222   1.233   1.237   1.267   1.280
  1.298   1.318   1.346   1.354   1.359   1.382   1.390   1.429
  1.435   1.450   1.458   1.482   1.497   1.511   1.524   1.526
  1.536   1.553   1.556   1.562   1.570   1.583   1.608   1.633
  1.640   1.657   1.666   1.695   1.700   1.708   1.712   1.726
  1.730   1.744   1.747   1.764   1.791   1.796   1.818   1.827
  1.837   1.876   1.903   1.909   1.930   1.949   1.955   1.970
  1.980   1.988   2.007   2.030   2.046   2.078   2.095   2.109
  2.116   2.124   2.140   2.187   2.218   2.270   2.294   2.350
  2.396   2.420   2.441   2.452   2.460   2.493   2.496   2.505
  2.525   2.540   2.555   2.577   2.587   2.606   2.644   2.651
  2.660   2.691   2.701   2.718   2.727   2.750   2.774   2.784
  2.804   2.808   2.828   2.835   2.844   2.852   2.872   2.893
  2.895   2.905   2.934   2.962   3.010   3.034   3.044   3.052
  3.083   3.103   3.106   3.166   3.171   3.218   3.222   3.253
  3.269   3.310   3.354   3.363   3.394   3.412   3.520   3.545
  3.560   3.603   3.623   3.640   3.709   3.769   3.786   3.802
  3.845   3.864   4.023   4.042   4.048   4.052   4.110   4.123
  4.187   4.266   4.350   4.834   5.026   5.041   5.096   5.135
  5.223   5.262   5.365   5.394   5.622   5.639   5.854   5.878
 23.575  23.835  23.859  23.922  23.929  23.938  23.950  24.053
 24.076  24.169  49.885  49.894  50.005  50.035
 --------------------------------------------------------------
 
          Ground-State Mulliken Net Atomic Charges

     Atom                 Charge (a.u.)
  ----------------------------------------
      1 C                     0.716742
      2 C                     0.336057
      3 C                    -0.376686
      4 C                    -0.654801
      5 O                    -0.066556
      6 O                    -0.213593
      7 O                    -0.002845
      8 O                    -0.211709
      9 C                    -0.247250
     10 C                    -0.235988
     11 C                    -0.086832
     12 C                    -0.202320
     13 C                    -0.196257
     14 C                    -0.295436
     15 H                     0.188642
     16 H                     0.189601
     17 H                     0.172392
     18 H                     0.168620
     19 H                     0.153809
     20 H                     0.158487
     21 H                     0.173142
     22 H                     0.174254
     23 H                     0.175060
     24 H                     0.183467
  ----------------------------------------
  Sum of atomic charges =    -0.000000

 -----------------------------------------------------------------
                    Cartesian Multipole Moments
 -----------------------------------------------------------------
    Charge (ESU x 10^10)
                -0.0000
    Dipole Moment (Debye)
         X       1.3894      Y      -2.2043      Z       2.2098
       Tot       3.4165
    Quadrupole Moments (Debye-Ang)
        XX     -69.1008     XY       4.0635     YY     -72.0168
        XZ      -1.9321     YZ       6.3276     ZZ     -87.3837
    Octopole Moments (Debye-Ang^2)
       XXX      42.9235    XXY     -19.8630    XYY       6.8635
       YYY      17.6466    XXZ       7.6698    XYZ      -1.6864
       YYZ      16.3343    XZZ      13.3235    YZZ       5.8287
       ZZZ      -5.3559
    Hexadecapole Moments (Debye-Ang^3)
      XXXX   -1488.6015   XXXY     -15.2436   XXYY    -564.6592
      XYYY      28.6865   YYYY   -1518.1927   XXXZ      -5.6883
      XXYZ      15.0287   XYYZ     -18.0742   YYYZ      28.3394
      XXZZ    -345.6725   XYZZ      -7.4962   YYZZ    -337.5118
      XZZZ      -2.2792   YZZZ       5.9562   ZZZZ    -221.0492
 -----------------------------------------------------------------
 Calculating analytic gradient of the SCF energy
 Gradient of SCF Energy
            1           2           3           4           5           6
    1  -0.0000346  -0.0000377  -0.0000175   0.0002405  -0.0000564   0.0000246
    2  -0.0000085  -0.0000367  -0.0000635  -0.0000721   0.0000598   0.0000108
    3  -0.0000970  -0.0000453   0.0001329   0.0000551   0.0000031  -0.0000407
            7           8           9          10          11          12
    1  -0.0001422  -0.0001041   0.0000582   0.0000826   0.0000116  -0.0000051
    2  -0.0000325   0.0000598   0.0001005   0.0000248   0.0000094   0.0000042
    3   0.0000593  -0.0000331  -0.0000552  -0.0000344   0.0000029  -0.0000027
           13          14          15          16          17          18
    1   0.0000111   0.0000055  -0.0000362  -0.0000060  -0.0000009  -0.0000000
    2  -0.0000044   0.0000310  -0.0000053  -0.0000057   0.0000019  -0.0000109
    3  -0.0000122   0.0000149  -0.0000061   0.0000045   0.0000030   0.0000488
           19          20          21          22          23          24
    1   0.0000289  -0.0000001  -0.0000055  -0.0000016  -0.0000009  -0.0000141
    2  -0.0000260  -0.0000046  -0.0000078  -0.0000001  -0.0000183  -0.0000058
    3  -0.0000103   0.0000026   0.0000076  -0.0000087  -0.0000099   0.0000209
 Max gradient component =       2.405E-04
 RMS gradient           =       5.096E-05
 Gradient time:  CPU 159.33 s  wall 13.56 s
 Geometry Optimization Parameters
   NAtoms,    NIC,     NZ,  NCons,   NDum,   NFix, NCnnct, MaxDiis
       24     152       0       0       0       0       0       0


** GEOMETRY OPTIMIZATION IN DELOCALIZED INTERNAL COORDINATES **
   Searching for a Minimum

   Optimization Cycle:   1

                       Coordinates (Angstroms)
     ATOM                X               Y               Z
      1  C         0.0213337700   -0.8842661600   -0.0141405600
      2  C        -1.1196758700   -0.0637517300   -0.0620801500
      3  C         1.3797616500   -0.3082189900   -0.2453383500
      4  C        -1.0525999000    1.4313224400   -0.1556897600
      5  O         2.3488730000   -1.0694205400    0.3044159200
      6  O         1.6035093500    0.6951326600   -0.8806512300
      7  O        -0.2932078200    1.9479931200    0.8253227500
      8  O        -1.6635800500    2.0865860800   -0.9637945100
      9  C        -0.0551013800    3.3656755200    0.7545467300
     10  C         3.6997479000   -0.6305538500    0.0707304000
     11  C        -0.1353910200   -2.2665025800    0.1355215100
     12  C        -1.4044552000   -2.8323753800    0.2199677600
     13  C        -2.5331577100   -2.0193076900    0.1478357600
     14  C        -2.3880627700   -0.6416408900    0.0036203600
     15  H         0.4861488600    3.6010137100   -0.1630831200
     16  H         3.9088022200   -0.5940839200   -0.9994120800
     17  H        -3.5245915300   -2.4542621200    0.2034296500
     18  H        -0.9970300000    3.9151508400    0.7769955900
     19  H         0.5491652300    3.6008250000    1.6277424800
     20  H         4.3312900100   -1.3671178000    0.5622208700
     21  H         3.8567726300    0.3592178100    0.5016783600
     22  H        -1.5103826800   -3.9053578900    0.3313700800
     23  H        -3.2594619200   -0.0004185300   -0.0515680800
     24  H         0.7451310400   -2.8940801700    0.1675360800
   Point Group: c1    Number of degrees of freedom:    66


   Energy is   -688.216095399


 Attempting to Generate Delocalized Internal Coordinates

 66 Hessian modes will be used to form the next step
  Hessian Eigenvalues:
     0.009245    0.010036    0.010424    0.010449    0.014088    0.014108
     0.018223    0.018697    0.022103    0.022341    0.022963    0.023068
     0.023069    0.023183    0.023344    0.023352    0.023405    0.101325
     0.101656    0.106035    0.106327    0.159973    0.159992    0.159995
     0.160000    0.160000    0.160000    0.160000    0.160000    0.160000
     0.160000    0.219998    0.224811    0.244383    0.248770    0.249674
     0.249905    0.249950    0.250000    0.250000    0.250000    0.250000
     0.324295    0.330665    0.346921    0.346996    0.347111    0.347303
     0.350882    0.350898    0.355065    0.355226    0.355980    0.357829
     0.396581    0.396843    0.417745    0.421818    0.454378    0.462544
     0.466231    0.468791    0.551529    0.563445    1.006797    1.016120

 Minimum Search - Taking Simple RFO Step
 Searching for Lamda that Minimizes Along All modes
 Value Taken    Lamda =  -0.00000299
 Step Taken.  Stepsize is  0.016219

                             Maximum     Tolerance    Cnvgd?
         Gradient           0.000096      0.000001      NO
         Displacement       0.009105      0.000001      NO
         Energy change     *********      0.000000      NO


 New Cartesian Coordinates Obtained by Inverse Iteration

 Displacement from previous Coordinates is:  0.040662
 Adding empirical dispersion correction 
 ----------------------------------------------------------------
 Doing -D3(op) with
 s6 =   1.00000
 s8 =   0.78311
 a1 =   0.30000
 a2 =   4.25000
 n  =  10.00000
 -D3 energy without 3body term =     -0.0234742479 hartrees
 ----------------------------------------------------------------
             Standard Nuclear Orientation (Angstroms)
    I     Atom           X                Y                Z
 ----------------------------------------------------------------
    1      C       0.0216908789    -0.8841881489    -0.0129952339
    2      C      -1.1192693446    -0.0635571235    -0.0607254198
    3      C       1.3800362794    -0.3085619583    -0.2455778553
    4      C      -1.0522458658     1.4314201053    -0.1555459841
    5      O       2.3493327149    -1.0711923686     0.3019509309
    6      O       1.6033078727     0.6963149461    -0.8786086246
    7      O      -0.2955975783     1.9490569405     0.8271064952
    8      O      -1.6595488618     2.0857525100    -0.9670859928
    9      C      -0.0567493800     3.3664604575     0.7551416285
   10      C       3.7000271884    -0.6317499528     0.0689044748
   11      C      -0.1351939778    -2.2664918257     0.1358933627
   12      C      -1.4042879635    -2.8322617167     0.2206069306
   13      C      -2.5329343719    -2.0190622478     0.1489161219
   14      C      -2.3877026894    -0.6414035057     0.0047481641
   15      H       0.4937703265     3.5994578252    -0.1575790488
   16      H       3.9087924960    -0.5927089793    -1.0012109748
   17      H      -3.5244026712    -2.4539535090     0.2043796665
   18      H      -0.9988096956     3.9160633211     0.7665401316
   19      H       0.5386541336     3.6040294724     1.6337539532
   20      H       4.3317663104    -1.3694285908     0.5584541068
   21      H       3.8571777769     0.3570278515     0.5021018115
   22      H      -1.5102854359    -3.9052808190     0.3315941826
   23      H      -3.2590023340    -0.0000188643    -0.0504122414
   24      H       0.7453120024    -2.8941648792     0.1668258745
 ----------------------------------------------------------------
 Nuclear Repulsion Energy =   887.8834019956 hartrees
 There are       51 alpha and       51 beta electrons
 Applying Cartesian multipole field
    Component          Value
    ---------          -----
     (2,0,0)        1.00000E-11
     (0,2,0)        2.00000E-11
     (0,0,2)       -3.00000E-11
 Nucleus-field energy     =     0.0000000342 hartrees
 Requested basis set is 6-311++G(d,p)
 There are 134 shells and 378 basis functions
 A cutoff of  1.0D-11 yielded   7240 shell pairs
 There are     59630 function pairs (     63893 Cartesian)
 Smallest overlap matrix eigenvalue = 4.28E-07

 Q-Chem warning in module /fs/scratch/osu6415/qchem-kaunlao-vdw/stvman/mkSTV.C, line 281:

 Overlap eigenvalue is smaller than square root of threshold

 Linear dependence detected in AO basis
 Number of orthogonalized atomic orbitals = 377
 Maximum deviation from orthogonality = 2.370E-10
 Guess MOs from SCF MO coefficient file
 Reading MOs from coefficient file
 Reading MOs from coefficient file
 A restricted hybrid HF-DFT SCF calculation will be
 performed using Pulay DIIS extrapolation
 Exchange:     0.2000 Hartree-Fock + 0.0800 Slater + 0.7200 B88
 Correlation:  0.1900 VWN1RPA + 0.8100 LYP
 Using SG-1 standard quadrature grid
 Dispersion:   Grimme D3
 SCF converges when DIIS error is below 1.0E-08
 Geometry optimization detected.  Setting ReadMinima to 0
 Setting SaveMinima to 0
 using 20 threads for integral computing
 -------------------------------------------------------
 OpenMP Integral computing Module                
 Release: version 1.0, May 2013, Q-Chem Inc. Pittsburgh 
 -------------------------------------------------------
 -------------------------------------------------------
 OpenMP BLAS3 based DFT computing Module                
 Release: version 1.0, May 2013, Q-Chem Inc. Pittsburgh 
 -------------------------------------------------------
 ---------------------------------------
  Cycle       Energy         DIIS Error
 ---------------------------------------
    1    -688.2169596383      6.67E-05
    2    -688.2160954926      6.30E-06
    3    -688.2160945177      1.06E-05
    4    -688.2160965083      2.14E-06
    5    -688.2160965617      1.00E-06
    6    -688.2160965720      4.93E-07
    7    -688.2160965757      1.06E-07
    8    -688.2160965758      3.26E-08
    9    -688.2160965755      8.68E-09 Convergence criterion met
 ---------------------------------------
 SCF time:  CPU 308.54 s  wall 17.77 s
 SCF   energy in the final basis set = -688.21609658
 Total energy in the final basis set = -688.21609658
 
 --------------------------------------------------------------
 
                    Orbital Energies (a.u.)
 --------------------------------------------------------------
 
 Alpha MOs
 -- Occupied --
-19.180 -19.170 -19.121 -19.115 -10.314 -10.308 -10.234 -10.224
-10.212 -10.211 -10.199 -10.199 -10.197 -10.197  -1.122  -1.112
 -1.033  -1.026  -0.887  -0.796  -0.787  -0.740  -0.729  -0.655
 -0.639  -0.594  -0.573  -0.553  -0.523  -0.503  -0.493  -0.489
 -0.486  -0.480  -0.463  -0.457  -0.435  -0.431  -0.418  -0.401
 -0.390  -0.382  -0.375  -0.372  -0.361  -0.323  -0.309  -0.298
 -0.293  -0.278  -0.270
 -- Virtual --
 -0.068  -0.041  -0.012  -0.004   0.003   0.011   0.015   0.022
  0.027   0.030   0.031   0.039   0.046   0.052   0.056   0.057
  0.062   0.069   0.080   0.089   0.095   0.100   0.103   0.107
  0.110   0.113   0.115   0.119   0.124   0.127   0.128   0.133
  0.135   0.142   0.144   0.146   0.151   0.154   0.158   0.161
  0.168   0.171   0.175   0.177   0.187   0.190   0.197   0.201
  0.206   0.210   0.213   0.216   0.226   0.227   0.238   0.246
  0.250   0.258   0.261   0.264   0.275   0.280   0.282   0.287
  0.289   0.293   0.298   0.302   0.307   0.312   0.315   0.325
  0.332   0.336   0.344   0.349   0.355   0.359   0.361   0.368
  0.374   0.381   0.388   0.391   0.393   0.406   0.418   0.426
  0.430   0.459   0.466   0.492   0.495   0.505   0.512   0.529
  0.536   0.547   0.555   0.562   0.575   0.580   0.586   0.593
  0.598   0.611   0.624   0.631   0.643   0.644   0.657   0.658
  0.661   0.668   0.680   0.690   0.704   0.705   0.721   0.730
  0.735   0.740   0.751   0.758   0.763   0.776   0.804   0.825
  0.840   0.844   0.850   0.856   0.873   0.903   0.912   0.914
  0.937   0.939   0.987   0.996   1.003   1.019   1.034   1.046
  1.055   1.056   1.073   1.097   1.102   1.121   1.146   1.166
  1.172   1.192   1.210   1.222   1.233   1.238   1.267   1.280
  1.298   1.318   1.346   1.354   1.359   1.382   1.391   1.429
  1.434   1.450   1.459   1.482   1.497   1.511   1.524   1.526
  1.536   1.553   1.556   1.562   1.570   1.583   1.608   1.632
  1.640   1.657   1.666   1.695   1.700   1.708   1.711   1.726
  1.730   1.744   1.747   1.764   1.791   1.796   1.818   1.827
  1.837   1.876   1.903   1.909   1.930   1.949   1.955   1.970
  1.980   1.988   2.007   2.030   2.046   2.078   2.095   2.108
  2.117   2.124   2.140   2.187   2.219   2.270   2.294   2.350
  2.396   2.419   2.441   2.452   2.460   2.493   2.495   2.505
  2.525   2.540   2.555   2.577   2.587   2.606   2.644   2.651
  2.660   2.690   2.701   2.718   2.727   2.750   2.774   2.784
  2.804   2.808   2.829   2.835   2.844   2.852   2.872   2.893
  2.895   2.905   2.934   2.962   3.010   3.034   3.044   3.052
  3.083   3.103   3.105   3.166   3.171   3.218   3.222   3.253
  3.270   3.310   3.354   3.363   3.393   3.412   3.520   3.545
  3.560   3.603   3.623   3.639   3.710   3.769   3.786   3.802
  3.845   3.864   4.023   4.042   4.048   4.052   4.110   4.123
  4.187   4.266   4.351   4.834   5.026   5.040   5.096   5.134
  5.222   5.263   5.365   5.394   5.622   5.639   5.854   5.878
 23.575  23.835  23.859  23.922  23.929  23.938  23.950  24.053
 24.076  24.169  49.885  49.894  50.005  50.035
 --------------------------------------------------------------
 
          Ground-State Mulliken Net Atomic Charges

     Atom                 Charge (a.u.)
  ----------------------------------------
      1 C                     0.720773
      2 C                     0.328727
      3 C                    -0.373482
      4 C                    -0.658763
      5 O                    -0.066450
      6 O                    -0.213653
      7 O                    -0.002622
      8 O                    -0.211237
      9 C                    -0.247005
     10 C                    -0.235986
     11 C                    -0.083759
     12 C                    -0.201657
     13 C                    -0.196352
     14 C                    -0.295884
     15 H                     0.188452
     16 H                     0.189630
     17 H                     0.172375
     18 H                     0.168506
     19 H                     0.153902
     20 H                     0.158462
     21 H                     0.173176
     22 H                     0.174232
     23 H                     0.175010
     24 H                     0.183603
  ----------------------------------------
  Sum of atomic charges =    -0.000000

 -----------------------------------------------------------------
                    Cartesian Multipole Moments
 -----------------------------------------------------------------
    Charge (ESU x 10^10)
                -0.0000
    Dipole Moment (Debye)
         X       1.3845      Y      -2.2041      Z       2.2093
       Tot       3.4141
    Quadrupole Moments (Debye-Ang)
        XX     -69.0750     XY       4.0362     YY     -72.0179
        XZ      -1.9410     YZ       6.3346     ZZ     -87.3923
    Octopole Moments (Debye-Ang^2)
       XXX      42.8215    XXY     -19.8014    XYY       6.7690
       YYY      17.6949    XXZ       7.6012    XYZ      -1.6838
       YYZ      16.3364    XZZ      13.3538    YZZ       5.7957
       ZZZ      -5.3756
    Hexadecapole Moments (Debye-Ang^3)
      XXXX   -1488.0342   XXXY     -15.2632   XXYY    -564.5077
      XYYY      28.6986   YYYY   -1518.4933   XXXZ      -5.4007
      XXYZ      14.9139   XYYZ     -17.9105   YYYZ      28.4393
      XXZZ    -345.6605   XYZZ      -7.3436   YYZZ    -337.6897
      XZZZ      -1.9370   YZZZ       6.0961   ZZZZ    -221.1869
 -----------------------------------------------------------------
 Calculating analytic gradient of the SCF energy
 Gradient of SCF Energy
            1           2           3           4           5           6
    1  -0.0000142   0.0000615   0.0000694  -0.0000603  -0.0000599  -0.0000161
    2   0.0000062   0.0000023  -0.0001326  -0.0000540   0.0000270   0.0000410
    3   0.0000923  -0.0000356  -0.0001387   0.0001739   0.0000645   0.0000006
            7           8           9          10          11          12
    1  -0.0000832   0.0000215   0.0000735   0.0000317   0.0000319  -0.0000125
    2  -0.0000065   0.0000491   0.0000164   0.0000206   0.0000259   0.0000044
    3   0.0000272  -0.0000709  -0.0000729  -0.0000074  -0.0000198  -0.0000047
           13          14          15          16          17          18
    1   0.0000059  -0.0000116  -0.0000267  -0.0000096  -0.0000004  -0.0000146
    2  -0.0000035   0.0000146   0.0000235  -0.0000003   0.0000012  -0.0000096
    3   0.0000049  -0.0000439   0.0000146   0.0000026  -0.0000027   0.0000329
           19          20          21          22          23          24
    1   0.0000129  -0.0000079  -0.0000003   0.0000001   0.0000065   0.0000025
    2  -0.0000119  -0.0000036  -0.0000069  -0.0000010   0.0000031  -0.0000052
    3  -0.0000110   0.0000037   0.0000028  -0.0000076  -0.0000055   0.0000011
 Max gradient component =       1.739E-04
 RMS gradient           =       4.395E-05
 Gradient time:  CPU 159.43 s  wall 12.88 s
 Geometry Optimization Parameters
   NAtoms,    NIC,     NZ,  NCons,   NDum,   NFix, NCnnct, MaxDiis
       24     152       0       0       0       0       0       0

 Cartesian Hessian Update
 Hessian Updated using BFGS Update


** GEOMETRY OPTIMIZATION IN DELOCALIZED INTERNAL COORDINATES **
   Searching for a Minimum

   Optimization Cycle:   2

                       Coordinates (Angstroms)
     ATOM                X               Y               Z
      1  C         0.0216908789   -0.8841881489   -0.0129952339
      2  C        -1.1192693446   -0.0635571235   -0.0607254198
      3  C         1.3800362794   -0.3085619583   -0.2455778553
      4  C        -1.0522458658    1.4314201053   -0.1555459841
      5  O         2.3493327149   -1.0711923686    0.3019509309
      6  O         1.6033078727    0.6963149461   -0.8786086246
      7  O        -0.2955975783    1.9490569405    0.8271064952
      8  O        -1.6595488618    2.0857525100   -0.9670859928
      9  C        -0.0567493800    3.3664604575    0.7551416285
     10  C         3.7000271884   -0.6317499528    0.0689044748
     11  C        -0.1351939778   -2.2664918257    0.1358933627
     12  C        -1.4042879635   -2.8322617167    0.2206069306
     13  C        -2.5329343719   -2.0190622478    0.1489161219
     14  C        -2.3877026894   -0.6414035057    0.0047481641
     15  H         0.4937703265    3.5994578252   -0.1575790488
     16  H         3.9087924960   -0.5927089793   -1.0012109748
     17  H        -3.5244026712   -2.4539535090    0.2043796665
     18  H        -0.9988096956    3.9160633211    0.7665401316
     19  H         0.5386541336    3.6040294724    1.6337539532
     20  H         4.3317663104   -1.3694285908    0.5584541068
     21  H         3.8571777769    0.3570278515    0.5021018115
     22  H        -1.5102854359   -3.9052808190    0.3315941826
     23  H        -3.2590023340   -0.0000188643   -0.0504122414
     24  H         0.7453120024   -2.8941648792    0.1668258745
   Point Group: c1    Number of degrees of freedom:    66


   Energy is   -688.216096575

 Hessian Updated using BFGS Update

 58 Hessian modes will be used to form the next step
  Hessian Eigenvalues:
     0.003230    0.009650    0.010234    0.010426    0.014099    0.017264
     0.018096    0.020906    0.022147    0.022854    0.023048    0.023066
     0.023174    0.023343    0.023348    0.023404    0.033706    0.101316
     0.101595    0.106036    0.106465    0.159348    0.159977    0.159996
     0.162025    0.220008    0.224755    0.244409    0.248210    0.249162
     0.249701    0.249911    0.249986    0.272340    0.324346    0.330763
     0.346892    0.346995    0.347104    0.347401    0.350883    0.350936
     0.355065    0.355227    0.355970    0.357902    0.395562    0.396817
     0.417975    0.422029    0.455399    0.462518    0.466274    0.468820
     0.551110    0.563328    1.006212    1.013357

 Minimum Search - Taking Simple RFO Step
 Searching for Lamda that Minimizes Along All modes
 Value Taken    Lamda =  -0.00000452
 Step Taken.  Stepsize is  0.034862

                             Maximum     Tolerance    Cnvgd?
         Gradient           0.000090      0.000001      NO
         Displacement       0.020966      0.000001      NO
         Energy change     -0.000001      0.000000      NO


 New Cartesian Coordinates Obtained by Inverse Iteration

 Displacement from previous Coordinates is:  0.102046
 Adding empirical dispersion correction 
 ----------------------------------------------------------------
 Doing -D3(op) with
 s6 =   1.00000
 s8 =   0.78311
 a1 =   0.30000
 a2 =   4.25000
 n  =  10.00000
 -D3 energy without 3body term =     -0.0234675538 hartrees
 ----------------------------------------------------------------
             Standard Nuclear Orientation (Angstroms)
    I     Atom           X                Y                Z
 ----------------------------------------------------------------
    1      C       0.0233766568    -0.8833658542    -0.0103281142
    2      C      -1.1173608982    -0.0625381841    -0.0593430371
    3      C       1.3819083098    -0.3079356753    -0.2421410778
    4      C      -1.0496517715     1.4321061055    -0.1583237977
    5      O       2.3513192270    -1.0769064344     0.2964642158
    6      O       1.6054149511     0.6995915828    -0.8707692058
    7      O      -0.3005412780     1.9522932190     0.8288470870
    8      O      -1.6541608252     2.0841497700    -0.9735977592
    9      C      -0.0640755884     3.3699163432     0.7570675885
   10      C       3.7020426632    -0.6382937970     0.0630643766
   11      C      -0.1339996110    -2.2656976056     0.1381629078
   12      C      -1.4032321207    -2.8311370956     0.2228268266
   13      C      -2.5316578848    -2.0176249677     0.1508246348
   14      C      -2.3859756927    -0.6400812592     0.0059712648
   15      H       0.5062893408     3.6006872947    -0.1440336663
   16      H       3.9081449669    -0.5915279354    -1.0072738608
   17      H      -3.5232575349    -2.4522642646     0.2059071829
   18      H      -1.0074503774     3.9172261410     0.7448322734
   19      H       0.5108183225     3.6127755228     1.6478255009
   20      H       4.3338297898    -1.3807048047     0.5453328229
   21      H       3.8622251088     0.3469655434     0.5031701115
   22      H      -1.5095196705    -3.9041110956     0.3339693314
   23      H      -3.2570640349     0.0015536635    -0.0501453849
   24      H       0.7464157617    -2.8935172723     0.1688662387
 ----------------------------------------------------------------
 Nuclear Repulsion Energy =   887.8135742630 hartrees
 There are       51 alpha and       51 beta electrons
 Applying Cartesian multipole field
    Component          Value
    ---------          -----
     (2,0,0)        1.00000E-11
     (0,2,0)        2.00000E-11
     (0,0,2)       -3.00000E-11
 Nucleus-field energy     =     0.0000000343 hartrees
 Requested basis set is 6-311++G(d,p)
 There are 134 shells and 378 basis functions
 A cutoff of  1.0D-11 yielded   7241 shell pairs
 There are     59631 function pairs (     63893 Cartesian)
 Smallest overlap matrix eigenvalue = 4.26E-07

 Q-Chem warning in module /fs/scratch/osu6415/qchem-kaunlao-vdw/stvman/mkSTV.C, line 281:

 Overlap eigenvalue is smaller than square root of threshold

 Linear dependence detected in AO basis
 Number of orthogonalized atomic orbitals = 377
 Maximum deviation from orthogonality = 3.596E-10
 Guess MOs from SCF MO coefficient file
 Reading MOs from coefficient file
 Reading MOs from coefficient file
 A restricted hybrid HF-DFT SCF calculation will be
 performed using Pulay DIIS extrapolation
 Exchange:     0.2000 Hartree-Fock + 0.0800 Slater + 0.7200 B88
 Correlation:  0.1900 VWN1RPA + 0.8100 LYP
 Using SG-1 standard quadrature grid
 Dispersion:   Grimme D3
 SCF converges when DIIS error is below 1.0E-08
 Geometry optimization detected.  Setting ReadMinima to 0
 Setting SaveMinima to 0
 using 20 threads for integral computing
 -------------------------------------------------------
 OpenMP Integral computing Module                
 Release: version 1.0, May 2013, Q-Chem Inc. Pittsburgh 
 -------------------------------------------------------
 -------------------------------------------------------
 OpenMP BLAS3 based DFT computing Module                
 Release: version 1.0, May 2013, Q-Chem Inc. Pittsburgh 
 -------------------------------------------------------
 ---------------------------------------
  Cycle       Energy         DIIS Error
 ---------------------------------------
    1    -688.2161545896      1.37E-04
    2    -688.2160879056      1.35E-05
    3    -688.2160830125      2.30E-05
    4    -688.2160922462      3.90E-06
    5    -688.2160923899      2.44E-06
    6    -688.2160924627      7.78E-07
    7    -688.2160924715      1.83E-07
    8    -688.2160924720      4.53E-08
    9    -688.2160924718      2.14E-08
   10    -688.2160924715      1.02E-08
   11    -688.2160924731      3.91E-09 Convergence criterion met
 ---------------------------------------
 SCF time:  CPU 365.65 s  wall 20.58 s
 SCF   energy in the final basis set = -688.21609247
 Total energy in the final basis set = -688.21609247
 
 --------------------------------------------------------------
 
                    Orbital Energies (a.u.)
 --------------------------------------------------------------
 
 Alpha MOs
 -- Occupied --
-19.180 -19.170 -19.121 -19.115 -10.314 -10.308 -10.234 -10.224
-10.212 -10.211 -10.199 -10.199 -10.197 -10.197  -1.122  -1.112
 -1.033  -1.026  -0.887  -0.796  -0.787  -0.740  -0.729  -0.655
 -0.639  -0.594  -0.573  -0.553  -0.523  -0.503  -0.493  -0.489
 -0.486  -0.480  -0.463  -0.457  -0.435  -0.430  -0.419  -0.401
 -0.390  -0.382  -0.375  -0.372  -0.361  -0.323  -0.309  -0.298
 -0.293  -0.278  -0.270
 -- Virtual --
 -0.068  -0.041  -0.012  -0.004   0.003   0.011   0.015   0.022
  0.027   0.030   0.031   0.039   0.045   0.052   0.056   0.057
  0.062   0.069   0.080   0.089   0.095   0.100   0.103   0.107
  0.110   0.113   0.115   0.119   0.124   0.127   0.128   0.132
  0.135   0.142   0.144   0.146   0.151   0.154   0.158   0.161
  0.168   0.171   0.175   0.177   0.187   0.190   0.197   0.201
  0.206   0.210   0.213   0.216   0.226   0.227   0.238   0.246
  0.250   0.258   0.261   0.264   0.275   0.280   0.282   0.288
  0.289   0.293   0.298   0.302   0.307   0.312   0.315   0.325
  0.331   0.336   0.344   0.349   0.355   0.359   0.361   0.368
  0.374   0.381   0.388   0.390   0.393   0.406   0.418   0.427
  0.430   0.459   0.466   0.492   0.495   0.505   0.512   0.528
  0.535   0.547   0.555   0.562   0.575   0.580   0.586   0.593
  0.598   0.611   0.624   0.631   0.643   0.644   0.657   0.658
  0.661   0.668   0.680   0.690   0.704   0.705   0.722   0.730
  0.736   0.740   0.751   0.758   0.763   0.776   0.804   0.826
  0.840   0.844   0.850   0.856   0.873   0.904   0.912   0.914
  0.937   0.939   0.987   0.995   1.003   1.018   1.034   1.045
  1.055   1.056   1.073   1.097   1.102   1.121   1.147   1.165
  1.172   1.191   1.210   1.222   1.233   1.238   1.267   1.279
  1.298   1.318   1.346   1.354   1.359   1.382   1.391   1.430
  1.434   1.450   1.459   1.482   1.498   1.511   1.524   1.526
  1.537   1.553   1.556   1.562   1.570   1.583   1.608   1.632
  1.640   1.658   1.665   1.695   1.700   1.708   1.711   1.726
  1.730   1.744   1.747   1.763   1.792   1.797   1.819   1.827
  1.838   1.876   1.903   1.909   1.930   1.949   1.955   1.969
  1.981   1.988   2.007   2.030   2.046   2.078   2.095   2.108
  2.117   2.124   2.141   2.187   2.219   2.270   2.294   2.349
  2.396   2.420   2.441   2.452   2.460   2.493   2.495   2.505
  2.525   2.540   2.555   2.577   2.586   2.606   2.644   2.651
  2.660   2.690   2.701   2.718   2.727   2.750   2.774   2.784
  2.804   2.808   2.829   2.835   2.844   2.852   2.872   2.893
  2.895   2.905   2.934   2.962   3.009   3.034   3.044   3.052
  3.083   3.102   3.105   3.166   3.171   3.218   3.222   3.253
  3.270   3.310   3.354   3.363   3.394   3.412   3.520   3.546
  3.560   3.603   3.623   3.639   3.710   3.769   3.786   3.801
  3.845   3.864   4.023   4.043   4.048   4.052   4.110   4.122
  4.187   4.266   4.351   4.834   5.026   5.040   5.097   5.133
  5.222   5.263   5.366   5.394   5.622   5.640   5.854   5.878
 23.575  23.835  23.859  23.922  23.929  23.938  23.950  24.053
 24.076  24.169  49.885  49.894  50.005  50.035
 --------------------------------------------------------------
 
          Ground-State Mulliken Net Atomic Charges

     Atom                 Charge (a.u.)
  ----------------------------------------
      1 C                     0.723748
      2 C                     0.315376
      3 C                    -0.367438
      4 C                    -0.663468
      5 O                    -0.067063
      6 O                    -0.213608
      7 O                    -0.002377
      8 O                    -0.210726
      9 C                    -0.246836
     10 C                    -0.235991
     11 C                    -0.078906
     12 C                    -0.200286
     13 C                    -0.194766
     14 C                    -0.294820
     15 H                     0.188015
     16 H                     0.189619
     17 H                     0.172349
     18 H                     0.168343
     19 H                     0.154095
     20 H                     0.158284
     21 H                     0.173436
     22 H                     0.174289
     23 H                     0.174836
     24 H                     0.183895
  ----------------------------------------
  Sum of atomic charges =    -0.000000

 -----------------------------------------------------------------
                    Cartesian Multipole Moments
 -----------------------------------------------------------------
    Charge (ESU x 10^10)
                -0.0000
    Dipole Moment (Debye)
         X       1.3755      Y      -2.2044      Z       2.2063
       Tot       3.4087
    Quadrupole Moments (Debye-Ang)
        XX     -69.0484     XY       3.9649     YY     -72.0198
        XZ      -1.9671     YZ       6.3361     ZZ     -87.3852
    Octopole Moments (Debye-Ang^2)
       XXX      42.6156    XXY     -19.8141    XYY       6.5313
       YYY      17.7966    XXZ       7.4275    XYZ      -1.6984
       YYZ      16.3786    XZZ      13.3882    YZZ       5.7445
       ZZZ      -5.4318
    Hexadecapole Moments (Debye-Ang^3)
      XXXX   -1487.5188   XXXY     -14.4937   XXYY    -564.4783
      XYYY      29.5599   YYYY   -1519.5769   XXXZ      -4.9879
      XXYZ      14.7587   XYYZ     -17.6556   YYYZ      28.6967
      XXZZ    -345.7495   XYZZ      -6.6517   YYZZ    -338.0208
      XZZZ      -1.3596   YZZZ       6.5289   ZZZZ    -221.1136
 -----------------------------------------------------------------
 Calculating analytic gradient of the SCF energy
 Gradient of SCF Energy
            1           2           3           4           5           6
    1   0.0000506  -0.0000710   0.0001051   0.0003146  -0.0000423  -0.0000453
    2  -0.0000534   0.0001284   0.0003526  -0.0000285  -0.0001641  -0.0001632
    3   0.0000917   0.0001541   0.0002697  -0.0003687  -0.0000922  -0.0001679
            7           8           9          10          11          12
    1  -0.0001542  -0.0000934   0.0000453  -0.0000549   0.0000225  -0.0000324
    2   0.0000057  -0.0000046  -0.0001077  -0.0000171   0.0000588  -0.0000132
    3   0.0001020   0.0001696  -0.0000500   0.0000168  -0.0000956   0.0000044
           13          14          15          16          17          18
    1  -0.0000190  -0.0000098  -0.0000091   0.0000074   0.0000023  -0.0000204
    2  -0.0000236  -0.0000558   0.0000307   0.0000115  -0.0000061   0.0000084
    3   0.0000032  -0.0000403   0.0000294   0.0000033  -0.0000196  -0.0000033
           19          20          21          22          23          24
    1  -0.0000254  -0.0000088  -0.0000021  -0.0000002   0.0000060   0.0000346
    2   0.0000152   0.0000009   0.0000000  -0.0000008   0.0000311  -0.0000051
    3   0.0000034  -0.0000026   0.0000008   0.0000070   0.0000090  -0.0000241
 Max gradient component =       3.687E-04
 RMS gradient           =       9.969E-05
 Gradient time:  CPU 159.42 s  wall 12.83 s
 Geometry Optimization Parameters
   NAtoms,    NIC,     NZ,  NCons,   NDum,   NFix, NCnnct, MaxDiis
       24     152       0       0       0       0       0       0

 Cartesian Hessian Update
 Hessian Updated using BFGS Update


** GEOMETRY OPTIMIZATION IN DELOCALIZED INTERNAL COORDINATES **
   Searching for a Minimum

   Optimization Cycle:   3

                       Coordinates (Angstroms)
     ATOM                X               Y               Z
      1  C         0.0233766568   -0.8833658542   -0.0103281142
      2  C        -1.1173608982   -0.0625381841   -0.0593430371
      3  C         1.3819083098   -0.3079356753   -0.2421410778
      4  C        -1.0496517715    1.4321061055   -0.1583237977
      5  O         2.3513192270   -1.0769064344    0.2964642158
      6  O         1.6054149511    0.6995915828   -0.8707692058
      7  O        -0.3005412780    1.9522932190    0.8288470870
      8  O        -1.6541608252    2.0841497700   -0.9735977592
      9  C        -0.0640755884    3.3699163432    0.7570675885
     10  C         3.7020426632   -0.6382937970    0.0630643766
     11  C        -0.1339996110   -2.2656976056    0.1381629078
     12  C        -1.4032321207   -2.8311370956    0.2228268266
     13  C        -2.5316578848   -2.0176249677    0.1508246348
     14  C        -2.3859756927   -0.6400812592    0.0059712648
     15  H         0.5062893408    3.6006872947   -0.1440336663
     16  H         3.9081449669   -0.5915279354   -1.0072738608
     17  H        -3.5232575349   -2.4522642646    0.2059071829
     18  H        -1.0074503774    3.9172261410    0.7448322734
     19  H         0.5108183225    3.6127755228    1.6478255009
     20  H         4.3338297898   -1.3807048047    0.5453328229
     21  H         3.8622251088    0.3469655434    0.5031701115
     22  H        -1.5095196705   -3.9041110956    0.3339693314
     23  H        -3.2570640349    0.0015536635   -0.0501453849
     24  H         0.7464157617   -2.8935172723    0.1688662387
   Point Group: c1    Number of degrees of freedom:    66


   Energy is   -688.216092473

 Hessian Updated using BFGS Update

 61 Hessian modes will be used to form the next step
  Hessian Eigenvalues:
     0.002654    0.009750    0.010413    0.010718    0.014122    0.018069
     0.020443    0.021928    0.022748    0.023042    0.023066    0.023163
     0.023318    0.023346    0.023402    0.024942    0.058005    0.101318
     0.101575    0.106043    0.106373    0.159351    0.159977    0.159992
     0.159997    0.160147    0.161594    0.220007    0.225165    0.244410
     0.248270    0.249571    0.249739    0.249921    0.249998    0.252082
     0.272139    0.324941    0.330896    0.346809    0.346997    0.347104
     0.347394    0.350885    0.350925    0.355065    0.355227    0.356000
     0.357976    0.396572    0.396999    0.417932    0.422187    0.455082
     0.462469    0.466411    0.469008    0.550932    0.563206    1.007019
     1.014220

 Minimum Search - Taking Simple RFO Step
 Searching for Lamda that Minimizes Along All modes
 Value Taken    Lamda =  -0.00000507
 Step Taken.  Stepsize is  0.012512

                             Maximum     Tolerance    Cnvgd?
         Gradient           0.000336      0.000001      NO
         Displacement       0.005110      0.000001      NO
         Energy change      0.000004      0.000000      NO


 New Cartesian Coordinates Obtained by Inverse Iteration

 Displacement from previous Coordinates is:  0.048146
 Adding empirical dispersion correction 
 ----------------------------------------------------------------
 Doing -D3(op) with
 s6 =   1.00000
 s8 =   0.78311
 a1 =   0.30000
 a2 =   4.25000
 n  =  10.00000
 -D3 energy without 3body term =     -0.0234796917 hartrees
 ----------------------------------------------------------------
             Standard Nuclear Orientation (Angstroms)
    I     Atom           X                Y                Z
 ----------------------------------------------------------------
    1      C       0.0217154015    -0.8842035025    -0.0121470827
    2      C      -1.1192191866    -0.0636249780    -0.0592907046
    3      C       1.3799215693    -0.3073087596    -0.2424060278
    4      C      -1.0514478227     1.4311499842    -0.1570526338
    5      O       2.3501860289    -1.0758959995     0.2952721422
    6      O       1.6024932990     0.7041949045    -0.8649563105
    7      O      -0.2969896325     1.9500593000     0.8267783685
    8      O      -1.6563699049     2.0839297469    -0.9714225242
    9      C      -0.0580066921     3.3672184041     0.7540864239
   10      C       3.7003694438    -0.6337018735     0.0653934337
   11      C      -0.1351525846    -2.2666975219     0.1357723458
   12      C      -1.4041657645    -2.8324522318     0.2212002768
   13      C      -2.5328345150    -2.0190780068     0.1512598276
   14      C      -2.3876439142    -0.6413772761     0.0074959139
   15      H       0.5107673471     3.5962236440    -0.1485105629
   16      H       3.9082058484    -0.5835272028    -1.0044573814
   17      H      -3.5242812803    -2.4539388940     0.2073473489
   18      H      -1.0002173170     3.9165190337     0.7437602380
   19      H       0.5195541498     3.6092055874     1.6433725758
   20      H       4.3330135959    -1.3760400834     0.5466658820
   21      H       3.8576509591     0.3506880853     0.5084971950
   22      H      -1.5101265158    -3.9055163200     0.3317647356
   23      H      -3.2589924636     0.0000348300    -0.0469905232
   24      H       0.7454077610    -2.8943019302     0.1657435035
 ----------------------------------------------------------------
 Nuclear Repulsion Energy =   887.9862273359 hartrees
 There are       51 alpha and       51 beta electrons
 Applying Cartesian multipole field
    Component          Value
    ---------          -----
     (2,0,0)        1.00000E-11
     (0,2,0)        2.00000E-11
     (0,0,2)       -3.00000E-11
 Nucleus-field energy     =     0.0000000343 hartrees
 Requested basis set is 6-311++G(d,p)
 There are 134 shells and 378 basis functions
 A cutoff of  1.0D-11 yielded   7243 shell pairs
 There are     59637 function pairs (     63899 Cartesian)
 Smallest overlap matrix eigenvalue = 4.25E-07

 Q-Chem warning in module /fs/scratch/osu6415/qchem-kaunlao-vdw/stvman/mkSTV.C, line 281:

 Overlap eigenvalue is smaller than square root of threshold

 Linear dependence detected in AO basis
 Number of orthogonalized atomic orbitals = 377
 Maximum deviation from orthogonality = 2.303E-10
 Guess MOs from SCF MO coefficient file
 Reading MOs from coefficient file
 Reading MOs from coefficient file
 A restricted hybrid HF-DFT SCF calculation will be
 performed using Pulay DIIS extrapolation
 Exchange:     0.2000 Hartree-Fock + 0.0800 Slater + 0.7200 B88
 Correlation:  0.1900 VWN1RPA + 0.8100 LYP
 Using SG-1 standard quadrature grid
 Dispersion:   Grimme D3
 SCF converges when DIIS error is below 1.0E-08
 Geometry optimization detected.  Setting ReadMinima to 0
 Setting SaveMinima to 0
 using 20 threads for integral computing
 -------------------------------------------------------
 OpenMP Integral computing Module                
 Release: version 1.0, May 2013, Q-Chem Inc. Pittsburgh 
 -------------------------------------------------------
 -------------------------------------------------------
 OpenMP BLAS3 based DFT computing Module                
 Release: version 1.0, May 2013, Q-Chem Inc. Pittsburgh 
 -------------------------------------------------------
 ---------------------------------------
  Cycle       Energy         DIIS Error
 ---------------------------------------
    1    -688.2167866863      9.00E-05
    2    -688.2160956420      1.08E-05
    3    -688.2160904631      2.16E-05
    4    -688.2160980486      2.63E-06
    5    -688.2160981082      1.53E-06
    6    -688.2160981395      5.39E-07
    7    -688.2160981438      1.36E-07
    8    -688.2160981441      5.35E-08
    9    -688.2160981440      1.82E-08
   10    -688.2160981426      9.53E-09 Convergence criterion met
 ---------------------------------------
 SCF time:  CPU 344.89 s  wall 20.31 s
 SCF   energy in the final basis set = -688.21609814
 Total energy in the final basis set = -688.21609814
 
 --------------------------------------------------------------
 
                    Orbital Energies (a.u.)
 --------------------------------------------------------------
 
 Alpha MOs
 -- Occupied --
-19.180 -19.170 -19.121 -19.115 -10.314 -10.308 -10.234 -10.224
-10.212 -10.211 -10.199 -10.199 -10.197 -10.197  -1.122  -1.112
 -1.033  -1.026  -0.887  -0.796  -0.787  -0.740  -0.729  -0.655
 -0.639  -0.594  -0.573  -0.553  -0.523  -0.503  -0.493  -0.489
 -0.486  -0.480  -0.463  -0.457  -0.435  -0.430  -0.419  -0.401
 -0.390  -0.382  -0.375  -0.372  -0.361  -0.323  -0.309  -0.298
 -0.293  -0.278  -0.270
 -- Virtual --
 -0.068  -0.041  -0.012  -0.004   0.003   0.011   0.015   0.022
  0.027   0.030   0.031   0.039   0.045   0.052   0.056   0.057
  0.062   0.069   0.080   0.089   0.095   0.100   0.103   0.107
  0.110   0.113   0.115   0.119   0.124   0.127   0.128   0.133
  0.135   0.142   0.144   0.146   0.151   0.154   0.158   0.161
  0.168   0.171   0.175   0.177   0.187   0.190   0.197   0.201
  0.206   0.210   0.213   0.216   0.226   0.227   0.238   0.246
  0.250   0.258   0.261   0.264   0.275   0.280   0.282   0.288
  0.289   0.293   0.298   0.302   0.307   0.312   0.315   0.325
  0.332   0.337   0.344   0.349   0.355   0.359   0.361   0.368
  0.374   0.381   0.388   0.390   0.393   0.405   0.418   0.426
  0.430   0.458   0.466   0.492   0.495   0.506   0.512   0.528
  0.535   0.547   0.554   0.562   0.575   0.580   0.586   0.593
  0.598   0.610   0.625   0.631   0.643   0.644   0.657   0.658
  0.661   0.668   0.680   0.690   0.704   0.704   0.722   0.730
  0.736   0.740   0.751   0.758   0.763   0.777   0.804   0.826
  0.840   0.844   0.850   0.856   0.874   0.904   0.912   0.914
  0.937   0.939   0.987   0.996   1.003   1.019   1.034   1.045
  1.054   1.056   1.073   1.097   1.102   1.121   1.146   1.165
  1.172   1.191   1.210   1.223   1.233   1.238   1.267   1.280
  1.299   1.319   1.346   1.354   1.359   1.382   1.393   1.429
  1.434   1.450   1.459   1.482   1.498   1.511   1.524   1.526
  1.537   1.553   1.556   1.562   1.569   1.583   1.608   1.632
  1.640   1.658   1.665   1.695   1.700   1.708   1.711   1.726
  1.730   1.744   1.747   1.763   1.792   1.796   1.819   1.826
  1.838   1.877   1.903   1.910   1.930   1.949   1.955   1.969
  1.980   1.988   2.007   2.030   2.046   2.078   2.096   2.108
  2.117   2.124   2.141   2.187   2.219   2.270   2.294   2.349
  2.396   2.420   2.441   2.452   2.460   2.493   2.495   2.505
  2.525   2.540   2.555   2.577   2.586   2.606   2.644   2.652
  2.660   2.690   2.701   2.718   2.727   2.750   2.774   2.784
  2.804   2.808   2.829   2.835   2.844   2.852   2.872   2.893
  2.896   2.905   2.934   2.962   3.009   3.034   3.044   3.052
  3.083   3.102   3.105   3.166   3.171   3.218   3.222   3.253
  3.270   3.310   3.355   3.363   3.393   3.413   3.520   3.546
  3.560   3.603   3.623   3.640   3.710   3.769   3.786   3.802
  3.845   3.864   4.023   4.043   4.048   4.052   4.110   4.122
  4.187   4.266   4.351   4.834   5.026   5.039   5.097   5.134
  5.222   5.264   5.366   5.394   5.623   5.640   5.854   5.879
 23.575  23.835  23.860  23.922  23.929  23.938  23.950  24.053
 24.076  24.169  49.885  49.894  50.005  50.036
 --------------------------------------------------------------
 
          Ground-State Mulliken Net Atomic Charges

     Atom                 Charge (a.u.)
  ----------------------------------------
      1 C                     0.711786
      2 C                     0.329229
      3 C                    -0.362174
      4 C                    -0.664481
      5 O                    -0.067530
      6 O                    -0.214445
      7 O                    -0.002337
      8 O                    -0.211141
      9 C                    -0.247014
     10 C                    -0.235657
     11 C                    -0.082916
     12 C                    -0.200539
     13 C                    -0.192309
     14 C                    -0.297279
     15 H                     0.187994
     16 H                     0.189629
     17 H                     0.172352
     18 H                     0.168170
     19 H                     0.154061
     20 H                     0.158405
     21 H                     0.173356
     22 H                     0.174314
     23 H                     0.174801
     24 H                     0.183725
  ----------------------------------------
  Sum of atomic charges =    -0.000000

 -----------------------------------------------------------------
                    Cartesian Multipole Moments
 -----------------------------------------------------------------
    Charge (ESU x 10^10)
                -0.0000
    Dipole Moment (Debye)
         X       1.3796      Y      -2.2098      Z       2.1989
       Tot       3.4091
    Quadrupole Moments (Debye-Ang)
        XX     -69.0605     XY       4.0066     YY     -72.0593
        XZ      -1.9793     YZ       6.3179     ZZ     -87.3500
    Octopole Moments (Debye-Ang^2)
       XXX      42.7295    XXY     -19.7778    XYY       6.5986
       YYY      17.6715    XXZ       7.4715    XYZ      -1.7010
       YYZ      16.3113    XZZ      13.4775    YZZ       5.7807
       ZZZ      -5.4998
    Hexadecapole Moments (Debye-Ang^3)
      XXXX   -1487.6049   XXXY     -15.4522   XXYY    -564.5609
      XYYY      28.4797   YYYY   -1519.4156   XXXZ      -5.4675
      XXYZ      14.7312   XYYZ     -17.7205   YYYZ      28.6232
      XXZZ    -345.4563   XYZZ      -7.1224   YYZZ    -337.8441
      XZZZ      -1.7684   YZZZ       6.4838   ZZZZ    -220.2157
 -----------------------------------------------------------------
 Calculating analytic gradient of the SCF energy
 Gradient of SCF Energy
            1           2           3           4           5           6
    1  -0.0000755   0.0000629   0.0000501  -0.0002476   0.0000119  -0.0001358
    2   0.0000713   0.0000160  -0.0000739  -0.0000421   0.0000338   0.0001067
    3   0.0001202   0.0000197  -0.0001774  -0.0001330   0.0000467   0.0001867
            7           8           9          10          11          12
    1   0.0002904   0.0000957  -0.0000025  -0.0000307   0.0000207  -0.0000285
    2  -0.0000608  -0.0000267  -0.0000412  -0.0000319   0.0000037  -0.0000050
    3  -0.0000783   0.0000341   0.0000184   0.0000067  -0.0000471  -0.0000215
           13          14          15          16          17          18
    1  -0.0000030  -0.0000072  -0.0000095   0.0000093   0.0000011  -0.0000040
    2  -0.0000209  -0.0000137   0.0000162   0.0000102  -0.0000013   0.0000155
    3   0.0000005   0.0000172   0.0000078   0.0000033  -0.0000157  -0.0000100
           19          20          21          22          23          24
    1  -0.0000154   0.0000053   0.0000037   0.0000022  -0.0000004   0.0000066
    2   0.0000157   0.0000074   0.0000022   0.0000002   0.0000148   0.0000036
    3   0.0000125  -0.0000001   0.0000052   0.0000069   0.0000016  -0.0000043
 Max gradient component =       2.904E-04
 RMS gradient           =       6.818E-05
 Gradient time:  CPU 158.85 s  wall 12.98 s
 Geometry Optimization Parameters
   NAtoms,    NIC,     NZ,  NCons,   NDum,   NFix, NCnnct, MaxDiis
       24     152       0       0       0       0       0       0

 Cartesian Hessian Update
 Hessian Updated using BFGS Update


** GEOMETRY OPTIMIZATION IN DELOCALIZED INTERNAL COORDINATES **
   Searching for a Minimum

   Optimization Cycle:   4

                       Coordinates (Angstroms)
     ATOM                X               Y               Z
      1  C         0.0217154015   -0.8842035025   -0.0121470827
      2  C        -1.1192191866   -0.0636249780   -0.0592907046
      3  C         1.3799215693   -0.3073087596   -0.2424060278
      4  C        -1.0514478227    1.4311499842   -0.1570526338
      5  O         2.3501860289   -1.0758959995    0.2952721422
      6  O         1.6024932990    0.7041949045   -0.8649563105
      7  O        -0.2969896325    1.9500593000    0.8267783685
      8  O        -1.6563699049    2.0839297469   -0.9714225242
      9  C        -0.0580066921    3.3672184041    0.7540864239
     10  C         3.7003694438   -0.6337018735    0.0653934337
     11  C        -0.1351525846   -2.2666975219    0.1357723458
     12  C        -1.4041657645   -2.8324522318    0.2212002768
     13  C        -2.5328345150   -2.0190780068    0.1512598276
     14  C        -2.3876439142   -0.6413772761    0.0074959139
     15  H         0.5107673471    3.5962236440   -0.1485105629
     16  H         3.9082058484   -0.5835272028   -1.0044573814
     17  H        -3.5242812803   -2.4539388940    0.2073473489
     18  H        -1.0002173170    3.9165190337    0.7437602380
     19  H         0.5195541498    3.6092055874    1.6433725758
     20  H         4.3330135959   -1.3760400834    0.5466658820
     21  H         3.8576509591    0.3506880853    0.5084971950
     22  H        -1.5101265158   -3.9055163200    0.3317647356
     23  H        -3.2589924636    0.0000348300   -0.0469905232
     24  H         0.7454077610   -2.8943019302    0.1657435035
   Point Group: c1    Number of degrees of freedom:    66


   Energy is   -688.216098143

 Hessian Updated using BFGS Update

 63 Hessian modes will be used to form the next step
  Hessian Eigenvalues:
     0.002987    0.009886    0.010405    0.011971    0.014138    0.017504
     0.018972    0.022138    0.022838    0.023022    0.023064    0.023173
     0.023336    0.023343    0.023403    0.030317    0.069500    0.101318
     0.101580    0.106034    0.106255    0.159318    0.159888    0.159979
     0.159992    0.159997    0.160038    0.161214    0.219997    0.225818
     0.244379    0.246503    0.248797    0.249725    0.249770    0.249996
     0.249999    0.252448    0.320496    0.328798    0.334670    0.346768
     0.346995    0.347106    0.347313    0.350882    0.350954    0.355065
     0.355226    0.355965    0.357925    0.396044    0.396769    0.421172
     0.431433    0.459783    0.462520    0.466289    0.468584    0.550953
     0.565161    1.006227    1.013402

 Minimum Search - Taking Simple RFO Step
 Searching for Lamda that Minimizes Along All modes
 Value Taken    Lamda =  -0.00000606
 Step Taken.  Stepsize is  0.022408

                             Maximum     Tolerance    Cnvgd?
         Gradient           0.000650      0.000001      NO
         Displacement       0.008455      0.000001      NO
         Energy change     -0.000006      0.000000      NO


 New Cartesian Coordinates Obtained by Inverse Iteration

 Displacement from previous Coordinates is:  0.051038
 Adding empirical dispersion correction 
 ----------------------------------------------------------------
 Doing -D3(op) with
 s6 =   1.00000
 s8 =   0.78311
 a1 =   0.30000
 a2 =   4.25000
 n  =  10.00000
 -D3 energy without 3body term =     -0.0234716761 hartrees
 ----------------------------------------------------------------
             Standard Nuclear Orientation (Angstroms)
    I     Atom           X                Y                Z
 ----------------------------------------------------------------
    1      C       0.0220906656    -0.8845121427    -0.0149746711
    2      C      -1.1186779831    -0.0634980717    -0.0623110983
    3      C       1.3807339016    -0.3090201617    -0.2467028523
    4      C      -1.0512470076     1.4315902100    -0.1575385260
    5      O       2.3503050312    -1.0731176003     0.2984687390
    6      O       1.6046228427     0.6978210013    -0.8763736810
    7      O      -0.2989338879     1.9496607396     0.8283059654
    8      O      -1.6551667094     2.0852615051    -0.9720740836
    9      C      -0.0594316028     3.3669333012     0.7573493170
   10      C       3.7009095179    -0.6329839478     0.0663524285
   11      C      -0.1352562835    -2.2666161674     0.1362047432
   12      C      -1.4044212373    -2.8318364693     0.2223474665
   13      C      -2.5328133330    -2.0182828582     0.1506381045
   14      C      -2.3872256599    -0.6408428073     0.0050970453
   15      H       0.5035396749     3.5976301695    -0.1484326687
   16      H       3.9098190472    -0.5919915280    -1.0036714539
   17      H      -3.5243996983    -2.4527089558     0.2076447875
   18      H      -1.0013439305     3.9168002615     0.7547441827
   19      H       0.5242550945     3.6061049170     1.6433887123
   20      H       4.3328693752    -1.3713512071     0.5546031018
   21      H       3.8578117925     0.3550818719     0.5013033565
   22      H      -1.5107329206    -3.9046749564     0.3347360913
   23      H      -3.2584666022     0.0006502377    -0.0496395770
   24      H       0.7449977226    -2.8945384010     0.1677110305
 ----------------------------------------------------------------
 Nuclear Repulsion Energy =   887.8153256234 hartrees
 There are       51 alpha and       51 beta electrons
 Applying Cartesian multipole field
    Component          Value
    ---------          -----
     (2,0,0)        1.00000E-11
     (0,2,0)        2.00000E-11
     (0,0,2)       -3.00000E-11
 Nucleus-field energy     =     0.0000000342 hartrees
 Requested basis set is 6-311++G(d,p)
 There are 134 shells and 378 basis functions
 A cutoff of  1.0D-11 yielded   7239 shell pairs
 There are     59625 function pairs (     63887 Cartesian)
 Smallest overlap matrix eigenvalue = 4.26E-07

 Q-Chem warning in module /fs/scratch/osu6415/qchem-kaunlao-vdw/stvman/mkSTV.C, line 281:

 Overlap eigenvalue is smaller than square root of threshold

 Linear dependence detected in AO basis
 Number of orthogonalized atomic orbitals = 377
 Maximum deviation from orthogonality = 3.404E-10
 Guess MOs from SCF MO coefficient file
 Reading MOs from coefficient file
 Reading MOs from coefficient file
 A restricted hybrid HF-DFT SCF calculation will be
 performed using Pulay DIIS extrapolation
 Exchange:     0.2000 Hartree-Fock + 0.0800 Slater + 0.7200 B88
 Correlation:  0.1900 VWN1RPA + 0.8100 LYP
 Using SG-1 standard quadrature grid
 Dispersion:   Grimme D3
 SCF converges when DIIS error is below 1.0E-08
 Geometry optimization detected.  Setting ReadMinima to 0
 Setting SaveMinima to 0
 using 20 threads for integral computing
 -------------------------------------------------------
 OpenMP Integral computing Module                
 Release: version 1.0, May 2013, Q-Chem Inc. Pittsburgh 
 -------------------------------------------------------
 -------------------------------------------------------
 OpenMP BLAS3 based DFT computing Module                
 Release: version 1.0, May 2013, Q-Chem Inc. Pittsburgh 
 -------------------------------------------------------
 ---------------------------------------
  Cycle       Energy         DIIS Error
 ---------------------------------------
    1    -688.2147424250      1.09E-04
    2    -688.2160937686      1.31E-05
    3    -688.2160874740      2.39E-05
    4    -688.2160975546      3.87E-06
    5    -688.2160977285      1.87E-06
    6    -688.2160977628      8.76E-07
    7    -688.2160977737      2.10E-07
    8    -688.2160977744      7.36E-08
    9    -688.2160977747      1.48E-08
   10    -688.2160977761      7.59E-09 Convergence criterion met
 ---------------------------------------
 SCF time:  CPU 336.90 s  wall 18.69 s
 SCF   energy in the final basis set = -688.21609778
 Total energy in the final basis set = -688.21609778
 
 --------------------------------------------------------------
 
                    Orbital Energies (a.u.)
 --------------------------------------------------------------
 
 Alpha MOs
 -- Occupied --
-19.180 -19.170 -19.121 -19.115 -10.314 -10.308 -10.234 -10.224
-10.212 -10.211 -10.199 -10.199 -10.197 -10.197  -1.122  -1.112
 -1.033  -1.026  -0.887  -0.796  -0.787  -0.740  -0.729  -0.655
 -0.639  -0.594  -0.573  -0.553  -0.523  -0.503  -0.493  -0.489
 -0.486  -0.480  -0.463  -0.457  -0.435  -0.431  -0.418  -0.401
 -0.390  -0.382  -0.375  -0.372  -0.361  -0.323  -0.309  -0.298
 -0.293  -0.278  -0.270
 -- Virtual --
 -0.068  -0.041  -0.012  -0.004   0.003   0.011   0.015   0.022
  0.027   0.030   0.031   0.039   0.045   0.052   0.056   0.057
  0.062   0.069   0.080   0.089   0.095   0.100   0.103   0.107
  0.110   0.113   0.115   0.119   0.124   0.127   0.128   0.133
  0.135   0.142   0.144   0.146   0.151   0.154   0.158   0.161
  0.168   0.171   0.175   0.177   0.187   0.190   0.197   0.201
  0.206   0.210   0.213   0.216   0.226   0.227   0.238   0.246
  0.250   0.258   0.261   0.264   0.275   0.280   0.282   0.287
  0.289   0.293   0.298   0.302   0.307   0.312   0.315   0.325
  0.331   0.336   0.344   0.349   0.355   0.359   0.361   0.368
  0.374   0.381   0.388   0.391   0.393   0.405   0.418   0.426
  0.429   0.459   0.466   0.492   0.495   0.505   0.512   0.529
  0.536   0.547   0.554   0.562   0.575   0.580   0.586   0.593
  0.598   0.611   0.624   0.631   0.643   0.644   0.657   0.658
  0.661   0.668   0.680   0.690   0.704   0.705   0.722   0.730
  0.735   0.740   0.751   0.758   0.763   0.776   0.804   0.826
  0.840   0.844   0.850   0.856   0.873   0.904   0.912   0.914
  0.937   0.939   0.986   0.996   1.003   1.018   1.034   1.045
  1.055   1.056   1.073   1.097   1.102   1.121   1.146   1.166
  1.172   1.192   1.210   1.222   1.233   1.238   1.267   1.280
  1.298   1.318   1.345   1.354   1.359   1.382   1.391   1.429
  1.434   1.450   1.459   1.482   1.497   1.511   1.524   1.526
  1.537   1.553   1.556   1.562   1.570   1.583   1.608   1.632
  1.640   1.657   1.665   1.695   1.700   1.708   1.711   1.726
  1.730   1.744   1.747   1.763   1.791   1.796   1.819   1.827
  1.838   1.877   1.903   1.909   1.930   1.949   1.955   1.969
  1.980   1.988   2.007   2.030   2.046   2.078   2.096   2.108
  2.116   2.124   2.141   2.187   2.219   2.270   2.294   2.349
  2.396   2.419   2.441   2.452   2.460   2.493   2.495   2.505
  2.525   2.540   2.555   2.577   2.587   2.606   2.644   2.651
  2.660   2.690   2.701   2.718   2.727   2.750   2.774   2.784
  2.804   2.808   2.829   2.835   2.844   2.852   2.872   2.893
  2.895   2.905   2.934   2.962   3.009   3.034   3.044   3.052
  3.083   3.102   3.105   3.166   3.171   3.218   3.222   3.253
  3.270   3.310   3.354   3.363   3.393   3.412   3.520   3.545
  3.560   3.603   3.623   3.640   3.710   3.769   3.786   3.801
  3.845   3.864   4.023   4.042   4.048   4.052   4.110   4.122
  4.187   4.265   4.351   4.834   5.026   5.040   5.096   5.133
  5.222   5.263   5.365   5.394   5.622   5.639   5.854   5.878
 23.575  23.835  23.859  23.922  23.929  23.938  23.950  24.053
 24.076  24.169  49.885  49.894  50.005  50.035
 --------------------------------------------------------------
 
          Ground-State Mulliken Net Atomic Charges

     Atom                 Charge (a.u.)
  ----------------------------------------
      1 C                     0.724684
      2 C                     0.327222
      3 C                    -0.373760
      4 C                    -0.662030
      5 O                    -0.066934
      6 O                    -0.213722
      7 O                    -0.002527
      8 O                    -0.210733
      9 C                    -0.246788
     10 C                    -0.236044
     11 C                    -0.086767
     12 C                    -0.201328
     13 C                    -0.193840
     14 C                    -0.294404
     15 H                     0.188184
     16 H                     0.189587
     17 H                     0.172320
     18 H                     0.168341
     19 H                     0.154011
     20 H                     0.158431
     21 H                     0.173268
     22 H                     0.174281
     23 H                     0.174955
     24 H                     0.183594
  ----------------------------------------
  Sum of atomic charges =    -0.000000

 -----------------------------------------------------------------
                    Cartesian Multipole Moments
 -----------------------------------------------------------------
    Charge (ESU x 10^10)
                -0.0000
    Dipole Moment (Debye)
         X       1.3761      Y      -2.2035      Z       2.2145
       Tot       3.4137
    Quadrupole Moments (Debye-Ang)
        XX     -69.0528     XY       4.0057     YY     -72.0242
        XZ      -1.9583     YZ       6.3416     ZZ     -87.3968
    Octopole Moments (Debye-Ang^2)
       XXX      42.6832    XXY     -19.7439    XYY       6.6451
       YYY      17.7458    XXZ       7.5941    XYZ      -1.6669
       YYZ      16.4787    XZZ      13.3870    YZZ       5.7521
       ZZZ      -5.2168
    Hexadecapole Moments (Debye-Ang^3)
      XXXX   -1487.7447   XXXY     -15.2171   XXYY    -564.4349
      XYYY      28.7561   YYYY   -1518.6929   XXXZ      -5.1582
      XXYZ      14.7424   XYYZ     -17.8061   YYYZ      28.5433
      XXZZ    -345.7743   XYZZ      -7.1311   YYZZ    -337.8291
      XZZZ      -1.5387   YZZZ       6.3673   ZZZZ    -221.5411
 -----------------------------------------------------------------
 Calculating analytic gradient of the SCF energy
 Gradient of SCF Energy
            1           2           3           4           5           6
    1  -0.0000519  -0.0000311  -0.0000243  -0.0000976   0.0000365   0.0001253
    2   0.0000205  -0.0000248  -0.0001714  -0.0000178   0.0001446  -0.0000280
    3  -0.0000574  -0.0000972  -0.0002156   0.0002405   0.0000514   0.0000711
            7           8           9          10          11          12
    1  -0.0000103   0.0000132  -0.0000202   0.0000282  -0.0000062   0.0000109
    2   0.0001021   0.0000015   0.0000157  -0.0000076  -0.0000383   0.0000099
    3   0.0000094  -0.0000979   0.0000402  -0.0000081   0.0000764  -0.0000144
           13          14          15          16          17          18
    1   0.0000136  -0.0000030   0.0000063  -0.0000020  -0.0000003   0.0000089
[...]
    -0.00866632     -0.01147262      0.00144924
vibration 51
    -0.00224806      0.00563320     -0.00064926
     0.00055820     -0.00706085      0.00037965
    -0.00746139      0.00250534     -0.00264187
     0.00156545      0.00260118      0.00192656
     0.00410060      0.01360079     -0.01015329
     0.00224629     -0.00523333      0.00358783
     0.00121872     -0.00147789      0.00176254
    -0.00117219      0.00037344     -0.00146257
     0.00435638     -0.00420604      0.00650184
     0.01449194      0.04163332     -0.03351315
     0.00575639      0.00314389     -0.00044033
    -0.00413468     -0.00423436      0.00055678
    -0.00225140      0.00435560     -0.00040356
     0.00413941      0.00310667     -0.00033710
    -0.08965701      0.05721971     -0.03934742
    -0.22990713     -0.61043610     -0.08770864
     0.00854694     -0.02066598      0.00187607
     0.03170810      0.04769644     -0.09087422
    -0.01286468     -0.04281657      0.02443102
     0.17571586      0.17754619      0.00300790
    -0.14633444     -0.24382728      0.62541097
     0.00723074     -0.00634635      0.00054127
    -0.01040123     -0.01741057      0.00144460
    -0.01139449     -0.02153715      0.00143265
vibration 52
     0.18374368     -0.03050497     -0.00471670
    -0.06811489      0.16606319     -0.01089361
    -0.06005675      0.01187227     -0.00048833
    -0.01005467     -0.03983499     -0.02895427
     0.00390960     -0.00158386      0.00056513
     0.00505330     -0.00541863      0.00160957
     0.00335702      0.00910041      0.00452531
     0.00976037     -0.00976326      0.01566046
     0.00354527      0.01533034      0.00110566
     0.01544711      0.00612335     -0.00180274
    -0.10976811     -0.13218265      0.01758070
    -0.02627445      0.08775589     -0.00914773
     0.09127430     -0.03292297      0.00179721
    -0.09997243     -0.12653882      0.01318016
     0.00830391     -0.09181612     -0.02202885
    -0.06243254     -0.05895447     -0.01891105
    -0.04133515      0.30626268     -0.02927597
    -0.04467944     -0.06744458      0.02156648
    -0.00440362     -0.05591831      0.02625343
    -0.03909344     -0.03809856      0.00419536
    -0.08154952     -0.00324487      0.04861326
     0.20990684      0.08337871     -0.01167858
     0.33678846      0.47185369     -0.04234650
     0.32335731      0.46673087     -0.06526964
vibration 53
     0.20154733     -0.21815971      0.01829337
    -0.27209493      0.10607333     -0.00819542
    -0.04635862     -0.00963096      0.02063587
     0.00588506      0.00398718     -0.03304850
    -0.00473362     -0.00244300     -0.00042681
     0.01426251      0.02132797     -0.01625570
     0.00042880      0.00616726      0.00341995
     0.01066248     -0.01934886      0.02285714
     0.00028472      0.00233240      0.00186681
     0.00357868      0.00082839     -0.00077577
    -0.12163857      0.10036225     -0.00788363
     0.33475598     -0.12895134      0.00675383
    -0.22912034      0.26438363     -0.02355925
     0.14068588     -0.06957680      0.00625325
    -0.00890190     -0.02255001     -0.01000108
     0.00319409     -0.00802212     -0.00185331
     0.07022360     -0.45030703      0.04340719
    -0.00536092     -0.00377842     -0.00018989
    -0.00505392     -0.01046527      0.00861653
     0.00326401     -0.00206484     -0.00264982
    -0.00710843     -0.00115349      0.00653422
    -0.47605995     -0.06251754      0.01561024
     0.08029350     -0.18190141      0.01422160
    -0.19041395      0.03727869      0.00811265
vibration 54
     0.07656803      0.19814171     -0.02739082
    -0.15193900     -0.16497288      0.01296955
     0.00126329      0.00968809     -0.01352609
     0.02059374      0.03128401      0.00478346
     0.00107939      0.00376715     -0.00124666
    -0.00880720     -0.02299985      0.01474657
    -0.00136116      0.00094157     -0.00021333
    -0.00507397     -0.00224049     -0.00114630
    -0.00110535     -0.00321532     -0.00091798
     0.00171580     -0.00011136      0.00103903
    -0.20891171     -0.25736376      0.03332491
     0.18712981      0.11532273     -0.01502828
    -0.04690592     -0.22032953      0.02428353
     0.18670651      0.28887629     -0.03130082
    -0.00278533      0.00447275      0.00122232
    -0.01344192     -0.00353506     -0.00197126
    -0.23974723      0.16674740     -0.01792763
     0.00718395      0.01114825      0.00264322
    -0.00538910      0.00507720     -0.00097113
     0.00094790     -0.00005199      0.00193377
    -0.00490840      0.00050365      0.00319830
    -0.22699619      0.17436469     -0.01872069
    -0.29721688     -0.35854012      0.03249631
     0.23181638      0.35757349     -0.05451181
vibration 55
    -0.04086042     -0.09465339      0.02528645
    -0.01027591      0.03219806     -0.00553332
     0.18922870      0.65777407     -0.38838820
     0.02700659     -0.00306763      0.02189179
     0.00146293     -0.04571019      0.02765556
    -0.10081621     -0.41703260      0.25491109
    -0.00856603     -0.00325901     -0.00365946
    -0.01010727      0.00505310     -0.01068416
    -0.00052129     -0.00095717     -0.00171265
     0.02770738      0.01542029     -0.01007234
    -0.01649374      0.01775758      0.00075001
     0.02607387     -0.00705827     -0.00112602
    -0.01043319      0.01461588     -0.00130363
     0.00742440     -0.01441375      0.00101994
     0.01614366     -0.02325900      0.00312882
    -0.13229736      0.04025400     -0.05894643
     0.00403412     -0.01902462      0.00422164
     0.00218716     -0.00470032      0.02002679
    -0.00377154      0.01049599     -0.00308684
    -0.20228679     -0.11852656      0.06890055
    -0.13669270      0.06426765     -0.01422777
    -0.02867347     -0.00289293     -0.00032894
     0.03324650      0.02162958     -0.00447437
    -0.04646922     -0.00649960      0.00468321
vibration 56
     0.02045310      0.00463285     -0.00332706
    -0.03824080      0.08191486     -0.02182360
    -0.01604081     -0.02151067      0.01455721
     0.37982885     -0.47040982      0.50741732
     0.00221064      0.00163364     -0.00082284
     0.00469842      0.01491642     -0.01120986
    -0.03220102      0.01445660     -0.04046050
    -0.24818337      0.28374589     -0.33836869
     0.00062774     -0.03099195      0.00625876
    -0.00170148     -0.00086133      0.00082611
    -0.00800800     -0.01061025      0.00322248
     0.01203943     -0.00080449     -0.00047120
    -0.01464049      0.00478796      0.00154109
     0.01745370     -0.00524941      0.00416019
     0.04349782      0.10465697      0.08958673
     0.00526847     -0.00187449      0.00337444
     0.00464898     -0.03644281      0.00442650
     0.09773728      0.09647055      0.07756526
    -0.00452238      0.22858018     -0.05381302
     0.00748110      0.00419648     -0.00380022
     0.00396984     -0.00206967      0.00013521
    -0.01168967      0.00092712     -0.00393342
     0.00180910     -0.04825453     -0.01351628
     0.00356963      0.00584188      0.00263614
vibration 57
     0.00022018     -0.00009005      0.00005143
    -0.00005612      0.00001717     -0.00005508
    -0.00163453      0.00189596     -0.00124239
     0.00057974      0.00031181      0.00076783
     0.00260943      0.00004745      0.00007283
    -0.00013426     -0.00074582      0.00045194
    -0.00035562     -0.00090870     -0.00024944
    -0.00014311      0.00013146     -0.00020020
    -0.00080593     -0.01412472      0.00446969
     0.03348405      0.02098254     -0.01321929
     0.00014914     -0.00010000      0.00002272
     0.00000496      0.00004719     -0.00000595
     0.00002862     -0.00000409      0.00000872
     0.00005933     -0.00001235      0.00000032
     0.11380545      0.04224257     -0.17894031
    -0.10594340     -0.01753002      0.59440710
    -0.00011728     -0.00012505      0.00002990
    -0.18358623      0.10304084      0.00020163
     0.08053433      0.03231332      0.12396248
    -0.23884382      0.28617446     -0.18614697
    -0.07648593     -0.52884061     -0.24511295
    -0.00006130     -0.00091744      0.00007894
    -0.00001071      0.00013318     -0.00003708
    -0.00202557      0.00067783     -0.00006888
vibration 58
     0.00010596     -0.00005327      0.00003510
     0.00007379      0.00014231      0.00010688
    -0.00048015      0.00058169     -0.00039505
    -0.00165981     -0.00057605     -0.00212819
     0.00086361      0.00003441      0.00000257
    -0.00011392     -0.00022092      0.00016279
     0.00097312      0.00239975      0.00063307
     0.00044249     -0.00049239      0.00060811
     0.00225282      0.03944575     -0.01258216
     0.01206066      0.00754835     -0.00478661
     0.00001864     -0.00002974      0.00000695
     0.00001278      0.00005793     -0.00000853
     0.00007380      0.00003299     -0.00001736
     0.00000853     -0.00002163     -0.00001949
    -0.31739539     -0.11780116      0.49906744
    -0.03810971     -0.00635191      0.21362810
    -0.00069414     -0.00023642      0.00005660
     0.51124326     -0.28710765     -0.00056885
    -0.22368715     -0.08975359     -0.34431851
    -0.08564548      0.10255163     -0.06675000
    -0.02750126     -0.18968240     -0.08792429
    -0.00004324     -0.00059054      0.00007062
    -0.00058099      0.00043254      0.00007350
    -0.00039242      0.00008244     -0.00004084
vibration 59
     0.00004645     -0.00013340     -0.00018416
     0.00002376      0.00002793      0.00000192
     0.00000270      0.00007292      0.00017987
    -0.00003712     -0.00003475     -0.00005996
    -0.00007793      0.00022661      0.00033452
    -0.00000633      0.00008104      0.00011662
     0.00001802      0.00001505      0.00002436
     0.00000910      0.00000326      0.00002138
     0.00102632     -0.00022077     -0.00039558
     0.00218524     -0.05055155     -0.08043232
    -0.00004979      0.00000817      0.00002133
     0.00001142     -0.00001322      0.00001044
    -0.00001393      0.00000417     -0.00000265
    -0.00000196     -0.00001459      0.00000711
    -0.00366056     -0.00145760      0.00609899
    -0.11928748     -0.03788375      0.68363925
     0.00012821      0.00007090     -0.00001941
    -0.00786908      0.00447504     -0.00014528
    -0.00068347     -0.00033219     -0.00135503
     0.00321131     -0.01314389     -0.01340637
     0.09071570      0.64860256      0.28022614
     0.00001317      0.00016972     -0.00005545
    -0.00010888      0.00008464     -0.00000723
     0.00042834     -0.00023866     -0.00015140
vibration 60
     0.00003612      0.00005424     -0.00001810
    -0.00022114      0.00000237      0.00010866
    -0.00004997     -0.00019456      0.00009693
     0.00003174      0.00007241     -0.00024813
    -0.00001258      0.00003481     -0.00002073
     0.00005351      0.00011235     -0.00003162
     0.00029210     -0.00000499     -0.00011301
     0.00009026     -0.00018516     -0.00006701
    -0.07996935      0.01756456      0.04851603
    -0.00004220     -0.00043291     -0.00104371
    -0.00002854     -0.00001129     -0.00000338
     0.00001936      0.00002918     -0.00000060
    -0.00001180      0.00001314     -0.00000632
     0.00002499     -0.00003059      0.00000005
     0.35296897      0.14100238     -0.58564449
    -0.00151706     -0.00045155      0.00869312
     0.00010485      0.00003778      0.00002609
     0.61757949     -0.34807448      0.01591957
    -0.02302376     -0.00013328     -0.00339929
     0.00111135     -0.00135992      0.00067678
     0.00101148      0.00676740      0.00295067
    -0.00001283     -0.00033800      0.00004626
    -0.00005253      0.00015004      0.00004895
     0.00016340     -0.00012558     -0.00002789
vibration 61
    -0.00000762      0.00009356     -0.00004849
    -0.00000499     -0.00000178     -0.00000334
    -0.00085752     -0.00079570      0.00041994
    -0.00003683     -0.00001645     -0.00000207
    -0.00012155      0.00030935     -0.00016484
     0.00025565      0.00039248     -0.00022771
     0.00001363     -0.00000485     -0.00000639
     0.00000885      0.00000151      0.00000091
     0.00056149      0.00003270      0.00131302
     0.03524731     -0.07397487      0.04733887
     0.00031439     -0.00020857      0.00001329
     0.00001425      0.00031111     -0.00003189
    -0.00006994     -0.00003940      0.00000219
     0.00004489     -0.00002823      0.00000226
     0.00317199      0.00116114     -0.00472794
     0.05817361     -0.00495458     -0.29915301
     0.00100788      0.00045692     -0.00006077
    -0.00263911      0.00151694      0.00023457
    -0.00721552     -0.00284702     -0.01101235
    -0.51398467      0.61681202     -0.40149557
     0.04385971      0.26618740      0.13881333
    -0.00029692     -0.00356150      0.00038587
    -0.00059990      0.00043356     -0.00003012
    -0.00314493      0.00228348     -0.00011360
vibration 62
     0.00000913     -0.00000054     -0.00000914
     0.00003272     -0.00000957      0.00006654
    -0.00009557      0.00000541     -0.00002044
    -0.00018383      0.00111185     -0.00040805
     0.00003804     -0.00000693      0.00001712
     0.00002832      0.00000114      0.00001275
     0.00020257     -0.00002002      0.00026305
     0.00016128     -0.00039759      0.00025802
    -0.04896672      0.00131651     -0.08095987
     0.00049178     -0.00123154      0.00054390
     0.00004219     -0.00004401      0.00000135
     0.00001863      0.00002447     -0.00000542
    -0.00016961     -0.00005471      0.00000339
     0.00011916     -0.00011429      0.00000312
    -0.17073610     -0.05671701      0.24044172
     0.00071025     -0.00009124     -0.00332927
     0.00197976      0.00085490     -0.00010685
     0.27339609     -0.15463266     -0.01473553
     0.47624338      0.18971188      0.73413716
    -0.00751258      0.00904431     -0.00590686
     0.00095973      0.00555851      0.00273395
    -0.00004009     -0.00046726      0.00004349
    -0.00141069      0.00118340     -0.00010673
    -0.00053261      0.00032531     -0.00003092
vibration 63
     0.00018669      0.00007983     -0.00003008
    -0.00027465     -0.00041004      0.00002546
    -0.00008648     -0.00013082      0.00003670
     0.00015543      0.00000889      0.00010576
     0.00007025      0.00006196     -0.00000147
     0.00001453      0.00004919     -0.00001123
    -0.00002139     -0.00000549     -0.00001212
    -0.00007936     -0.00000025     -0.00005687
     0.00013404      0.00001294      0.00017148
    -0.00019142      0.00026360     -0.00017193
     0.00784437     -0.00724056      0.00043246
     0.00673792      0.05354542     -0.00559467
    -0.05483716     -0.02502355      0.00324849
     0.01845714     -0.01168291      0.00093435
     0.00022974      0.00001904     -0.00026591
    -0.00007392      0.00005734      0.00066822
     0.64657968      0.28498865     -0.03706557
    -0.00071455      0.00042334      0.00004228
    -0.00113549     -0.00046019     -0.00175847
     0.00215920     -0.00253590      0.00166050
    -0.00001876     -0.00054943     -0.00033366
    -0.06438267     -0.62936411      0.06537198
    -0.21369745      0.15407958     -0.01297263
    -0.10824206      0.07947358     -0.00402486
vibration 64
    -0.00044664      0.00016961      0.00002285
    -0.00071762     -0.00078112      0.00004350
    -0.00006680      0.00011983     -0.00003071
     0.00028487     -0.00021085      0.00017921
    -0.00005890     -0.00010299      0.00000874
     0.00000991     -0.00002986      0.00001128
    -0.00001505      0.00004911     -0.00000029
    -0.00017052      0.00007282     -0.00011529
     0.00006879      0.00001556      0.00013708
     0.00017421     -0.00013993      0.00012343
    -0.01214189      0.01149341     -0.00068395
    -0.00431102     -0.06057157      0.00630798
    -0.03973228     -0.01379139      0.00188311
     0.03540411     -0.02384335      0.00194096
     0.00023777      0.00007180     -0.00031851
    -0.00001592     -0.00004682     -0.00018575
     0.43535262      0.18615932     -0.02429041
    -0.00026485      0.00020779      0.00003731
    -0.00075702     -0.00025068     -0.00116399
    -0.00151406      0.00180601     -0.00117950
    -0.00014809     -0.00029867     -0.00004690
     0.06545208      0.68386009     -0.07102211
    -0.40332397      0.29239174     -0.02464579
     0.16451219     -0.12141095      0.00617556
vibration 65
     0.00029304     -0.00065418      0.00005264
     0.00239091      0.00139519     -0.00011225
     0.00002807      0.00019092     -0.00006484
    -0.00054210      0.00049233     -0.00029901
    -0.00009498     -0.00007941      0.00000706
    -0.00001630     -0.00005282      0.00002321
    -0.00001219     -0.00017371     -0.00002987
     0.00027936     -0.00018382      0.00022101
    -0.00002905      0.00006410     -0.00007824
     0.00013316     -0.00007214      0.00004337
    -0.01058451      0.00868897     -0.00046762
     0.00069807     -0.01782491      0.00180985
    -0.04150682     -0.02034942      0.00259267
    -0.05759103      0.04418949     -0.00372195
    -0.00033838     -0.00015085      0.00048342
    -0.00008366     -0.00005895      0.00020250
     0.46317407      0.20571656     -0.02655069
     0.00060190     -0.00052866     -0.00001073
     0.00005306     -0.00012994      0.00014518
    -0.00101784      0.00114019     -0.00075363
    -0.00014780     -0.00030234     -0.00007291
     0.01567346      0.19084973     -0.01981967
     0.65873573     -0.48518190      0.04089323
     0.13145002     -0.09552232      0.00489108
vibration 66
    -0.00083360     -0.00277197      0.00033558
     0.00038190     -0.00048115      0.00003668
    -0.00064300      0.00065417     -0.00013592
     0.00001231     -0.00017151      0.00001864
    -0.00008265     -0.00044420      0.00007593
     0.00018613      0.00000818     -0.00004614
     0.00001345      0.00005862      0.00002088
    -0.00004115      0.00007341     -0.00004312
    -0.00000833     -0.00004899     -0.00004406
     0.00023531     -0.00019931      0.00014305
    -0.06840379      0.04838223     -0.00234508
     0.00498516      0.02471069     -0.00264332
     0.00828166      0.00242156     -0.00035167
     0.00489719     -0.00414602      0.00035155
    -0.00000370      0.00003474      0.00001145
     0.00000758     -0.00002994     -0.00006873
    -0.08080471     -0.03394013      0.00447353
    -0.00029212      0.00021927     -0.00002481
     0.00036781      0.00018671      0.00054295
    -0.00182361      0.00218021     -0.00147525
    -0.00033069     -0.00048061     -0.00014600
    -0.02923862     -0.26503524      0.02762367
    -0.05566867      0.04146356     -0.00349858
     0.77496283     -0.55359816      0.02762468
[INT]
    0.590962
    0.759205
    4.323904
    2.876823
    1.636924
    1.954958
    0.139467
    0.794797
    1.047469
    1.689844
    8.922150
    4.651306
   14.428141
   10.831414
    1.244391
    0.777546
    2.709022
    4.466066
    4.543013
    6.438184
    8.643048
   78.065570
   19.669835
    5.546314
   11.157511
    1.081310
    0.727743
   14.010655
    2.871628
    6.408419
    0.423273
   16.564347
   95.132176
  157.303906
   56.376997
    1.574460
    0.675282
    2.302946
   39.687543
   37.052879
  188.668111
  387.457344
  173.313737
   24.855226
   10.933715
   19.471540
    9.490654
    6.622961
   12.192041
   11.302601
    8.691435
   12.814517
   12.753122
    6.375972
  253.111459
  299.728714
   28.715963
   40.955852
   17.228759
   14.467809
   13.776976
   13.013063
    1.589293
    8.704334
    7.588568
    3.373292

======= END OF MOLDEN-FORMATTED INPUT FILE =======


        *************************************************************
        *                                                           *
        *  Thank you very much for using Q-Chem.  Have a nice day.  *
        *                                                           *
        *************************************************************


