r0169.ten.osc.edu 10.25.155
Q-Chem Developer Version! Running on 10.25.155.*
                  Welcome to Q-Chem
     A Quantum Leap Into The Future Of Chemistry


 Q-Chem 5.0, Q-Chem, Inc., Pleasanton, CA (2017)

 Yihan Shao,  Zhengting Gan,  E. Epifanovsky,  A. T. B. Gilbert,  M. Wormit,  
 J. Kussmann,  A. W. Lange,  A. Behn,  Jia Deng,  Xintian Feng,  D. Ghosh,  
 M. Goldey,  P. R. Horn,  L. D. Jacobson,  I. Kaliman,  T. Kus,  A. Landau,  
 Jie Liu,  E. I. Proynov,  R. M. Richard,  R. P. Steele,  E. J. Sundstrom,  
 H. L. Woodcock III,  P. M. Zimmerman,  D. Zuev,  B. Albrecht,  E. Alguire,  
 S. A. Baeppler,  Z. Benda,  Y. A. Bernard,  E. J. Berquist,  K. B. Bravaya,  
 D. Casanova,  Chun-Min Chang,  Yunqing Chen,  A. Chien,  K. D. Closser,  
 M. P. Coons,  S. Dasgupta,  M. Diedenhofen,  Hainam Do,  R. G. Edgar,  
 Po-Tung Fang,  S. Fatehi,  Qingguo Feng,  Qinghui Ge,  A. Ghysels,  
 J. Gomes,  J. Gonthier,  A. Gunina,  M. W. D. Hanson-Heine,  
 P. H. P. Harbach,  A. W. Hauser,  J. E. Herr,  E. G. Hohenstein,  
 Z. C. Holden,  Kerwin Hui,  T.-C. Jagau,  Hyunjun Ji,  B. Kaduk,  
 K. Khistyaev,  Jaehoon Kim,  P. Klunzinger,  K. Koh,  D. Kosenkov,  
 T. Kowalczyk,  C. M. Krauter,  A. Kunitsa,  Ka Un Lao,  A. Laurent,  
 K. V. Lawler,  Joonho Lee,  D. Lefrancois,  S. Lehtola,  D. S. Levine,  
 Yi-Pei Li,  You-Sheng Lin,  Fenglai Liu,  E. Livshits,  A. Luenser,  
 P. Manohar,  E. Mansoor,  S. F. Manzer,  Shan-Ping Mao,  Yuezhi Mao,  
 N. Mardirossian,  A. V. Marenich,  L. A. Martinez-Martinez,  S. A. Maurer,  
 N. J. Mayhall,  S. C. McKenzie,  J.-M. Mewes,  A. F. Morrison,  K. Nanda,  
 T. S. Nguyen-Beck,  R. Olivares-Amaya,  J. A. Parkhill,  T. M. Perrine,  
 F. Plasser,  S. Prager,  A. Prociuk,  D. R. Rehn,  F. Rob,  M. Schneider,  
 N. Sergueev,  S. M. Sharada,  S. Sharma,  D. W. Small,  T. Stauch,  
 T. Stein,  Yu-Chuan Su,  A. J. W. Thom,  T. Tsuchimochi,  L. Vogt,  
 O. Vydrov,  M. A. Watson,  J. Wenzel,  M. de Wergifosse,  T. A. Wesolowski,  
 A. White,  J. Witte,  A. Yamada,  Jun Yang,  K. Yao,  S. Yeganeh,  
 S. R. Yost,  Zhi-Qiang You,  A. Zech,  Igor Ying Zhang,  Xing Zhang,  
 Yan Zhao,  Ying Zhu,  B. R. Brooks,  G. K. L. Chan,  C. J. Cramer,  
 M. S. Gordon,  W. J. Hehre,  A. Klamt,  M. W. Schmidt,  C. D. Sherrill,  
 D. G. Truhlar,  A. Aspuru-Guzik,  R. Baer,  A. T. Bell,  N. A. Besley,  
 Jeng-Da Chai,  A. Dreuw,  B. D. Dunietz,  T. R. Furlani,  Chao-Ping Hsu,  
 Yousung Jung,  Jing Kong,  D. S. Lambrecht,  WanZhen Liang,  C. Ochsenfeld,  
 V. A. Rassolov,  L. V. Slipchenko,  J. E. Subotnik,  T. Van Voorhis,  
 J. M. Herbert,  A. I. Krylov,  P. M. W. Gill,  M. Head-Gordon

 Contributors to earlier versions of Q-Chem not listed above: 
 R. D. Adamson,  B. Austin,  J. Baker,  G. J. O. Beran,  K. Brandhorst,  
 S. T. Brown,  E. F. C. Byrd,  A. K. Chakraborty,  C.-L. Cheng,  
 Siu Hung Chien,  D. M. Chipman,  D. L. Crittenden,  H. Dachsel,  
 R. A. DiStasio Jr.,  R. J. Doerksen,  A. D. Dutoi,  L. Fusti-Molnar,  
 W. A. Goddard III,  A. Golubeva-Zadorozhnaya,  S. R. Gwaltney,  G. Hawkins,  
 A. Heyden,  S. Hirata,  G. Kedziora,  F. J. Keil,  C. Kelley,  Jihan Kim,  
 R. A. King,  R. Z. Khaliullin,  P. P. Korambath,  W. Kurlancheek,  
 A. M. Lee,  M. S. Lee,  S. V. Levchenko,  Ching Yeh Lin,  D. Liotard,  
 R. C. Lochan,  I. Lotan,  P. E. Maslen,  N. Nair,  D. P. O'Neill,  
 D. Neuhauser,  E. Neuscamman,  C. M. Oana,  R. Olson,  B. Peters,  
 R. Peverati,  P. A. Pieniazek,  Y. M. Rhee,  J. Ritchie,  M. A. Rohrdanz,  
 E. Rosta,  N. J. Russ,  H. F. Schaefer III,  N. E. Schultz,  N. Shenvi,  
 A. C. Simmonett,  A. Sodt,  D. Stuck,  K. S. Thanthiriwatte,  V. Vanovschi,  
 Tao Wang,  A. Warshel,  C. F. Williams,  Q. Wu,  X. Xu,  W. Zhang

 Please cite Q-Chem as follows:
 Y. Shao et al., Mol. Phys. 113, 184-215 (2015)
 DOI: 10.1080/00268976.2014.952696

 Q-Chem 5.0.1 for Intel X86 EM64T Linux

 Parts of Q-Chem use Armadillo 5.200.1 (Boston Tea Smuggler).
 http://arma.sourceforge.net/

 Q-Chem begins on Sun Oct 15 23:11:27 2017  

Host: r0169.ten.osc.edu
0

     Scratch files written to /tmp/pbstmp.1310585/01//
Processing $rem in /users/PAS0291/osu6415/.qchemrc.
molden_format             true

Checking the input file for inconsistencies... 	...done.

--------------------------------------------------------------
User input:
--------------------------------------------------------------
$molecule
0 1
C -0.63435919 -0.68751480 -0.10617283
C -0.92215251 0.67925310 0.04126473
C 0.74470149 -1.23119896 -0.36026651
C 0.11369279 1.75461843 0.04234074
O 1.29685057 -1.69889142 0.77267858
O 1.24850097 -1.32257151 -1.45129675
O 1.36367609 1.26240666 0.12038026
O -0.13321683 2.93745292 -0.00854160
C 2.43483574 2.22004176 0.06302845
C 2.61040207 -2.27413949 0.63888890
C -1.67805928 -1.61555947 -0.08642379
C -2.99670711 -1.19948173 0.07191160
C -3.28631149 0.15706520 0.21054064
C -2.25376202 1.08623646 0.19255600
H 2.39613928 2.77402497 -0.87568869
H 2.58104363 -3.14507716 -0.01779311
H -4.31120423 0.48776866 0.33140007
H 2.36664490 2.91697516 0.89931232
H 3.34866442 1.63342271 0.12364634
H 2.90379377 -2.56183477 1.64583020
H 3.30395244 -1.53826373 0.22954981
H -3.79449089 -1.93363916 0.08421259
H -2.45506758 2.14484924 0.29727245
H -1.45441056 -2.66958017 -0.20417724
$end

$rem
sym_ignore      true
jobtype         ts
method          b3lyp
basis           6-311++G(d,p)
dft_d           d3_op
mem_total       62000
MEM_STATIC      4000
ao2mo_disk      350000
max_scf_cycles  200
geom_opt_max_cycles 1000
geom_opt_tol_displacement 1
GEOM_OPT_TOL_GRADIENT       1
GEOM_OPT_TOL_ENERGY         1
$end

--------------------------------------------------------------
 Adding empirical dispersion correction 
 ----------------------------------------------------------------
 Doing -D3(op) with
 s6 =   1.00000
 s8 =   0.78311
 a1 =   0.30000
 a2 =   4.25000
 n  =  10.00000
 -D3 energy without 3body term =     -0.0236445231 hartrees
 ----------------------------------------------------------------
             Standard Nuclear Orientation (Angstroms)
    I     Atom           X                Y                Z
 ----------------------------------------------------------------
    1      C      -0.6343591900    -0.6875148000    -0.1061728300
    2      C      -0.9221525100     0.6792531000     0.0412647300
    3      C       0.7447014900    -1.2311989600    -0.3602665100
    4      C       0.1136927900     1.7546184300     0.0423407400
    5      O       1.2968505700    -1.6988914200     0.7726785800
    6      O       1.2485009700    -1.3225715100    -1.4512967500
    7      O       1.3636760900     1.2624066600     0.1203802600
    8      O      -0.1332168300     2.9374529200    -0.0085416000
    9      C       2.4348357400     2.2200417600     0.0630284500
   10      C       2.6104020700    -2.2741394900     0.6388889000
   11      C      -1.6780592800    -1.6155594700    -0.0864237900
   12      C      -2.9967071100    -1.1994817300     0.0719116000
   13      C      -3.2863114900     0.1570652000     0.2105406400
   14      C      -2.2537620200     1.0862364600     0.1925560000
   15      H       2.3961392800     2.7740249700    -0.8756886900
   16      H       2.5810436300    -3.1450771600    -0.0177931100
   17      H      -4.3112042300     0.4877686600     0.3314000700
   18      H       2.3666449000     2.9169751600     0.8993123200
   19      H       3.3486644200     1.6334227100     0.1236463400
   20      H       2.9037937700    -2.5618347700     1.6458302000
   21      H       3.3039524400    -1.5382637300     0.2295498100
   22      H      -3.7944908900    -1.9336391600     0.0842125900
   23      H      -2.4550675800     2.1448492400     0.2972724500
   24      H      -1.4544105600    -2.6695801700    -0.2041772400
 ----------------------------------------------------------------
 Nuclear Repulsion Energy =   891.7556253343 hartrees
 There are       51 alpha and       51 beta electrons
 Requested basis set is 6-311++G(d,p)
 There are 134 shells and 378 basis functions

 Total QAlloc Memory Limit  62000 MB
 Mega-Array Size      3911 MB
 MEM_STATIC part      4000 MB
 A cutoff of  1.0D-11 yielded   7319 shell pairs
 There are     60224 function pairs (     64560 Cartesian)
 
 -------------------------------------------------------
 OpenMP Integral Computing Module                       
 Release: version 1.0, May 2013, Q-Chem Inc. Pittsburgh 
 -------------------------------------------------------
 Integral Job Info:
 Integral job number is                      11
 Integral operator is                         1
 short-range coefficients                     0
 long-range coefficients              100000000
 Omega coefficients                           0
 if combine SR and LR in K                    0
 Integral screening is                        0
 Integral computing path is                   2
 max size of driver memory is            800000
 size of driver memory is                593474
 size of scratch memory is              2361544
 max col of scratch BK array               1296
 max len of scratch array in speh3          155
 max len of scratch index in speh4           18
 max int batch size is                      520
 min int batch size is                       52
 fixed nKL is                                52
 max L of basis functions is                  2
 order of int derivative is                   0
 number of shells is                        134
 number of basis is                         392
 number of cartesian basis is               392
 number of contracted shell pairs          7319
 number of primitive shell pairs          17244
 maxK2 (contraction) of shell pair           36
 max number of K2 of shell pair               1
 max number of CS2 of shell pair           1303
 max number of PS2 of shell pair           3012
 mem total for path MDJ                  126040
 -------------------------------------------------------
 Smallest overlap matrix eigenvalue = 3.84E-07

 Q-Chem warning in module /fs/scratch/osu6415/qchem-kaunlao-vdw/stvman/mkSTV.C, line 281:

 Overlap eigenvalue is smaller than square root of threshold

 Linear dependence detected in AO basis
 Number of orthogonalized atomic orbitals = 376
 Maximum deviation from orthogonality = 1.726E-10

 Scale SEOQF with 1.000000e-01/1.000000e-01/1.000000e-01

 Standard Electronic Orientation quadrupole field applied
 Nucleus-field energy     =     0.0000000317 hartrees
 Guess from superposition of atomic densities
 Warning:  Energy on first SCF cycle will be non-variational
 A restricted hybrid HF-DFT SCF calculation will be
 performed using Pulay DIIS extrapolation
 Exchange:     0.2000 Hartree-Fock + 0.0800 Slater + 0.7200 B88
 Correlation:  0.1900 VWN1RPA + 0.8100 LYP
 Using SG-1 standard quadrature grid
 Dispersion:   Grimme D3
 SCF converges when DIIS error is below 1.0E-08
 using 20 threads for integral computing
 -------------------------------------------------------
 OpenMP Integral computing Module                
 Release: version 1.0, May 2013, Q-Chem Inc. Pittsburgh 
 -------------------------------------------------------
 -------------------------------------------------------
 OpenMP BLAS3 based DFT computing Module                
 Release: version 1.0, May 2013, Q-Chem Inc. Pittsburgh 
 -------------------------------------------------------
 ---------------------------------------
  Cycle       Energy         DIIS Error
 ---------------------------------------
    1    -691.1660618081      3.36E-02
    2    -687.9439830157      4.32E-03
    3    -687.4197159527      7.74E-03
    4    -688.1687929752      1.74E-03
    5    -688.2114016243      4.75E-04
    6    -688.2139750989      1.69E-04
    7    -688.2143521972      4.40E-05
    8    -688.2143783341      1.52E-05
    9    -688.2143821115      4.40E-06
   10    -688.2143824237      1.47E-06
   11    -688.2143824606      3.89E-07
   12    -688.2143824617      2.55E-07
   13    -688.2143824625      3.98E-08
   14    -688.2143824624      1.58E-08
   15    -688.2143824620      3.94E-09 Convergence criterion met
 ---------------------------------------
 SCF time:  CPU 533.48 s  wall 30.19 s
 SCF   energy in the final basis set = -688.21438246
 Total energy in the final basis set = -688.21438246
 
 --------------------------------------------------------------
 
                    Orbital Energies (a.u.)
 --------------------------------------------------------------
 
 Alpha MOs
 -- Occupied --
-19.179 -19.179 -19.121 -19.119 -10.314 -10.313 -10.233 -10.233
-10.215 -10.210 -10.199 -10.198 -10.196 -10.194  -1.123  -1.118
 -1.033  -1.032  -0.887  -0.797  -0.785  -0.743  -0.734  -0.657
 -0.637  -0.594  -0.580  -0.555  -0.522  -0.510  -0.497  -0.490
 -0.486  -0.481  -0.467  -0.454  -0.438  -0.433  -0.419  -0.407
 -0.391  -0.383  -0.380  -0.366  -0.363  -0.324  -0.315  -0.300
 -0.293  -0.277  -0.271
 -- Virtual --
 -0.066  -0.034  -0.012  -0.007  -0.004   0.004   0.014   0.021
  0.027   0.032   0.036   0.040   0.041   0.047   0.056   0.058
  0.068   0.078   0.078   0.087   0.093   0.096   0.101   0.107
  0.112   0.115   0.118   0.120   0.123   0.128   0.131   0.133
  0.137   0.145   0.146   0.148   0.149   0.152   0.153   0.158
  0.169   0.173   0.174   0.183   0.187   0.188   0.194   0.198
  0.199   0.210   0.214   0.219   0.222   0.235   0.244   0.248
  0.256   0.258   0.258   0.262   0.272   0.278   0.283   0.292
  0.296   0.297   0.301   0.308   0.310   0.314   0.316   0.328
  0.333   0.338   0.351   0.356   0.361   0.366   0.378   0.379
  0.382   0.388   0.391   0.396   0.406   0.421   0.435   0.447
  0.465   0.482   0.487   0.496   0.511   0.514   0.519   0.539
  0.540   0.551   0.554   0.564   0.580   0.588   0.594   0.596
  0.611   0.620   0.626   0.632   0.645   0.648   0.652   0.662
  0.668   0.672   0.688   0.692   0.703   0.718   0.725   0.730
  0.733   0.749   0.758   0.770   0.784   0.800   0.834   0.843
  0.847   0.868   0.871   0.883   0.905   0.919   0.942   0.951
  0.967   0.979   1.002   1.003   1.037   1.039   1.050   1.059
  1.061   1.070   1.077   1.098   1.110   1.128   1.140   1.163
  1.177   1.208   1.227   1.248   1.255   1.286   1.290   1.306
  1.334   1.342   1.362   1.381   1.395   1.414   1.425   1.431
  1.437   1.453   1.493   1.498   1.512   1.519   1.528   1.539
  1.555   1.558   1.563   1.574   1.582   1.621   1.628   1.642
  1.656   1.675   1.693   1.699   1.708   1.712   1.726   1.731
  1.749   1.755   1.771   1.806   1.814   1.826   1.838   1.870
  1.882   1.926   1.929   1.937   1.942   1.951   1.965   1.968
  2.001   2.017   2.033   2.045   2.072   2.089   2.109   2.122
  2.125   2.171   2.213   2.216   2.275   2.300   2.331   2.399
  2.424   2.439   2.458   2.463   2.475   2.496   2.504   2.517
  2.532   2.555   2.564   2.598   2.606   2.629   2.652   2.661
  2.675   2.699   2.724   2.744   2.764   2.765   2.787   2.793
  2.804   2.826   2.833   2.853   2.854   2.869   2.883   2.891
  2.904   2.925   2.958   3.004   3.037   3.038   3.071   3.075
  3.098   3.112   3.169   3.194   3.223   3.236   3.244   3.270
  3.291   3.352   3.374   3.391   3.401   3.526   3.539   3.551
  3.589   3.624   3.640   3.753   3.770   3.776   3.811   3.867
  3.879   4.022   4.037   4.047   4.070   4.107   4.150   4.174
  4.254   4.360   4.834   5.002   5.046   5.058   5.153   5.225
  5.231   5.395   5.432   5.614   5.668   5.856   5.874  23.573
 23.848  23.854  23.918  23.929  23.945  23.947  24.057  24.084
 24.173  49.903  49.911  50.003  50.040
 --------------------------------------------------------------
 
          Ground-State Mulliken Net Atomic Charges

     Atom                 Charge (a.u.)
  ----------------------------------------
      1 C                     0.589354
      2 C                     0.634266
      3 C                    -1.061410
      4 C                    -0.192228
      5 O                     0.074023
      6 O                    -0.115904
      7 O                    -0.119967
      8 O                    -0.257936
      9 C                    -0.207238
     10 C                    -0.212045
     11 C                    -0.057081
     12 C                    -0.224405
     13 C                    -0.252318
     14 C                    -0.326084
     15 H                     0.190334
     16 H                     0.174244
     17 H                     0.172242
     18 H                     0.187976
     19 H                     0.138116
     20 H                     0.158392
     21 H                     0.171160
     22 H                     0.169384
     23 H                     0.194918
     24 H                     0.172205
  ----------------------------------------
  Sum of atomic charges =     0.000000

 -----------------------------------------------------------------
                    Cartesian Multipole Moments
 -----------------------------------------------------------------
    Charge (ESU x 10^10)
                -0.0000
    Dipole Moment (Debye)
         X       0.5463      Y      -1.8376      Z       1.8335
       Tot       2.6527
    Quadrupole Moments (Debye-Ang)
        XX     -62.9213     XY       3.6530     YY     -81.1247
        XZ       3.1610     YZ      -1.9397     ZZ     -87.9855
    Octopole Moments (Debye-Ang^2)
       XXX      19.9574    XXY       0.1605    XYY      22.5614
       YYY     -46.1695    XXZ       9.9240    XYZ      -8.7867
       YYZ       2.7664    XZZ      10.1336    YZZ      10.0951
       ZZZ       1.1207
    Hexadecapole Moments (Debye-Ang^3)
      XXXX   -1688.2536   XXXY      12.6540   XXYY    -467.5271
      XYYY      27.9622   YYYY   -1502.7717   XXXZ       2.4575
      XXYZ     -14.0935   XYYZ      11.8330   YYYZ       0.6877
      XXZZ    -381.9708   XYZZ       6.1226   YYZZ    -281.2065
      XZZZ      13.7502   YZZZ     -14.5620   ZZZZ    -230.2207
 -----------------------------------------------------------------
 Calculating analytic gradient of the SCF energy
 Gradient of SCF Energy
            1           2           3           4           5           6
    1  -0.0001447   0.0000625   0.0002182  -0.0000013   0.0000183  -0.0001544
    2  -0.0001583   0.0000013   0.0006594  -0.0000714  -0.0001209  -0.0004068
    3  -0.0004654   0.0003071   0.0003247  -0.0001420   0.0000005  -0.0000996
            7           8           9          10          11          12
    1   0.0000109   0.0000005  -0.0000490   0.0000248  -0.0000386   0.0000247
    2   0.0000531   0.0000158   0.0000492   0.0000484  -0.0000187  -0.0000239
    3  -0.0000542   0.0001605  -0.0000017  -0.0000958  -0.0000025   0.0000033
           13          14          15          16          17          18
    1   0.0000090   0.0000145   0.0000159  -0.0000230   0.0000074   0.0000092
    2   0.0000217   0.0000359  -0.0000435  -0.0000226   0.0000089  -0.0000229
    3   0.0000130  -0.0000235  -0.0000173   0.0000432   0.0000118  -0.0000109
           19          20          21          22          23          24
    1   0.0000156   0.0000146  -0.0000193   0.0000005  -0.0000198   0.0000033
    2  -0.0000084   0.0000138  -0.0000111   0.0000076  -0.0000230   0.0000164
    3  -0.0000015   0.0000092  -0.0000031   0.0000200   0.0000141   0.0000101
 Max gradient component =       6.594E-04
 RMS gradient           =       1.319E-04
 Gradient time:  CPU 167.20 s  wall 13.49 s
 Geometry Optimization Parameters
   NAtoms,    NIC,     NZ,  NCons,   NDum,   NFix, NCnnct, MaxDiis
       24     152       0       0       0       0       0       0


** GEOMETRY OPTIMIZATION IN DELOCALIZED INTERNAL COORDINATES **
   Searching for a Transition State

   Optimization Cycle:   1

                       Coordinates (Angstroms)
     ATOM                X               Y               Z
      1  C        -0.6343591900   -0.6875148000   -0.1061728300
      2  C        -0.9221525100    0.6792531000    0.0412647300
      3  C         0.7447014900   -1.2311989600   -0.3602665100
      4  C         0.1136927900    1.7546184300    0.0423407400
      5  O         1.2968505700   -1.6988914200    0.7726785800
      6  O         1.2485009700   -1.3225715100   -1.4512967500
      7  O         1.3636760900    1.2624066600    0.1203802600
      8  O        -0.1332168300    2.9374529200   -0.0085416000
      9  C         2.4348357400    2.2200417600    0.0630284500
     10  C         2.6104020700   -2.2741394900    0.6388889000
     11  C        -1.6780592800   -1.6155594700   -0.0864237900
     12  C        -2.9967071100   -1.1994817300    0.0719116000
     13  C        -3.2863114900    0.1570652000    0.2105406400
     14  C        -2.2537620200    1.0862364600    0.1925560000
     15  H         2.3961392800    2.7740249700   -0.8756886900
     16  H         2.5810436300   -3.1450771600   -0.0177931100
     17  H        -4.3112042300    0.4877686600    0.3314000700
     18  H         2.3666449000    2.9169751600    0.8993123200
     19  H         3.3486644200    1.6334227100    0.1236463400
     20  H         2.9037937700   -2.5618347700    1.6458302000
     21  H         3.3039524400   -1.5382637300    0.2295498100
     22  H        -3.7944908900   -1.9336391600    0.0842125900
     23  H        -2.4550675800    2.1448492400    0.2972724500
     24  H        -1.4544105600   -2.6695801700   -0.2041772400
   Point Group: c1    Number of degrees of freedom:    66


   Energy is   -688.214382462


 Attempting to Generate Delocalized Internal Coordinates

 66 Hessian modes will be used to form the next step
  Hessian Eigenvalues:
     0.008652    0.010090    0.010325    0.010624    0.013785    0.014284
     0.018082    0.018490    0.022158    0.022833    0.022975    0.023012
     0.023089    0.023148    0.023348    0.023414    0.023570    0.101366
     0.101472    0.105989    0.106240    0.159994    0.159999    0.160000
     0.160000    0.160000    0.160000    0.160000    0.160000    0.160000
     0.160000    0.220000    0.224860    0.244666    0.249463    0.249591
     0.249992    0.249997    0.250000    0.250000    0.250000    0.250000
     0.319630    0.331107    0.346792    0.347077    0.347260    0.347341
     0.350912    0.350966    0.354857    0.355269    0.355525    0.356750
     0.395556    0.398662    0.418535    0.421814    0.454558    0.461384
     0.466296    0.471640    0.559535    0.562499    1.002378    1.022525
**WARNING** Hessian does not have the Desired Local Structure

 Transition State Search - Taking P-RFO Step
 Searching for Lamda that Maximizes Along the Lowest mode
 Value Taken    Lamda =   0.00867083
 Searching for Lamda that Minimizes Along All other modes
 Value Taken    Lamda =  -0.00001532
 Calculated Step too Large.  Step scaled by  0.014016
 Step Taken.  Stepsize is  0.300000

                             Maximum     Tolerance    Cnvgd?
         Gradient           0.000269      0.000001      NO
         Displacement       0.127767      0.000001      NO
         Energy change     *********      0.000000      NO


 New Cartesian Coordinates Obtained by Inverse Iteration

 Displacement from previous Coordinates is:  0.872387
 Adding empirical dispersion correction 
 ----------------------------------------------------------------
 Doing -D3(op) with
 s6 =   1.00000
 s8 =   0.78311
 a1 =   0.30000
 a2 =   4.25000
 n  =  10.00000
 -D3 energy without 3body term =     -0.0237809688 hartrees
 ----------------------------------------------------------------
             Standard Nuclear Orientation (Angstroms)
    I     Atom           X                Y                Z
 ----------------------------------------------------------------
    1      C      -0.6568013820    -0.7075589793    -0.1215469827
    2      C      -0.9267783999     0.6605150858     0.0460917903
    3      C       0.7151927162    -1.2654133017    -0.3830746132
    4      C       0.1230583882     1.7220804211     0.0637079792
    5      O       1.3345155307    -1.5858043885     0.7662543221
    6      O       1.1614443171    -1.4846634180    -1.4809351557
    7      O       1.3664301364     1.2124253687     0.1351219534
    8      O      -0.1082994234     2.9086719250     0.0301697636
    9      C       2.4500815420     2.1566843309     0.0925414687
   10      C       2.6481125157    -2.1607006065     0.6313994534
   11      C      -1.7125828419    -1.6220335406    -0.1162067192
   12      C      -3.0257811937    -1.1911170771     0.0476385339
   13      C      -3.2976936387     0.1668903292     0.2063422154
   14      C      -2.2530513889     1.0826147249     0.2027454322
   15      H       2.4193114080     2.7249907019    -0.8378705080
   16      H       2.5977146736    -3.1056199245     0.0880636297
   17      H      -4.3182537366     0.5091582496     0.3315894841
   18      H       2.3904274518     2.8419735117     0.9390387834
   19      H       3.3561055610     1.5573051404     0.1449210515
   20      H       2.9994325996    -2.3203671916     1.6481875551
   21      H       3.3069165190    -1.4738882941     0.0981538535
   22      H      -3.8331204254    -1.9148574470     0.0485654499
   23      H      -2.4405484549     2.1420981754     0.3231241579
   24      H      -1.5026760039    -2.6770208956    -0.2495697384
 ----------------------------------------------------------------
 Nuclear Repulsion Energy =   893.0361377051 hartrees
 There are       51 alpha and       51 beta electrons
 Applying Cartesian multipole field
    Component          Value
    ---------          -----
     (2,0,0)        1.00000E-11
     (0,2,0)        2.00000E-11
     (0,0,2)       -3.00000E-11
 Nucleus-field energy     =     0.0000000311 hartrees
 Requested basis set is 6-311++G(d,p)
 There are 134 shells and 378 basis functions
 A cutoff of  1.0D-11 yielded   7334 shell pairs
 There are     60367 function pairs (     64717 Cartesian)
 Smallest overlap matrix eigenvalue = 3.89E-07

 Q-Chem warning in module /fs/scratch/osu6415/qchem-kaunlao-vdw/stvman/mkSTV.C, line 281:

 Overlap eigenvalue is smaller than square root of threshold

 Linear dependence detected in AO basis
 Number of orthogonalized atomic orbitals = 376
 Maximum deviation from orthogonality = 1.516E-10
 Guess MOs from SCF MO coefficient file
 Reading MOs from coefficient file
 Reading MOs from coefficient file
 A restricted hybrid HF-DFT SCF calculation will be
 performed using Pulay DIIS extrapolation
 Exchange:     0.2000 Hartree-Fock + 0.0800 Slater + 0.7200 B88
 Correlation:  0.1900 VWN1RPA + 0.8100 LYP
 Using SG-1 standard quadrature grid
 Dispersion:   Grimme D3
 SCF converges when DIIS error is below 1.0E-08
 Geometry optimization detected.  Setting ReadMinima to 0
 Setting SaveMinima to 0
 using 20 threads for integral computing
 -------------------------------------------------------
 OpenMP Integral computing Module                
 Release: version 1.0, May 2013, Q-Chem Inc. Pittsburgh 
 -------------------------------------------------------
 -------------------------------------------------------
 OpenMP BLAS3 based DFT computing Module                
 Release: version 1.0, May 2013, Q-Chem Inc. Pittsburgh 
 -------------------------------------------------------
 ---------------------------------------
  Cycle       Energy         DIIS Error
 ---------------------------------------
    1    -688.1775104143      1.79E-03
    2    -688.2127637076      2.46E-04
    3    -688.2114214611      3.94E-04
    4    -688.2138256023      1.10E-04
    5    -688.2139818157      2.48E-05
    6    -688.2139871502      1.44E-05
    7    -688.2139901980      4.08E-06
    8    -688.2139904363      1.71E-06
    9    -688.2139904755      4.24E-07
   10    -688.2139904775      2.08E-07
   11    -688.2139904782      6.95E-08
   12    -688.2139904779      2.42E-08
   13    -688.2139904769      4.56E-09 Convergence criterion met
 ---------------------------------------
 SCF time:  CPU 476.60 s  wall 26.61 s
 SCF   energy in the final basis set = -688.21399048
 Total energy in the final basis set = -688.21399048
 
 --------------------------------------------------------------
 
                    Orbital Energies (a.u.)
 --------------------------------------------------------------
 
 Alpha MOs
 -- Occupied --
-19.180 -19.177 -19.122 -19.119 -10.315 -10.314 -10.234 -10.233
-10.215 -10.211 -10.199 -10.198 -10.196 -10.194  -1.124  -1.118
 -1.033  -1.033  -0.887  -0.798  -0.785  -0.743  -0.734  -0.657
 -0.637  -0.594  -0.580  -0.555  -0.522  -0.511  -0.498  -0.490
 -0.486  -0.480  -0.467  -0.454  -0.439  -0.433  -0.420  -0.407
 -0.391  -0.383  -0.380  -0.366  -0.364  -0.324  -0.315  -0.301
 -0.294  -0.278  -0.271
 -- Virtual --
 -0.066  -0.034  -0.012  -0.007  -0.004   0.004   0.014   0.020
  0.026   0.032   0.036   0.040   0.042   0.046   0.055   0.057
  0.067   0.076   0.078   0.089   0.093   0.096   0.101   0.107
  0.112   0.115   0.118   0.121   0.122   0.128   0.131   0.133
  0.138   0.145   0.145   0.148   0.150   0.152   0.154   0.158
  0.170   0.173   0.174   0.184   0.186   0.187   0.194   0.195
  0.200   0.212   0.214   0.219   0.220   0.234   0.244   0.248
  0.256   0.258   0.260   0.263   0.270   0.277   0.285   0.289
  0.295   0.298   0.300   0.308   0.309   0.310   0.320   0.329
  0.335   0.337   0.349   0.357   0.359   0.366   0.374   0.380
  0.383   0.387   0.395   0.397   0.409   0.424   0.436   0.451
  0.469   0.479   0.489   0.495   0.509   0.516   0.518   0.538
  0.542   0.549   0.553   0.567   0.579   0.587   0.591   0.597
  0.610   0.620   0.624   0.630   0.642   0.649   0.651   0.663
  0.669   0.672   0.688   0.692   0.706   0.717   0.727   0.728
  0.737   0.749   0.759   0.774   0.781   0.802   0.833   0.844
  0.848   0.868   0.872   0.884   0.905   0.922   0.945   0.952
  0.965   0.979   1.000   1.005   1.035   1.040   1.046   1.057
  1.063   1.066   1.079   1.099   1.109   1.129   1.143   1.158
  1.172   1.206   1.223   1.251   1.262   1.287   1.289   1.305
  1.330   1.342   1.370   1.388   1.401   1.411   1.429   1.433
  1.441   1.452   1.495   1.499   1.510   1.521   1.527   1.543
  1.555   1.559   1.562   1.572   1.583   1.623   1.629   1.642
  1.655   1.677   1.693   1.698   1.707   1.714   1.726   1.736
  1.746   1.754   1.768   1.808   1.817   1.822   1.842   1.874
  1.888   1.923   1.928   1.933   1.942   1.950   1.966   1.969
  2.002   2.019   2.033   2.044   2.069   2.089   2.107   2.122
  2.130   2.166   2.210   2.225   2.274   2.299   2.329   2.397
  2.425   2.439   2.459   2.463   2.475   2.496   2.501   2.523
  2.529   2.553   2.569   2.599   2.608   2.631   2.653   2.662
  2.673   2.699   2.724   2.741   2.762   2.768   2.787   2.790
  2.803   2.827   2.834   2.849   2.853   2.868   2.881   2.890
  2.904   2.925   2.961   3.000   3.035   3.043   3.069   3.076
  3.098   3.112   3.169   3.197   3.221   3.240   3.254   3.265
  3.291   3.352   3.372   3.388   3.403   3.525   3.538   3.553
  3.588   3.627   3.641   3.748   3.770   3.776   3.814   3.864
  3.877   4.020   4.034   4.043   4.072   4.105   4.150   4.174
  4.254   4.357   4.834   5.004   5.041   5.057   5.158   5.224
  5.231   5.399   5.435   5.615   5.667   5.857   5.874  23.573
 23.847  23.855  23.919  23.928  23.945  23.948  24.057  24.084
 24.173  49.901  49.917  50.001  50.039
 --------------------------------------------------------------
 
          Ground-State Mulliken Net Atomic Charges

     Atom                 Charge (a.u.)
  ----------------------------------------
      1 C                     0.386311
      2 C                     0.639108
      3 C                    -1.007923
      4 C                    -0.163616
      5 O                     0.092173
      6 O                    -0.110462
      7 O                    -0.128532
      8 O                    -0.258315
      9 C                    -0.204441
     10 C                    -0.220018
     11 C                     0.012463
     12 C                    -0.199541
     13 C                    -0.276641
     14 C                    -0.295027
     15 H                     0.189607
     16 H                     0.171749
     17 H                     0.171959
     18 H                     0.189087
     19 H                     0.133563
     20 H                     0.159260
     21 H                     0.176713
     22 H                     0.168852
     23 H                     0.195862
     24 H                     0.177810
  ----------------------------------------
  Sum of atomic charges =     0.000000

 -----------------------------------------------------------------
                    Cartesian Multipole Moments
 -----------------------------------------------------------------
    Charge (ESU x 10^10)
                 0.0000
    Dipole Moment (Debye)
         X       0.5973      Y      -1.6223      Z       1.8430
       Tot       2.5270
    Quadrupole Moments (Debye-Ang)
        XX     -62.3618     XY       3.8525     YY     -82.0456
        XZ       3.0182     YZ      -2.5352     ZZ     -88.1102
    Octopole Moments (Debye-Ang^2)
       XXX      22.0850    XXY       1.0819    XYY      19.9902
       YYY     -41.3231    XXZ       9.4564    XYZ      -9.0428
       YYZ       3.9154    XZZ      10.9569    YZZ      12.2918
       ZZZ       2.1443
    Hexadecapole Moments (Debye-Ang^3)
      XXXX   -1703.5685   XXXY       8.4839   XXYY    -468.5717
      XYYY      25.8253   YYYY   -1464.0457   XXXZ      -3.3858
      XXYZ     -17.0859   XYYZ      11.2709   YYYZ     -18.2770
      XXZZ    -384.6706   XYZZ       5.9714   YYZZ    -279.0804
      XZZZ       7.7969   YZZZ     -31.0548   ZZZZ    -234.6190
 -----------------------------------------------------------------
 Calculating analytic gradient of the SCF energy
 Gradient of SCF Energy
            1           2           3           4           5           6
    1   0.0000047   0.0000165  -0.0004027   0.0003431   0.0001792  -0.0000661
    2  -0.0005486   0.0000894   0.0013216  -0.0002311   0.0016414  -0.0011271
    3   0.0003836  -0.0004305  -0.0029854  -0.0001000   0.0006009   0.0004356
            7           8           9          10          11          12
    1  -0.0002598  -0.0000541   0.0001226   0.0004698  -0.0000948  -0.0000565
    2  -0.0005373  -0.0000010  -0.0000381  -0.0002622   0.0000090  -0.0000195
    3   0.0015163   0.0000297   0.0000303  -0.0001688   0.0005407  -0.0003036
           13          14          15          16          17          18
    1  -0.0000219   0.0001390  -0.0000500  -0.0000771   0.0000058  -0.0000140
    2  -0.0000426  -0.0000406  -0.0001511  -0.0000703   0.0000037   0.0000074
    3  -0.0000058   0.0000058  -0.0000144   0.0000842   0.0000416   0.0000219
           19          20          21          22          23          24
    1  -0.0000074   0.0000215  -0.0001682  -0.0000245  -0.0000006  -0.0000046
    2  -0.0000270   0.0000562  -0.0000007   0.0000138  -0.0000361  -0.0000092
    3  -0.0000951   0.0000270   0.0000057  -0.0000343   0.0000847   0.0003300
 Max gradient component =       2.985E-03
 RMS gradient           =       5.247E-04
 Gradient time:  CPU 165.82 s  wall 13.78 s
 Geometry Optimization Parameters
   NAtoms,    NIC,     NZ,  NCons,   NDum,   NFix, NCnnct, MaxDiis
       24     152       0       0       0       0       0       0

 Cartesian Hessian Update
 Hessian Updated using Powell/Murtagh-Sargent Update
  Mixing factors:     0.000027 Powell
                      0.999973 Murtagh-Sargent


** GEOMETRY OPTIMIZATION IN DELOCALIZED INTERNAL COORDINATES **
   Searching for a Transition State

   Optimization Cycle:   2

                       Coordinates (Angstroms)
     ATOM                X               Y               Z
      1  C        -0.6568013820   -0.7075589793   -0.1215469827
      2  C        -0.9267783999    0.6605150858    0.0460917903
      3  C         0.7151927162   -1.2654133017   -0.3830746132
      4  C         0.1230583882    1.7220804211    0.0637079792
      5  O         1.3345155307   -1.5858043885    0.7662543221
      6  O         1.1614443171   -1.4846634180   -1.4809351557
      7  O         1.3664301364    1.2124253687    0.1351219534
      8  O        -0.1082994234    2.9086719250    0.0301697636
      9  C         2.4500815420    2.1566843309    0.0925414687
     10  C         2.6481125157   -2.1607006065    0.6313994534
     11  C        -1.7125828419   -1.6220335406   -0.1162067192
     12  C        -3.0257811937   -1.1911170771    0.0476385339
     13  C        -3.2976936387    0.1668903292    0.2063422154
     14  C        -2.2530513889    1.0826147249    0.2027454322
     15  H         2.4193114080    2.7249907019   -0.8378705080
     16  H         2.5977146736   -3.1056199245    0.0880636297
     17  H        -4.3182537366    0.5091582496    0.3315894841
     18  H         2.3904274518    2.8419735117    0.9390387834
     19  H         3.3561055610    1.5573051404    0.1449210515
     20  H         2.9994325996   -2.3203671916    1.6481875551
     21  H         3.3069165190   -1.4738882941    0.0981538535
     22  H        -3.8331204254   -1.9148574470    0.0485654499
     23  H        -2.4405484549    2.1420981754    0.3231241579
     24  H        -1.5026760039   -2.6770208956   -0.2495697384
   Point Group: c1    Number of degrees of freedom:    66


   Energy is   -688.213990477

 Hessian Updated using Powell/Murtagh-Sargent Update
  Mixing factors:     0.999782 Powell
                      0.000218 Murtagh-Sargent

 60 Hessian modes will be used to form the next step
  Hessian Eigenvalues:
    -0.002170    0.010324    0.010623    0.011596    0.013919    0.015389
     0.018258    0.019039    0.022826    0.022884    0.023008    0.023088
     0.023147    0.023347    0.023408    0.023569    0.028242    0.101366
     0.101472    0.105989    0.106243    0.159994    0.159999    0.160000
     0.160000    0.160000    0.160005    0.220000    0.224878    0.244666
     0.249469    0.249674    0.249992    0.249999    0.250000    0.250615
     0.319632    0.331117    0.346792    0.347078    0.347260    0.347341
     0.350912    0.350966    0.354857    0.355269    0.355525    0.356750
     0.395558    0.398662    0.418558    0.421816    0.454562    0.461385
     0.466296    0.471640    0.559536    0.562500    1.002378    1.022525

 Transition State Search - Taking P-RFO Step
 Searching for Lamda that Maximizes Along the Lowest mode
 Value Taken    Lamda =   0.00000467
 Searching for Lamda that Minimizes Along All other modes
 Value Taken    Lamda =  -0.00090109
 Step Taken.  Stepsize is  0.185822

                             Maximum     Tolerance    Cnvgd?
         Gradient           0.004457      0.000001      NO
         Displacement       0.087254      0.000001      NO
         Energy change      0.000392      0.000000      NO


 New Cartesian Coordinates Obtained by Inverse Iteration

 Displacement from previous Coordinates is:  0.834216
 Adding empirical dispersion correction 
 ----------------------------------------------------------------
 Doing -D3(op) with
 s6 =   1.00000
 s8 =   0.78311
 a1 =   0.30000
 a2 =   4.25000
 n  =  10.00000
 -D3 energy without 3body term =     -0.0236243803 hartrees
 ----------------------------------------------------------------
             Standard Nuclear Orientation (Angstroms)
    I     Atom           X                Y                Z
 ----------------------------------------------------------------
    1      C      -0.6372702445    -0.6958228039    -0.1046354176
    2      C      -0.9169297816     0.6687471331     0.0806556500
    3      C       0.7405895941    -1.2488030980    -0.3463933835
    4      C       0.1199115038     1.7437925188     0.0953227769
    5      O       1.3013666882    -1.6741987051     0.7986953247
    6      O       1.2337492321    -1.3849504492    -1.4376652032
    7      O       1.3728840250     1.2532950296     0.0859213235
    8      O      -0.1289854463     2.9272406988     0.0834724756
    9      C       2.4371738605     2.2175107389     0.0114205879
   10      C       2.6154375339    -2.2504259034     0.6771580165
   11      C      -1.6892762169    -1.6140804424    -0.1368690636
   12      C      -3.0061104118    -1.1940774611     0.0254601412
   13      C      -3.2866169251     0.1582582220     0.2134594384
   14      C      -2.2471936554     1.0795140239     0.2350422169
   15      H       2.3468871587     2.8109388977    -0.8993105046
   16      H       2.5860260441    -3.1395130321     0.0452798062
   17      H      -4.3101832689     0.4925591607     0.3356877907
   18      H       2.4124302168     2.8782240676     0.8789180222
   19      H       3.3544062760     1.6332526647    -0.0017104291
   20      H       2.9124859988    -2.5091008075     1.6908413956
   21      H       3.3067418112    -1.5254328162     0.2449658958
   22      H      -3.8094351894    -1.9219021187     0.0024246896
   23      H      -2.4423561589     2.1362121080     0.3674281791
   24      H      -1.4725761744    -2.6648747261    -0.2911165694
 ----------------------------------------------------------------
 Nuclear Repulsion Energy =   891.6167403366 hartrees
 There are       51 alpha and       51 beta electrons
 Applying Cartesian multipole field
    Component          Value
    ---------          -----
     (2,0,0)        1.00000E-11
     (0,2,0)        2.00000E-11
     (0,0,2)       -3.00000E-11
 Nucleus-field energy     =     0.0000000316 hartrees
 Requested basis set is 6-311++G(d,p)
 There are 134 shells and 378 basis functions
 A cutoff of  1.0D-11 yielded   7318 shell pairs
 There are     60187 function pairs (     64522 Cartesian)
 Smallest overlap matrix eigenvalue = 3.83E-07

 Q-Chem warning in module /fs/scratch/osu6415/qchem-kaunlao-vdw/stvman/mkSTV.C, line 281:

 Overlap eigenvalue is smaller than square root of threshold

 Linear dependence detected in AO basis
 Number of orthogonalized atomic orbitals = 376
 Maximum deviation from orthogonality = 1.031E-10
 Guess MOs from SCF MO coefficient file
 Reading MOs from coefficient file
 Reading MOs from coefficient file
 A restricted hybrid HF-DFT SCF calculation will be
 performed using Pulay DIIS extrapolation
 Exchange:     0.2000 Hartree-Fock + 0.0800 Slater + 0.7200 B88
 Correlation:  0.1900 VWN1RPA + 0.8100 LYP
 Using SG-1 standard quadrature grid
 Dispersion:   Grimme D3
 SCF converges when DIIS error is below 1.0E-08
 Geometry optimization detected.  Setting ReadMinima to 0
 Setting SaveMinima to 0
 using 20 threads for integral computing
 -------------------------------------------------------
 OpenMP Integral computing Module                
 Release: version 1.0, May 2013, Q-Chem Inc. Pittsburgh 
 -------------------------------------------------------
 -------------------------------------------------------
 OpenMP BLAS3 based DFT computing Module                
 Release: version 1.0, May 2013, Q-Chem Inc. Pittsburgh 
 -------------------------------------------------------
 ---------------------------------------
  Cycle       Energy         DIIS Error
 ---------------------------------------
    1    -688.1899855671      1.49E-03
    2    -688.2137297251      1.55E-04
    3    -688.2135295976      2.14E-04
    4    -688.2142147642      5.93E-05
    5    -688.2142602765      2.04E-05
    6    -688.2142645965      1.01E-05
    7    -688.2142660069      3.44E-06
    8    -688.2142661991      1.11E-06
    9    -688.2142662175      3.07E-07
   10    -688.2142662185      1.94E-07
   11    -688.2142662194      4.67E-08
   12    -688.2142662192      1.76E-08
   13    -688.2142662181      4.73E-09 Convergence criterion met
 ---------------------------------------
 SCF time:  CPU 463.21 s  wall 26.31 s
 SCF   energy in the final basis set = -688.21426622
 Total energy in the final basis set = -688.21426622
 
 --------------------------------------------------------------
 
                    Orbital Energies (a.u.)
 --------------------------------------------------------------
 
 Alpha MOs
 -- Occupied --
-19.180 -19.179 -19.121 -19.119 -10.314 -10.313 -10.234 -10.233
-10.215 -10.211 -10.199 -10.198 -10.196 -10.194  -1.123  -1.118
 -1.033  -1.032  -0.887  -0.797  -0.785  -0.743  -0.734  -0.657
 -0.637  -0.594  -0.580  -0.555  -0.522  -0.510  -0.497  -0.490
 -0.486  -0.481  -0.467  -0.454  -0.438  -0.433  -0.420  -0.406
 -0.390  -0.383  -0.380  -0.366  -0.363  -0.324  -0.315  -0.300
 -0.294  -0.278  -0.270
 -- Virtual --
 -0.066  -0.034  -0.012  -0.007  -0.004   0.004   0.014   0.020
  0.027   0.033   0.036   0.039   0.041   0.047   0.056   0.057
  0.068   0.078   0.079   0.086   0.093   0.097   0.101   0.107
  0.111   0.115   0.118   0.120   0.122   0.128   0.131   0.133
  0.138   0.145   0.146   0.148   0.149   0.152   0.153   0.157
  0.170   0.173   0.174   0.183   0.186   0.187   0.195   0.197
  0.200   0.210   0.215   0.219   0.221   0.235   0.245   0.248
  0.255   0.258   0.261   0.262   0.274   0.279   0.284   0.290
  0.296   0.298   0.302   0.306   0.308   0.312   0.318   0.329
  0.334   0.337   0.351   0.355   0.359   0.366   0.377   0.380
  0.382   0.389   0.390   0.396   0.406   0.424   0.436   0.450
  0.465   0.479   0.487   0.496   0.512   0.519   0.520   0.538
  0.541   0.551   0.553   0.565   0.579   0.588   0.594   0.596
  0.610   0.620   0.626   0.630   0.645   0.649   0.652   0.661
  0.668   0.670   0.688   0.693   0.704   0.719   0.726   0.729
  0.734   0.751   0.760   0.773   0.781   0.804   0.834   0.842
  0.847   0.871   0.877   0.887   0.908   0.923   0.948   0.952
  0.965   0.980   0.997   1.004   1.035   1.039   1.048   1.058
  1.067   1.072   1.076   1.098   1.110   1.130   1.132   1.164
  1.168   1.206   1.226   1.249   1.255   1.284   1.289   1.308
  1.333   1.341   1.366   1.379   1.399   1.416   1.426   1.431
  1.437   1.455   1.493   1.499   1.510   1.519   1.529   1.543
  1.555   1.558   1.562   1.572   1.582   1.622   1.629   1.642
  1.655   1.676   1.692   1.699   1.709   1.713   1.727   1.734
  1.750   1.754   1.767   1.807   1.815   1.824   1.839   1.875
  1.888   1.926   1.928   1.934   1.944   1.950   1.966   1.968
  2.002   2.020   2.034   2.044   2.072   2.092   2.107   2.123
  2.126   2.173   2.213   2.223   2.274   2.300   2.329   2.399
  2.424   2.439   2.459   2.464   2.476   2.497   2.502   2.519
  2.529   2.552   2.564   2.599   2.607   2.628   2.654   2.660
  2.672   2.699   2.724   2.744   2.763   2.768   2.786   2.792
  2.803   2.827   2.834   2.850   2.854   2.869   2.882   2.891
  2.905   2.924   2.960   3.001   3.037   3.039   3.070   3.077
  3.100   3.114   3.168   3.196   3.221   3.238   3.248   3.268
  3.290   3.352   3.374   3.390   3.401   3.526   3.539   3.551
  3.589   3.625   3.641   3.756   3.770   3.776   3.812   3.867
  3.880   4.022   4.036   4.046   4.072   4.106   4.152   4.174
  4.255   4.360   4.834   4.998   5.044   5.056   5.154   5.224
  5.232   5.397   5.435   5.616   5.670   5.857   5.875  23.572
 23.848  23.854  23.919  23.929  23.945  23.947  24.056  24.084
 24.174  49.904  49.912  50.001  50.042
 --------------------------------------------------------------
 
          Ground-State Mulliken Net Atomic Charges

     Atom                 Charge (a.u.)
  ----------------------------------------
      1 C                     0.550584
      2 C                     0.591643
      3 C                    -1.086721
      4 C                    -0.152617
      5 O                     0.083249
      6 O                    -0.116459
      7 O                    -0.121623
      8 O                    -0.259673
      9 C                    -0.205760
     10 C                    -0.210214
     11 C                    -0.026424
     12 C                    -0.211822
     13 C                    -0.242813
     14 C                    -0.324641
     15 H                     0.188626
     16 H                     0.173258
     17 H                     0.172756
     18 H                     0.189377
     19 H                     0.140387
     20 H                     0.157929
     21 H                     0.172307
     22 H                     0.168888
     23 H                     0.194584
     24 H                     0.175178
  ----------------------------------------
  Sum of atomic charges =     0.000000

 -----------------------------------------------------------------
                    Cartesian Multipole Moments
 -----------------------------------------------------------------
    Charge (ESU x 10^10)
                 0.0000
    Dipole Moment (Debye)
         X       0.5522      Y      -1.7472      Z       1.7126
       Tot       2.5081
    Quadrupole Moments (Debye-Ang)
        XX     -62.8373     XY       3.8053     YY     -81.3618
        XZ       3.2668     YZ      -2.4759     ZZ     -87.8763
    Octopole Moments (Debye-Ang^2)
       XXX      20.0211    XXY       0.6135    XYY      22.0447
       YYY     -43.9669    XXZ       8.6062    XYZ      -9.8495
       YYZ       0.5529    XZZ      10.3298    YZZ      10.7399
       ZZZ      -0.7932
    Hexadecapole Moments (Debye-Ang^3)
      XXXX   -1690.2274   XXXY      11.8718   XXYY    -468.3087
      XYYY      27.5970   YYYY   -1496.7159   XXXZ       1.2939
      XXYZ     -15.0591   XYYZ      12.8224   YYYZ     -11.7837
      XXZZ    -382.3131   XYZZ       5.5175   YYZZ    -281.3309
      XZZZ      11.8850   YZZZ     -21.2367   ZZZZ    -232.9380
 -----------------------------------------------------------------
 Calculating analytic gradient of the SCF energy
 Gradient of SCF Energy
            1           2           3           4           5           6
    1  -0.0002206   0.0000070   0.0003792  -0.0002301   0.0001097  -0.0003352
    2  -0.0008561   0.0001445   0.0009719   0.0003118  -0.0006209  -0.0004321
    3   0.0000047  -0.0007615   0.0006009   0.0041116  -0.0000926  -0.0001232
            7           8           9          10          11          12
    1   0.0001387   0.0001445  -0.0001727  -0.0001058  -0.0001174   0.0000273
    2   0.0003494  -0.0002284   0.0000733   0.0001937   0.0002058   0.0000119
    3  -0.0013464  -0.0017554  -0.0001318  -0.0000123  -0.0008073   0.0000806
           13          14          15          16          17          18
    1   0.0000112   0.0002146   0.0001327   0.0000317  -0.0000088  -0.0000590
    2  -0.0000895   0.0000359   0.0000290  -0.0000392   0.0000099  -0.0000587
    3   0.0001073   0.0001081  -0.0000361   0.0000232  -0.0000896  -0.0000019
           19          20          21          22          23          24
    1   0.0000394   0.0000124   0.0000536  -0.0000051  -0.0000398  -0.0000074
    2   0.0000245  -0.0000018  -0.0000647   0.0000084   0.0000310  -0.0000095
    3   0.0000478  -0.0000016  -0.0000548   0.0000774  -0.0000475   0.0001004
 Max gradient component =       4.112E-03
 RMS gradient           =       6.088E-04
 Gradient time:  CPU 164.78 s  wall 13.02 s
 Geometry Optimization Parameters
   NAtoms,    NIC,     NZ,  NCons,   NDum,   NFix, NCnnct, MaxDiis
       24     152       0       0       0       0       0       0

 Cartesian Hessian Update
 Hessian Updated using Powell/Murtagh-Sargent Update
  Mixing factors:     0.624286 Powell
                      0.375714 Murtagh-Sargent


** GEOMETRY OPTIMIZATION IN DELOCALIZED INTERNAL COORDINATES **
   Searching for a Transition State

   Optimization Cycle:   3

                       Coordinates (Angstroms)
     ATOM                X               Y               Z
      1  C        -0.6372702445   -0.6958228039   -0.1046354176
      2  C        -0.9169297816    0.6687471331    0.0806556500
      3  C         0.7405895941   -1.2488030980   -0.3463933835
      4  C         0.1199115038    1.7437925188    0.0953227769
      5  O         1.3013666882   -1.6741987051    0.7986953247
      6  O         1.2337492321   -1.3849504492   -1.4376652032
      7  O         1.3728840250    1.2532950296    0.0859213235
      8  O        -0.1289854463    2.9272406988    0.0834724756
      9  C         2.4371738605    2.2175107389    0.0114205879
     10  C         2.6154375339   -2.2504259034    0.6771580165
     11  C        -1.6892762169   -1.6140804424   -0.1368690636
     12  C        -3.0061104118   -1.1940774611    0.0254601412
     13  C        -3.2866169251    0.1582582220    0.2134594384
     14  C        -2.2471936554    1.0795140239    0.2350422169
     15  H         2.3468871587    2.8109388977   -0.8993105046
     16  H         2.5860260441   -3.1395130321    0.0452798062
     17  H        -4.3101832689    0.4925591607    0.3356877907
     18  H         2.4124302168    2.8782240676    0.8789180222
     19  H         3.3544062760    1.6332526647   -0.0017104291
     20  H         2.9124859988   -2.5091008075    1.6908413956
     21  H         3.3067418112   -1.5254328162    0.2449658958
     22  H        -3.8094351894   -1.9219021187    0.0024246896
     23  H        -2.4423561589    2.1362121080    0.3674281791
     24  H        -1.4725761744   -2.6648747261   -0.2911165694
   Point Group: c1    Number of degrees of freedom:    66


   Energy is   -688.214266218

 Hessian Updated using Powell/Murtagh-Sargent Update
  Mixing factors:     0.904255 Powell
                      0.095745 Murtagh-Sargent

 62 Hessian modes will be used to form the next step
  Hessian Eigenvalues:
    -0.005860    0.007510    0.010342    0.010637    0.013973    0.017325
     0.018233    0.020224    0.022828    0.022886    0.023006    0.023081
     0.023135    0.023346    0.023410    0.023568    0.039625    0.101366
     0.101474    0.105992    0.106265    0.159994    0.159999    0.160000
     0.160000    0.160000    0.160000    0.160093    0.220000    0.224960
     0.244668    0.249470    0.249652    0.249992    0.249999    0.250000
     0.250000    0.254571    0.319638    0.331235    0.346792    0.347078
     0.347261    0.347342    0.350912    0.350966    0.354857    0.355269
     0.355525    0.356750    0.395561    0.398662    0.418842    0.421885
     0.454701    0.461385    0.466296    0.471642    0.559539    0.562503
     1.002405    1.022525

 Transition State Search - Taking P-RFO Step
 Searching for Lamda that Maximizes Along the Lowest mode
 Value Taken    Lamda =   0.00023818
 Searching for Lamda that Minimizes Along All other modes
 Value Taken    Lamda =  -0.00031205
 Step Taken.  Stepsize is  0.248247

                             Maximum     Tolerance    Cnvgd?
         Gradient           0.001901      0.000001      NO
         Displacement       0.127678      0.000001      NO
         Energy change     -0.000276      0.000000      NO


 New Cartesian Coordinates Obtained by Inverse Iteration

 Displacement from previous Coordinates is:  0.595016
 Adding empirical dispersion correction 
 ----------------------------------------------------------------
 Doing -D3(op) with
 s6 =   1.00000
 s8 =   0.78311
 a1 =   0.30000
 a2 =   4.25000
 n  =  10.00000
 -D3 energy without 3body term =     -0.0236180422 hartrees
 ----------------------------------------------------------------
             Standard Nuclear Orientation (Angstroms)
    I     Atom           X                Y                Z
 ----------------------------------------------------------------
    1      C      -0.6434123668    -0.7070461906    -0.1190819629
    2      C      -0.9120150975     0.6552005796     0.0993045598
    3      C       0.7314261497    -1.2746160472    -0.3449770727
    4      C       0.1280271668     1.7275379785     0.1138534150
    5      O       1.3090074732    -1.6288289362     0.8155850983
    6      O       1.2052765838    -1.4839903033    -1.4332991910
    7      O       1.3789272072     1.2395388761     0.0271923094
    8      O      -0.1172642405     2.9085412900     0.2026143182
    9      C       2.4408278696     2.2079595932    -0.0244946065
   10      C       2.6230310205    -2.2078485768     0.7111666812
   11      C      -1.7039286193    -1.6134977536    -0.1864797391
   12      C      -3.0173090647    -1.1875190400    -0.0128131311
   13      C      -3.2862640280     0.1603313362     0.2187560860
   14      C      -2.2392109804     1.0717516355     0.2663410733
   15      H       2.3163748316     2.8598334167    -0.8901652530
   16      H       2.5896939797    -3.1288840999     0.1271387112
   17      H      -4.3070579357     0.4996298605     0.3500255892
   18      H       2.4503677173     2.8105889262     0.8845768845
   19      H       3.3561529712     1.6269579859    -0.1107951126
   20      H       2.9309194125    -2.4122362998     1.7339561520
   21      H       3.3083282270    -1.5052029117     0.2345817842
   22      H      -3.8267264708    -1.9073778543    -0.0598851263
   23      H      -2.4261660934     2.1265592581     0.4232190855
   24      H      -1.4958492430    -2.6610198228    -0.3718673927
 ----------------------------------------------------------------
 Nuclear Repulsion Energy =   891.6523349560 hartrees
 There are       51 alpha and       51 beta electrons
 Applying Cartesian multipole field
    Component          Value
    ---------          -----
     (2,0,0)        1.00000E-11
     (0,2,0)        2.00000E-11
     (0,0,2)       -3.00000E-11
 Nucleus-field energy     =     0.0000000313 hartrees
 Requested basis set is 6-311++G(d,p)
 There are 134 shells and 378 basis functions
 A cutoff of  1.0D-11 yielded   7323 shell pairs
 There are     60246 function pairs (     64595 Cartesian)
 Smallest overlap matrix eigenvalue = 3.83E-07

 Q-Chem warning in module /fs/scratch/osu6415/qchem-kaunlao-vdw/stvman/mkSTV.C, line 281:

 Overlap eigenvalue is smaller than square root of threshold

 Linear dependence detected in AO basis
 Number of orthogonalized atomic orbitals = 376
 Maximum deviation from orthogonality = 2.238E-10
 Guess MOs from SCF MO coefficient file
 Reading MOs from coefficient file
 Reading MOs from coefficient file
 A restricted hybrid HF-DFT SCF calculation will be
 performed using Pulay DIIS extrapolation
 Exchange:     0.2000 Hartree-Fock + 0.0800 Slater + 0.7200 B88
 Correlation:  0.1900 VWN1RPA + 0.8100 LYP
 Using SG-1 standard quadrature grid
 Dispersion:   Grimme D3
 SCF converges when DIIS error is below 1.0E-08
 Geometry optimization detected.  Setting ReadMinima to 0
 Setting SaveMinima to 0
 using 20 threads for integral computing
 -------------------------------------------------------
 OpenMP Integral computing Module                
 Release: version 1.0, May 2013, Q-Chem Inc. Pittsburgh 
 -------------------------------------------------------
 -------------------------------------------------------
 OpenMP BLAS3 based DFT computing Module                
 Release: version 1.0, May 2013, Q-Chem Inc. Pittsburgh 
 -------------------------------------------------------
 ---------------------------------------
  Cycle       Energy         DIIS Error
 ---------------------------------------
    1    -688.1838527252      1.41E-03
    2    -688.2136628118      1.63E-04
    3    -688.2131858196      2.46E-04
    4    -688.2142157234      6.20E-05
    5    -688.2142704606      2.11E-05
    6    -688.2142741617      1.27E-05
    7    -688.2142763041      2.77E-06
    8    -688.2142764024      1.18E-06
    9    -688.2142764220      2.09E-07
   10    -688.2142764231      9.85E-08
   11    -688.2142764231      3.59E-08
   12    -688.2142764222      1.64E-08
   13    -688.2142764214      3.96E-09 Convergence criterion met
 ---------------------------------------
 SCF time:  CPU 483.82 s  wall 27.31 s
 SCF   energy in the final basis set = -688.21427642
 Total energy in the final basis set = -688.21427642
 
 --------------------------------------------------------------
 
                    Orbital Energies (a.u.)
 --------------------------------------------------------------
 
 Alpha MOs
 -- Occupied --
-19.180 -19.178 -19.121 -19.119 -10.314 -10.314 -10.234 -10.233
-10.215 -10.211 -10.199 -10.198 -10.196 -10.194  -1.123  -1.118
 -1.033  -1.032  -0.887  -0.797  -0.785  -0.743  -0.734  -0.657
 -0.637  -0.594  -0.580  -0.555  -0.521  -0.510  -0.497  -0.490
 -0.486  -0.481  -0.467  -0.454  -0.438  -0.433  -0.420  -0.406
 -0.390  -0.383  -0.380  -0.366  -0.364  -0.325  -0.315  -0.300
 -0.294  -0.278  -0.270
 -- Virtual --
 -0.067  -0.034  -0.012  -0.007  -0.003   0.004   0.014   0.020
  0.027   0.032   0.036   0.039   0.042   0.047   0.055   0.057
  0.067   0.077   0.080   0.085   0.094   0.097   0.101   0.107
  0.112   0.115   0.117   0.120   0.123   0.127   0.131   0.134
  0.138   0.145   0.146   0.148   0.149   0.152   0.153   0.157
  0.170   0.172   0.174   0.183   0.186   0.187   0.195   0.197
  0.201   0.210   0.216   0.219   0.220   0.235   0.245   0.248
  0.254   0.257   0.262   0.262   0.273   0.279   0.285   0.291
  0.295   0.299   0.301   0.304   0.308   0.311   0.318   0.328
  0.333   0.336   0.348   0.354   0.358   0.369   0.375   0.378
  0.383   0.389   0.392   0.397   0.407   0.425   0.436   0.450
  0.463   0.479   0.488   0.494   0.511   0.518   0.525   0.535
  0.542   0.549   0.554   0.565   0.578   0.589   0.594   0.599
  0.607   0.619   0.627   0.629   0.645   0.647   0.651   0.659
  0.669   0.675   0.688   0.694   0.705   0.720   0.726   0.729
  0.737   0.753   0.761   0.773   0.780   0.807   0.834   0.841
  0.847   0.872   0.881   0.892   0.912   0.925   0.951   0.953
  0.967   0.982   0.990   1.005   1.033   1.040   1.047   1.056
  1.068   1.076   1.080   1.093   1.114   1.128   1.132   1.156
  1.169   1.206   1.223   1.252   1.256   1.280   1.288   1.305
  1.330   1.339   1.370   1.378   1.403   1.415   1.428   1.431
  1.439   1.453   1.495   1.498   1.509   1.518   1.530   1.548
  1.555   1.557   1.560   1.572   1.583   1.622   1.628   1.642
  1.655   1.676   1.687   1.699   1.708   1.715   1.727   1.738
  1.751   1.754   1.763   1.807   1.818   1.821   1.838   1.882
  1.892   1.920   1.924   1.932   1.946   1.952   1.968   1.971
  2.003   2.021   2.036   2.042   2.070   2.094   2.106   2.123
  2.129   2.173   2.212   2.229   2.273   2.300   2.328   2.399
  2.425   2.439   2.460   2.465   2.476   2.497   2.504   2.521
  2.528   2.547   2.565   2.602   2.606   2.630   2.656   2.660
  2.669   2.700   2.724   2.744   2.762   2.771   2.785   2.792
  2.804   2.828   2.835   2.846   2.855   2.869   2.882   2.892
  2.905   2.922   2.963   2.999   3.035   3.040   3.068   3.077
  3.102   3.115   3.168   3.199   3.220   3.241   3.253   3.265
  3.292   3.352   3.373   3.387   3.401   3.525   3.539   3.551
  3.589   3.626   3.642   3.757   3.769   3.776   3.811   3.865
  3.880   4.022   4.035   4.045   4.075   4.106   4.155   4.174
  4.257   4.362   4.834   4.996   5.043   5.054   5.152   5.225
  5.234   5.396   5.436   5.617   5.673   5.858   5.876  23.572
 23.847  23.854  23.919  23.929  23.944  23.947  24.056  24.085
 24.174  49.903  49.914  50.000  50.045
 --------------------------------------------------------------
 
          Ground-State Mulliken Net Atomic Charges

     Atom                 Charge (a.u.)
  ----------------------------------------
      1 C                     0.528912
      2 C                     0.587053
      3 C                    -1.094870
      4 C                    -0.133696
      5 O                     0.084182
      6 O                    -0.121157
      7 O                    -0.121565
      8 O                    -0.262061
      9 C                    -0.205162
     10 C                    -0.213471
     11 C                    -0.010831
     12 C                    -0.199833
     13 C                    -0.244762
     14 C                    -0.331797
     15 H                     0.187734
     16 H                     0.171983
     17 H                     0.172881
     18 H                     0.190842
     19 H                     0.141788
     20 H                     0.157652
     21 H                     0.174680
     22 H                     0.169146
     23 H                     0.195367
     24 H                     0.176985
  ----------------------------------------
  Sum of atomic charges =     0.000000

 -----------------------------------------------------------------
                    Cartesian Multipole Moments
 -----------------------------------------------------------------
    Charge (ESU x 10^10)
                 0.0000
    Dipole Moment (Debye)
         X       0.5588      Y      -1.6059      Z       1.5710
       Tot       2.3150
    Quadrupole Moments (Debye-Ang)
        XX     -62.6652     XY       3.9920     YY     -81.7551
        XZ       3.3780     YZ      -3.3836     ZZ     -87.8347
    Octopole Moments (Debye-Ang^2)
       XXX      20.4236    XXY       1.3633    XYY      20.9422
       YYY     -40.4318    XXZ       8.0652    XYZ     -10.7248
       YYZ      -1.3405    XZZ      10.6155    YZZ      11.5663
       ZZZ      -1.2921
    Hexadecapole Moments (Debye-Ang^3)
      XXXX   -1692.2265   XXXY      10.2472   XXYY    -469.1241
      XYYY      26.5011   YYYY   -1485.0431   XXXZ      -1.0404
      XXYZ     -16.7873   XYYZ      13.8757   YYYZ     -29.5318
      XXZZ    -382.4035   XYZZ       4.9651   YYZZ    -282.4197
      XZZZ      10.0246   YZZZ     -30.7119   ZZZZ    -238.0179
 -----------------------------------------------------------------
 Calculating analytic gradient of the SCF energy
 Gradient of SCF Energy
            1           2           3           4           5           6
    1  -0.0004280   0.0000614   0.0009357  -0.0002408   0.0000790  -0.0006828
    2  -0.0011753   0.0001153   0.0014492   0.0004647  -0.0010367  -0.0006326
    3   0.0000387   0.0013616   0.0008869  -0.0028805  -0.0002000  -0.0000575
            7           8           9          10          11          12
    1   0.0002638   0.0000742  -0.0002626  -0.0001393  -0.0001373   0.0000749
    2   0.0005448  -0.0003137   0.0000628   0.0002973   0.0004508  -0.0000044
    3   0.0009161   0.0007407  -0.0001399   0.0000191  -0.0012792   0.0000933
           13          14          15          16          17          18
    1   0.0000008   0.0002475   0.0000553   0.0000552  -0.0000170   0.0000543
    2  -0.0000392  -0.0000690   0.0000403  -0.0000661   0.0000143  -0.0000284
    3   0.0000297   0.0004853  -0.0000772   0.0000403  -0.0001624  -0.0000384
           19          20          21          22          23          24
    1   0.0000303   0.0000139   0.0000631  -0.0000017  -0.0000605  -0.0000392
    2   0.0000288  -0.0000005  -0.0000935  -0.0000141   0.0000510  -0.0000456
    3   0.0001283  -0.0000007  -0.0000755   0.0001489  -0.0000852   0.0001075
 Max gradient component =       2.880E-03
 RMS gradient           =       5.545E-04
 Gradient time:  CPU 166.34 s  wall 13.21 s
 Geometry Optimization Parameters
   NAtoms,    NIC,     NZ,  NCons,   NDum,   NFix, NCnnct, MaxDiis
       24     152       0       0       0       0       0       0

 Cartesian Hessian Update
 Hessian Updated using Powell/Murtagh-Sargent Update
  Mixing factors:     0.107541 Powell
                      0.892459 Murtagh-Sargent


** GEOMETRY OPTIMIZATION IN DELOCALIZED INTERNAL COORDINATES **
   Searching for a Transition State

   Optimization Cycle:   4

                       Coordinates (Angstroms)
     ATOM                X               Y               Z
      1  C        -0.6434123668   -0.7070461906   -0.1190819629
      2  C        -0.9120150975    0.6552005796    0.0993045598
      3  C         0.7314261497   -1.2746160472   -0.3449770727
      4  C         0.1280271668    1.7275379785    0.1138534150
      5  O         1.3090074732   -1.6288289362    0.8155850983
      6  O         1.2052765838   -1.4839903033   -1.4332991910
      7  O         1.3789272072    1.2395388761    0.0271923094
      8  O        -0.1172642405    2.9085412900    0.2026143182
      9  C         2.4408278696    2.2079595932   -0.0244946065
     10  C         2.6230310205   -2.2078485768    0.7111666812
     11  C        -1.7039286193   -1.6134977536   -0.1864797391
     12  C        -3.0173090647   -1.1875190400   -0.0128131311
     13  C        -3.2862640280    0.1603313362    0.2187560860
     14  C        -2.2392109804    1.0717516355    0.2663410733
     15  H         2.3163748316    2.8598334167   -0.8901652530
     16  H         2.5896939797   -3.1288840999    0.1271387112
     17  H        -4.3070579357    0.4996298605    0.3500255892
     18  H         2.4503677173    2.8105889262    0.8845768845
     19  H         3.3561529712    1.6269579859   -0.1107951126
     20  H         2.9309194125   -2.4122362998    1.7339561520
     21  H         3.3083282270   -1.5052029117    0.2345817842
     22  H        -3.8267264708   -1.9073778543   -0.0598851263
     23  H        -2.4261660934    2.1265592581    0.4232190855
     24  H        -1.4958492430   -2.6610198228   -0.3718673927
   Point Group: c1    Number of degrees of freedom:    66


   Energy is   -688.214276421

 Hessian Updated using Powell/Murtagh-Sargent Update
  Mixing factors:     0.988538 Powell
                      0.011462 Murtagh-Sargent

 64 Hessian modes will be used to form the next step
  Hessian Eigenvalues:
    -0.008360    0.005681    0.010345    0.010651    0.014851    0.018033
     0.019209    0.022554    0.022855    0.022991    0.023030    0.023130
     0.023336    0.023408    0.023560    0.024181    0.040359    0.101366
     0.101474    0.105992    0.106264    0.159995    0.159999    0.160000
     0.160000    0.160000    0.160000    0.160008    0.160088    0.220000
     0.224983    0.244668    0.249473    0.249652    0.249996    0.249999
     0.250000    0.250000    0.250003    0.255506    0.319645    0.331263
     0.346792    0.347078    0.347261    0.347342    0.350912    0.350966
     0.354857    0.355269    0.355525    0.356750    0.395562    0.398662
     0.418924    0.421905    0.454732    0.461385    0.466296    0.471642
     0.559542    0.562504    1.002411    1.022527

 Transition State Search - Taking P-RFO Step
 Searching for Lamda that Maximizes Along the Lowest mode
 Value Taken    Lamda =   0.00003455
 Searching for Lamda that Minimizes Along All other modes
 Value Taken    Lamda =  -0.00032178
 Step Taken.  Stepsize is  0.163664

                             Maximum     Tolerance    Cnvgd?
         Gradient           0.003259      0.000001      NO
         Displacement       0.074954      0.000001      NO
         Energy change     -0.000010      0.000000      NO


 New Cartesian Coordinates Obtained by Inverse Iteration

 Displacement from previous Coordinates is:  0.467287
 Adding empirical dispersion correction 
 ----------------------------------------------------------------
 Doing -D3(op) with
 s6 =   1.00000
 s8 =   0.78311
 a1 =   0.30000
 a2 =   4.25000
 n  =  10.00000
 -D3 energy without 3body term =     -0.0238399743 hartrees
 ----------------------------------------------------------------
             Standard Nuclear Orientation (Angstroms)
    I     Atom           X                Y                Z
 ----------------------------------------------------------------
    1      C      -0.6569254756    -0.7103005918    -0.1276514865
    2      C      -0.9230401980     0.6515001100     0.0857800785
    3      C       0.7193081354    -1.2735721239    -0.3529114480
    4      C       0.1294808023     1.7096723435     0.1174433893
    5      O       1.2953423763    -1.6214848069     0.8103187811
    6      O       1.2292061265    -1.4131351650    -1.4361155387
    7      O       1.3698796474     1.2004133830     0.0036778829
    8      O      -0.0962292544     2.8915353950     0.2415725287
    9      C       2.4517246500     2.1473403528    -0.0285403045
   10      C       2.6311683410    -2.1505333004     0.7146894545
   11      C      -1.7168021836    -1.6186882504    -0.1761603327
   12      C      -3.0297460848    -1.1887813266    -0.0068800595
   13      C      -3.2970504559     0.1620403856     0.2111963154
   14      C      -2.2488991292     1.0728193774     0.2508769190
   15      H       2.3264002757     2.8341646180    -0.8664647753
   16      H       2.6406280002    -3.0564785912     0.1067258338
   17      H      -4.3169750479     0.5030136413     0.3448700244
   18      H       2.4889793359     2.7144938394     0.9024750009
   19      H       3.3524772664     1.5508509054    -0.1536101839
   20      H       2.9292978332    -2.3699313259     1.7372547888
   21      H       3.2974980543    -1.4109084009     0.2682327159
   22      H      -3.8401199192    -1.9080204801    -0.0464560750
   23      H      -2.4328041480     2.1280998135     0.4077033750
   24      H      -1.5096424779    -2.6677469016    -0.3535737241
 ----------------------------------------------------------------
 Nuclear Repulsion Energy =   893.9420004517 hartrees
 There are       51 alpha and       51 beta electrons
 Applying Cartesian multipole field
    Component          Value
    ---------          -----
     (2,0,0)        1.00000E-11
     (0,2,0)        2.00000E-11
     (0,0,2)       -3.00000E-11
 Nucleus-field energy     =     0.0000000308 hartrees
 Requested basis set is 6-311++G(d,p)
 There are 134 shells and 378 basis functions
 A cutoff of  1.0D-11 yielded   7336 shell pairs
 There are     60401 function pairs (     64765 Cartesian)
 Smallest overlap matrix eigenvalue = 3.79E-07

 Q-Chem warning in module /fs/scratch/osu6415/qchem-kaunlao-vdw/stvman/mkSTV.C, line 281:

 Overlap eigenvalue is smaller than square root of threshold

 Linear dependence detected in AO basis
 Number of orthogonalized atomic orbitals = 376
 Maximum deviation from orthogonality = 1.247E-10
 Guess MOs from SCF MO coefficient file
 Reading MOs from coefficient file
 Reading MOs from coefficient file
 A restricted hybrid HF-DFT SCF calculation will be
 performed using Pulay DIIS extrapolation
 Exchange:     0.2000 Hartree-Fock + 0.0800 Slater + 0.7200 B88
 Correlation:  0.1900 VWN1RPA + 0.8100 LYP
 Using SG-1 standard quadrature grid
 Dispersion:   Grimme D3
 SCF converges when DIIS error is below 1.0E-08
 Geometry optimization detected.  Setting ReadMinima to 0
 Setting SaveMinima to 0
 using 20 threads for integral computing
 -------------------------------------------------------
 OpenMP Integral computing Module                
 Release: version 1.0, May 2013, Q-Chem Inc. Pittsburgh 
 -------------------------------------------------------
 -------------------------------------------------------
 OpenMP BLAS3 based DFT computing Module                
 Release: version 1.0, May 2013, Q-Chem Inc. Pittsburgh 
 -------------------------------------------------------
 ---------------------------------------
  Cycle       Energy         DIIS Error
 ---------------------------------------
    1    -688.2023130335      9.13E-04
    2    -688.2137891352      1.27E-04
    3    -688.2132087714      2.36E-04
    4    -688.2140936412      4.13E-05
    5    -688.2141130997      1.52E-05
    6    -688.2141157873      6.98E-06
    7    -688.2141165123      2.34E-06
    8    -688.2141165841      9.58E-07
    9    -688.2141165959      2.69E-07
   10    -688.2141165971      1.03E-07
   11    -688.2141165975      2.92E-08
   12    -688.2141165967      1.14E-08
   13    -688.2141165964      2.24E-09 Convergence criterion met
 ---------------------------------------
 SCF time:  CPU 473.58 s  wall 27.08 s
 SCF   energy in the final basis set = -688.21411660
 Total energy in the final basis set = -688.21411660
 
 --------------------------------------------------------------
 
                    Orbital Energies (a.u.)
 --------------------------------------------------------------
 
 Alpha MOs
 -- Occupied --
-19.179 -19.178 -19.120 -19.119 -10.314 -10.313 -10.234 -10.233
-10.215 -10.211 -10.199 -10.198 -10.196 -10.194  -1.123  -1.117
 -1.033  -1.032  -0.887  -0.798  -0.785  -0.743  -0.734  -0.657
 -0.637  -0.594  -0.580  -0.555  -0.522  -0.511  -0.497  -0.490
 -0.485  -0.480  -0.467  -0.454  -0.439  -0.433  -0.420  -0.407
 -0.390  -0.383  -0.380  -0.366  -0.363  -0.325  -0.314  -0.300
 -0.293  -0.278  -0.270
 -- Virtual --
 -0.067  -0.034  -0.012  -0.007  -0.004   0.004   0.014   0.021
  0.026   0.033   0.037   0.040   0.042   0.046   0.055   0.057
  0.067   0.077   0.081   0.086   0.093   0.097   0.101   0.106
  0.111   0.115   0.117   0.120   0.123   0.127   0.131   0.134
  0.141   0.145   0.147   0.148   0.149   0.152   0.153   0.157
  0.169   0.172   0.174   0.183   0.186   0.189   0.195   0.197
  0.202   0.212   0.216   0.219   0.220   0.235   0.246   0.248
  0.255   0.257   0.261   0.264   0.274   0.281   0.283   0.288
  0.295   0.300   0.304   0.304   0.308   0.311   0.318   0.329
  0.334   0.336   0.350   0.354   0.358   0.370   0.375   0.378
  0.383   0.390   0.392   0.395   0.406   0.428   0.438   0.450
  0.464   0.481   0.488   0.493   0.511   0.519   0.525   0.534
  0.541   0.550   0.554   0.565   0.578   0.587   0.594   0.599
  0.608   0.619   0.626   0.629   0.646   0.648   0.652   0.658
  0.671   0.676   0.690   0.696   0.705   0.721   0.727   0.729
  0.738   0.754   0.761   0.773   0.781   0.811   0.835   0.841
  0.848   0.872   0.882   0.893   0.912   0.927   0.952   0.957
  0.968   0.986   0.987   1.006   1.035   1.039   1.045   1.058
  1.070   1.073   1.085   1.093   1.112   1.125   1.131   1.161
  1.171   1.210   1.225   1.255   1.263   1.282   1.292   1.306
  1.329   1.339   1.375   1.383   1.400   1.419   1.431   1.433
  1.440   1.462   1.495   1.499   1.510   1.516   1.529   1.546
  1.555   1.558   1.561   1.573   1.583   1.624   1.630   1.643
  1.656   1.675   1.690   1.700   1.708   1.714   1.727   1.736
  1.751   1.753   1.763   1.807   1.821   1.822   1.841   1.887
  1.892   1.919   1.928   1.933   1.945   1.953   1.967   1.970
  2.004   2.022   2.040   2.043   2.069   2.097   2.106   2.125
  2.127   2.179   2.216   2.234   2.275   2.300   2.328   2.401
  2.426   2.442   2.460   2.466   2.476   2.496   2.504   2.520
  2.529   2.548   2.568   2.602   2.610   2.634   2.658   2.660
  2.668   2.700   2.724   2.744   2.763   2.770   2.785   2.792
  2.804   2.828   2.837   2.847   2.856   2.872   2.881   2.897
  2.905   2.922   2.966   2.999   3.036   3.041   3.070   3.080
  3.104   3.114   3.169   3.200   3.220   3.241   3.254   3.268
  3.293   3.352   3.373   3.390   3.399   3.526   3.540   3.551
  3.589   3.627   3.640   3.763   3.769   3.776   3.813   3.869
  3.882   4.022   4.035   4.045   4.079   4.107   4.156   4.176
  4.259   4.364   4.834   4.987   5.048   5.058   5.160   5.225
  5.236   5.397   5.444   5.619   5.676   5.859   5.878  23.574
 23.850  23.856  23.920  23.930  23.944  23.948  24.058  24.085
 24.174  49.902  49.919  50.001  50.048
 --------------------------------------------------------------
 
          Ground-State Mulliken Net Atomic Charges

     Atom                 Charge (a.u.)
  ----------------------------------------
      1 C                     0.546628
      2 C                     0.592945
      3 C                    -1.061264
      4 C                    -0.122000
      5 O                     0.081726
      6 O                    -0.123880
      7 O                    -0.129588
      8 O                    -0.264096
      9 C                    -0.206399
     10 C                    -0.210637
     11 C                    -0.055378
     12 C                    -0.195307
     13 C                    -0.246418
     14 C                    -0.339882
     15 H                     0.187461
     16 H                     0.171715
     17 H                     0.173047
     18 H                     0.191234
     19 H                     0.141789
     20 H                     0.158848
     21 H                     0.170820
     22 H                     0.168693
     23 H                     0.195490
     24 H                     0.174453
  ----------------------------------------
  Sum of atomic charges =     0.000000

 -----------------------------------------------------------------
                    Cartesian Multipole Moments
 -----------------------------------------------------------------
    Charge (ESU x 10^10)
                 0.0000
    Dipole Moment (Debye)
         X       0.5180      Y      -1.6812      Z       1.5409
       Tot       2.3386
    Quadrupole Moments (Debye-Ang)
[...]
    -0.02355899     -0.00613264      0.00125212
vibration 51
     0.00488744     -0.00001431     -0.00049249
    -0.00547842      0.00021683      0.00052909
    -0.00357054      0.00230659     -0.00369979
     0.00801680     -0.00124242     -0.00050474
     0.00410344     -0.00078490     -0.00832937
     0.00004711     -0.00029428      0.00412592
     0.00445986     -0.01428049     -0.00116936
    -0.00427814      0.00486035      0.00039029
     0.01113254     -0.04328420     -0.00596539
     0.01425710     -0.00195159     -0.02633024
    -0.00054602     -0.00254088     -0.00026361
    -0.00488673      0.00293550      0.00075506
     0.00431125      0.00369047      0.00007779
    -0.00071237     -0.00316622     -0.00031623
    -0.02454725      0.43922813      0.36963587
    -0.25105749     -0.15967211      0.22263855
    -0.00207639     -0.01685204     -0.00177369
    -0.06254458      0.46736445     -0.30184327
    -0.11697266     -0.21753983      0.02006684
     0.11535495     -0.05308063     -0.05777843
    -0.07681214      0.24027810      0.26356573
     0.01205836     -0.01608865     -0.00296589
     0.00375291     -0.00302323     -0.00068559
     0.00771141     -0.00139396     -0.00063354
vibration 52
     0.12097540     -0.12978502     -0.02350208
     0.04582326      0.16379911      0.01470148
    -0.03754850      0.03447821     -0.02891678
    -0.02798133     -0.00370479     -0.00057313
     0.00777095     -0.00510332      0.00600861
    -0.00545890     -0.00106934      0.01722752
     0.00512085      0.00420345      0.00019331
     0.00404636     -0.02463623     -0.00134348
     0.00904829      0.00690049      0.00026114
     0.01551252     -0.00714987      0.00030951
    -0.15758017     -0.03958648      0.00838765
     0.00664085      0.10062926      0.01118826
     0.06962978     -0.06442085     -0.01335981
    -0.16454625     -0.04088001      0.00868861
    -0.04545014     -0.04773690     -0.03400110
    -0.08767272     -0.00256423     -0.00225699
     0.16867716      0.16851290      0.00578223
    -0.04167338     -0.04881939      0.03467035
    -0.01297340     -0.02785340     -0.00390976
    -0.06456898      0.01649967      0.02946458
    -0.06824422      0.06887055     -0.00187100
     0.26803787     -0.16295458     -0.04174967
     0.53455877      0.09887037     -0.03125855
     0.59624937      0.11795063     -0.03373393
vibration 53
    -0.01199339     -0.29974699     -0.03359840
    -0.11317480      0.26654632      0.03922746
    -0.00282825      0.03787464     -0.02125327
     0.00450394      0.03615230     -0.00054611
     0.00055046     -0.00415796      0.00336233
    -0.00802365     -0.00401709      0.01478930
     0.00351396      0.00593327      0.00033055
     0.00290034     -0.05039564     -0.00236963
     0.00256340      0.00010358      0.00010775
     0.00322305     -0.00255703      0.00059494
     0.01108258      0.15738303      0.01819374
     0.13072155     -0.31062912     -0.04794549
     0.04448880      0.36966595      0.03960654
     0.00239399     -0.16240243     -0.01840406
    -0.01912902     -0.00834252     -0.00385275
    -0.00319493     -0.00352203     -0.00108914
    -0.23859551     -0.42687969     -0.03073142
    -0.01540824     -0.00715919      0.00565063
    -0.00345138     -0.00859099      0.00015745
    -0.01911411     -0.00328330      0.00693527
    -0.02206907      0.01379106     -0.01130412
    -0.37243071      0.21991213      0.05708657
     0.01887332     -0.17920174     -0.02263908
    -0.15382815      0.13859628      0.03003388
vibration 54
    -0.19748977     -0.04093113      0.01071377
     0.22159215     -0.01960959     -0.02039848
     0.02149094     -0.00006323      0.02550148
    -0.01962336     -0.04638245     -0.00048786
    -0.00185680     -0.00021157     -0.00292983
     0.00564253     -0.00383954     -0.01699048
    -0.00631648     -0.00015689     -0.00006078
     0.00042393      0.03005506      0.00112705
     0.00168146      0.00043835     -0.00005140
    -0.00313889      0.00125317     -0.00089412
     0.32991932      0.03510957     -0.02352433
    -0.22877128      0.06567262      0.02708293
     0.18631322      0.10960861     -0.00295722
    -0.32632425     -0.08377429      0.01759237
     0.00630419     -0.00441968     -0.00417981
     0.01649488     -0.00464502      0.00706791
     0.08033007     -0.26403779     -0.03811830
     0.00660936     -0.00476316      0.00271541
     0.01149767      0.01392269     -0.00003557
     0.00909034     -0.00757443     -0.00671698
     0.00540949     -0.00692704      0.00196781
     0.08506163     -0.30826456     -0.04451798
     0.42177339      0.05806709     -0.02708112
    -0.43826680     -0.13543967      0.02023571
vibration 55
    -0.03427086      0.01402152      0.00313202
     0.02257979     -0.11328539     -0.01233269
    -0.02017412      0.00085217      0.05204864
    -0.13049237      0.76667636      0.04501537
    -0.00108407      0.00181585     -0.00483622
     0.01589456     -0.00392425     -0.03425528
     0.02794861     -0.05086622     -0.00367185
     0.09269900     -0.47984438     -0.02765624
     0.01877171      0.02747591     -0.00198189
    -0.00033853     -0.00001112      0.00055690
     0.03902528      0.00165325     -0.00330719
    -0.02417226      0.01751037      0.00425660
     0.01817461     -0.01627811     -0.00357827
    -0.04104094      0.02399022      0.00582180
    -0.15552886      0.01469255     -0.00889383
     0.00507141     -0.00331337      0.00590109
     0.03634295      0.03725052      0.00076527
    -0.14486651      0.00471735      0.03848936
    -0.14085580     -0.20861033      0.00927608
     0.01478309     -0.00541029     -0.00353335
     0.00664356     -0.00498370      0.00708209
     0.01534355     -0.02646227     -0.00353285
     0.06374234      0.06051357      0.00378376
    -0.04139555     -0.01610774      0.00104756
vibration 56
     0.08780631     -0.03855074     -0.03237290
    -0.00889113      0.01907293      0.00336056
    -0.37851605      0.13081054      0.68023470
    -0.00071390     -0.05320172     -0.00289358
     0.00989397     -0.00116660     -0.04927366
     0.21941544     -0.07325171     -0.45557163
     0.00381636      0.00239224     -0.00281109
    -0.00453402      0.03172930      0.00187562
    -0.00242131     -0.00244230     -0.00095665
    -0.02657630      0.01152230      0.00955768
    -0.01219073      0.00239856      0.00256100
     0.00288911     -0.00981341      0.00068901
    -0.00187101      0.00558230      0.00060265
     0.00274048      0.00098459      0.00205053
     0.00861274      0.00618360      0.00827069
     0.11099158     -0.03156141      0.09936245
    -0.00564678     -0.00316841     -0.00381292
     0.01906798      0.00205951     -0.00287091
     0.01047140      0.01582882      0.01453464
     0.19767988     -0.08578663     -0.07172443
     0.08273842     -0.07654086      0.08704101
    -0.01811923      0.01542797      0.00380882
    -0.01954147     -0.00512847      0.00449097
     0.00729418      0.01205176     -0.00423459
vibration 57
     0.00005278     -0.00005509      0.00011535
    -0.00005123      0.00002667      0.00000305
    -0.00076675      0.00068572     -0.00278336
     0.00042017     -0.00011570     -0.00002342
     0.00247921     -0.00114028      0.00080913
    -0.00040919      0.00010725      0.00089074
    -0.00044860     -0.00022954      0.00003553
    -0.00003919      0.00007154     -0.00000151
    -0.00381729     -0.00551411     -0.00057820
     0.03831044     -0.01397142     -0.01597730
     0.00003375     -0.00007784     -0.00001869
     0.00001997      0.00005804      0.00000048
     0.00001417     -0.00003431     -0.00000663
     0.00001706     -0.00001059     -0.00001465
    -0.01228997      0.05645758     -0.07286161
     0.02449218      0.50895665      0.35501294
    -0.00010558      0.00000373      0.00002507
     0.00128292      0.05196376      0.08721379
     0.05973646     -0.03922302     -0.00764826
    -0.11084379      0.09935149     -0.40466113
    -0.39437539     -0.43216708      0.24498476
    -0.00048597     -0.00051534     -0.00002689
     0.00011697     -0.00008527     -0.00004849
    -0.00024406      0.00049132      0.00009473
vibration 58
     0.00002296      0.00004148     -0.00001848
    -0.00028340      0.00001802      0.00001507
     0.00009836      0.00007980      0.00044450
     0.00242251     -0.00148955     -0.00017772
    -0.00034593      0.00011877     -0.00010113
     0.00007962     -0.00006638     -0.00016279
    -0.00252966     -0.00102500      0.00015763
    -0.00018824      0.00086840      0.00005099
    -0.02343227     -0.03660889     -0.00350213
    -0.00601680      0.00238552      0.00256911
    -0.00000008     -0.00003409     -0.00000335
    -0.00004419     -0.00002701      0.00000235
    -0.00008840      0.00000534      0.00001068
     0.00002945      0.00002943      0.00000369
    -0.07800467      0.36403418     -0.46935084
    -0.00376293     -0.08114572     -0.05662197
     0.00053428     -0.00026789     -0.00007950
     0.00859236      0.33239020      0.55711704
     0.36582032     -0.24093444     -0.04743589
     0.01733322     -0.01558069      0.06324241
     0.06128429      0.06722588     -0.03810385
     0.00034386      0.00035251      0.00001133
     0.00029571     -0.00104887     -0.00016356
    -0.00011728      0.00050903      0.00007668
vibration 59
    -0.00009596     -0.00025468     -0.00002337
     0.00007050      0.00002415      0.00000365
     0.00009289      0.00016250      0.00004253
    -0.00018705      0.00000793     -0.00000344
     0.00009592      0.00034076      0.00002889
     0.00002495      0.00014463     -0.00000022
     0.00009040      0.00000928      0.00000093
     0.00003975     -0.00001592     -0.00000788
     0.00083745     -0.00100735      0.00233199
    -0.03748567     -0.08661007     -0.01003970
    -0.00003465      0.00008967      0.00000605
    -0.00000268     -0.00002766     -0.00000764
     0.00000890      0.00001515     -0.00000178
    -0.00001805     -0.00003291     -0.00000720
    -0.00294748      0.01436056     -0.01806540
     0.02082413      0.56928365      0.41891997
    -0.00002710      0.00003564      0.00000115
     0.00015419     -0.00697639     -0.01081075
    -0.00705848      0.00477464      0.00118362
    -0.01068978     -0.01410438     -0.01357110
     0.43368165      0.46864270     -0.28633718
     0.00021106      0.00020970      0.00002106
    -0.00008025      0.00032868      0.00003159
     0.00028791     -0.00072387     -0.00004847
vibration 60
    -0.00000294     -0.00001032      0.00002034
     0.00001128      0.00001015     -0.00021701
     0.00001879      0.00000732     -0.00020166
    -0.00006015      0.00001814      0.00017099
     0.00003047      0.00001167      0.00005825
    -0.00004216     -0.00000607      0.00008597
     0.00003603      0.00001791      0.00040131
    -0.00001803     -0.00002434      0.00013610
    -0.00419275      0.00379508     -0.09483426
    -0.00094050     -0.00221095      0.00002504
     0.00000042      0.00000478      0.00000759
    -0.00000212     -0.00000068      0.00000253
     0.00000149     -0.00000396     -0.00000059
     0.00000886     -0.00001305      0.00001903
     0.10023908     -0.44608660      0.54559351
     0.00053425      0.01340768      0.00991600
    -0.00002163      0.00001151      0.00000749
     0.00143471      0.36702878      0.58733607
    -0.05150642      0.03382134     -0.01197808
    -0.00095693      0.00011554     -0.00265284
     0.01161380      0.01252949     -0.00778511
     0.00001970      0.00001912      0.00000702
    -0.00006251      0.00020277     -0.00000171
     0.00001648     -0.00004593     -0.00002197
vibration 61
    -0.00002010     -0.00001182      0.00003363
     0.00003933     -0.00008152     -0.00001195
     0.00021668     -0.00008682     -0.00022224
     0.00046218      0.00107429      0.00008969
     0.00005306     -0.00002479      0.00014749
    -0.00007509      0.00003309      0.00011175
     0.00019461     -0.00027003     -0.00005288
    -0.00006964     -0.00047022     -0.00001660
    -0.06067488      0.06425234      0.00476147
    -0.00257746      0.00371048     -0.03329956
     0.00003503     -0.00019022     -0.00002901
     0.00005092      0.00004397     -0.00000090
    -0.00016402      0.00005817      0.00002033
     0.00002093     -0.00017933     -0.00002393
     0.03414597     -0.18627316      0.25751248
     0.00532211      0.09687465      0.06158990
     0.00208750     -0.00069118     -0.00025244
    -0.01256627     -0.12070644     -0.22526161
     0.69325390     -0.45772303     -0.08865029
     0.08270265     -0.07395200      0.30161629
    -0.05963670     -0.06612454      0.03142423
    -0.00073010     -0.00067498     -0.00002202
    -0.00025604      0.00208965      0.00026149
    -0.00045725      0.00211774      0.00028587
vibration 62
    -0.00000782     -0.00001118      0.00007593
    -0.00001698      0.00003183     -0.00000077
     0.00095872     -0.00040002     -0.00058874
    -0.00014585     -0.00045336     -0.00003994
     0.00000950     -0.00000985      0.00032479
    -0.00033706      0.00013010      0.00035641
    -0.00008117      0.00011721      0.00004061
     0.00001666      0.00020872      0.00001143
     0.02303563     -0.02444814     -0.00210570
    -0.00500777      0.01257005     -0.08738542
    -0.00005403      0.00018284      0.00002734
    -0.00017104     -0.00017143     -0.00001099
     0.00008223     -0.00001839     -0.00000689
    -0.00002079      0.00010822      0.00000897
    -0.01268432      0.06966327     -0.09643167
     0.01295263      0.23935252      0.15089541
    -0.00112852      0.00036730      0.00013134
     0.00474332      0.04728585      0.08772227
    -0.26363495      0.17400372      0.03355115
     0.21670178     -0.19306213      0.79009114
    -0.17561155     -0.19321202      0.09477952
     0.00211968      0.00194752      0.00005089
     0.00016950     -0.00126821     -0.00017329
     0.00050629     -0.00201967     -0.00033255
vibration 63
    -0.00106603     -0.00047000      0.00003160
     0.00026932     -0.00009419     -0.00003690
     0.00000801      0.00024480      0.00010193
    -0.00017356     -0.00000113      0.00000546
     0.00001951     -0.00006483      0.00002714
     0.00003663     -0.00007123     -0.00010386
     0.00004273     -0.00000936     -0.00000171
     0.00007936      0.00001870     -0.00000187
    -0.00028581      0.00027133      0.00002358
     0.00008834     -0.00000941      0.00023595
    -0.00712397      0.04242164      0.00593910
    -0.04540397     -0.04122023     -0.00115104
     0.03593475     -0.01039760     -0.00421033
    -0.00244730      0.00875729      0.00119770
     0.00016841     -0.00072907      0.00105230
    -0.00000190     -0.00056677     -0.00035300
    -0.42144460      0.13665481      0.05119302
    -0.00002050     -0.00046986     -0.00092675
     0.00317968     -0.00207462     -0.00040006
    -0.00063065      0.00057616     -0.00237218
    -0.00011611     -0.00004236      0.00009426
     0.53516917      0.48233766      0.01294934
     0.02204922     -0.11099167     -0.01441434
     0.09933797     -0.49675938     -0.07099340
vibration 64
     0.00171760      0.00097475     -0.00001740
    -0.00005109      0.00065998      0.00007368
     0.00015114     -0.00043644     -0.00013811
    -0.00000017      0.00020888      0.00001462
    -0.00009558      0.00011523     -0.00005824
    -0.00011758      0.00012403      0.00016964
    -0.00003021     -0.00001254      0.00000010
     0.00011247     -0.00008107     -0.00001306
    -0.00001168      0.00003252     -0.00000083
    -0.00006192     -0.00002816     -0.00005763
     0.01192587     -0.05888665     -0.00840035
    -0.00501677      0.00046953      0.00046494
     0.05580822     -0.01847547     -0.00683107
    -0.00504557      0.01683095      0.00233302
     0.00000705     -0.00019559      0.00022708
    -0.00008863      0.00020275      0.00015156
    -0.64229915      0.21113587      0.07833061
    -0.00003568     -0.00012964     -0.00017891
     0.00012821     -0.00012132     -0.00001335
     0.00005883     -0.00011179      0.00054548
     0.00039754      0.00038288     -0.00022625
     0.03134041      0.02151562      0.00001246
     0.04233369     -0.20978372     -0.02726907
    -0.13721307      0.67312665      0.09639669
vibration 65
     0.00149583      0.00132091      0.00004571
    -0.00058093      0.00029398      0.00007882
     0.00015835     -0.00037458     -0.00011689
     0.00020651     -0.00024902     -0.00002656
    -0.00010715      0.00009710     -0.00006067
    -0.00011647      0.00009929      0.00014543
    -0.00003600      0.00001924      0.00000416
    -0.00018844      0.00003267      0.00001555
     0.00016581     -0.00009941     -0.00000243
     0.00002398     -0.00002462      0.00004175
     0.01112766     -0.04267117     -0.00628819
    -0.04532146     -0.04035649     -0.00103218
    -0.03633720      0.01535322      0.00482911
     0.00653311     -0.02565886     -0.00345506
    -0.00005171      0.00017325     -0.00032213
    -0.00011059      0.00006487      0.00004994
     0.41560047     -0.14104330     -0.05121399
     0.00000571      0.00001469      0.00015685
    -0.00160597      0.00108118      0.00020499
    -0.00029200      0.00020673     -0.00073363
     0.00001488      0.00003383      0.00000519
     0.50002734      0.45030574      0.01206747
    -0.06088719      0.30782047      0.03991210
    -0.10107926      0.47837389      0.06877371
vibration 66
    -0.00036680      0.00040400      0.00008169
    -0.00247001      0.00034928      0.00023973
    -0.00010071      0.00008604      0.00003103
     0.00021513     -0.00106395     -0.00009210
     0.00004143     -0.00003088      0.00001718
     0.00004033     -0.00002935     -0.00003960
     0.00018849      0.00012069      0.00000331
    -0.00040527      0.00032913      0.00004357
     0.00004145     -0.00019523      0.00000935
    -0.00000824      0.00004542     -0.00003768
    -0.00194086      0.00627542      0.00094695
     0.00856894      0.00952073      0.00042316
     0.03276653     -0.00808741     -0.00369097
     0.01372002     -0.07883935     -0.01010007
    -0.00008182      0.00087242     -0.00103879
     0.00002594     -0.00018379     -0.00014336
    -0.34656408      0.11115657      0.04195417
     0.00014038      0.00061305      0.00089417
    -0.00037302      0.00050582      0.00006194
     0.00018611     -0.00013414      0.00052671
    -0.00015510     -0.00018829      0.00010361
    -0.09763473     -0.09006727     -0.00261821
    -0.16860537      0.89087255      0.11486046
     0.01480023     -0.06823586     -0.00985851
[INT]
    2.079063
    2.270639
    0.200366
    1.650731
    3.778137
    0.204423
    2.187582
    0.723555
    0.174260
    2.234580
    2.394158
    9.102741
   10.972136
    8.016286
    3.937290
    0.733345
    7.057090
    4.874751
    2.258130
   13.397178
   24.854772
   52.541115
   17.638934
    0.955249
    9.283908
   11.335643
    0.319080
    8.350675
   10.118360
    5.557285
    0.087270
   27.817946
   53.010401
   66.242599
  147.679508
    0.749735
    1.151523
    1.315036
   20.225855
   41.709572
   73.656873
  517.531195
  170.273177
   25.380926
    8.794850
   22.251702
   15.266707
    6.150994
    9.972242
   14.584535
    6.253659
    4.970854
    3.121177
   18.987861
  320.201924
  262.997053
   28.915429
   39.440223
   18.863726
   15.174790
   14.659769
   10.445514
    0.603184
    7.830479
   10.137895
    5.157894

======= END OF MOLDEN-FORMATTED INPUT FILE =======


        *************************************************************
        *                                                           *
        *  Thank you very much for using Q-Chem.  Have a nice day.  *
        *                                                           *
        *************************************************************


