r0141.ten.osc.edu 10.25.154
Q-Chem Developer Version! Running on 10.25.154.*
                  Welcome to Q-Chem
     A Quantum Leap Into The Future Of Chemistry


 Q-Chem 5.0, Q-Chem, Inc., Pleasanton, CA (2017)

 Yihan Shao,  Zhengting Gan,  E. Epifanovsky,  A. T. B. Gilbert,  M. Wormit,  
 J. Kussmann,  A. W. Lange,  A. Behn,  Jia Deng,  Xintian Feng,  D. Ghosh,  
 M. Goldey,  P. R. Horn,  L. D. Jacobson,  I. Kaliman,  T. Kus,  A. Landau,  
 Jie Liu,  E. I. Proynov,  R. M. Richard,  R. P. Steele,  E. J. Sundstrom,  
 H. L. Woodcock III,  P. M. Zimmerman,  D. Zuev,  B. Albrecht,  E. Alguire,  
 S. A. Baeppler,  Z. Benda,  Y. A. Bernard,  E. J. Berquist,  K. B. Bravaya,  
 D. Casanova,  Chun-Min Chang,  Yunqing Chen,  A. Chien,  K. D. Closser,  
 M. P. Coons,  S. Dasgupta,  M. Diedenhofen,  Hainam Do,  R. G. Edgar,  
 Po-Tung Fang,  S. Fatehi,  Qingguo Feng,  Qinghui Ge,  A. Ghysels,  
 J. Gomes,  J. Gonthier,  A. Gunina,  M. W. D. Hanson-Heine,  
 P. H. P. Harbach,  A. W. Hauser,  J. E. Herr,  E. G. Hohenstein,  
 Z. C. Holden,  Kerwin Hui,  T.-C. Jagau,  Hyunjun Ji,  B. Kaduk,  
 K. Khistyaev,  Jaehoon Kim,  P. Klunzinger,  K. Koh,  D. Kosenkov,  
 T. Kowalczyk,  C. M. Krauter,  A. Kunitsa,  Ka Un Lao,  A. Laurent,  
 K. V. Lawler,  Joonho Lee,  D. Lefrancois,  S. Lehtola,  D. S. Levine,  
 Yi-Pei Li,  You-Sheng Lin,  Fenglai Liu,  E. Livshits,  A. Luenser,  
 P. Manohar,  E. Mansoor,  S. F. Manzer,  Shan-Ping Mao,  Yuezhi Mao,  
 N. Mardirossian,  A. V. Marenich,  L. A. Martinez-Martinez,  S. A. Maurer,  
 N. J. Mayhall,  S. C. McKenzie,  J.-M. Mewes,  A. F. Morrison,  K. Nanda,  
 T. S. Nguyen-Beck,  R. Olivares-Amaya,  J. A. Parkhill,  T. M. Perrine,  
 F. Plasser,  S. Prager,  A. Prociuk,  D. R. Rehn,  F. Rob,  M. Schneider,  
 N. Sergueev,  S. M. Sharada,  S. Sharma,  D. W. Small,  T. Stauch,  
 T. Stein,  Yu-Chuan Su,  A. J. W. Thom,  T. Tsuchimochi,  L. Vogt,  
 O. Vydrov,  M. A. Watson,  J. Wenzel,  M. de Wergifosse,  T. A. Wesolowski,  
 A. White,  J. Witte,  A. Yamada,  Jun Yang,  K. Yao,  S. Yeganeh,  
 S. R. Yost,  Zhi-Qiang You,  A. Zech,  Igor Ying Zhang,  Xing Zhang,  
 Yan Zhao,  Ying Zhu,  B. R. Brooks,  G. K. L. Chan,  C. J. Cramer,  
 M. S. Gordon,  W. J. Hehre,  A. Klamt,  M. W. Schmidt,  C. D. Sherrill,  
 D. G. Truhlar,  A. Aspuru-Guzik,  R. Baer,  A. T. Bell,  N. A. Besley,  
 Jeng-Da Chai,  A. Dreuw,  B. D. Dunietz,  T. R. Furlani,  Chao-Ping Hsu,  
 Yousung Jung,  Jing Kong,  D. S. Lambrecht,  WanZhen Liang,  C. Ochsenfeld,  
 V. A. Rassolov,  L. V. Slipchenko,  J. E. Subotnik,  T. Van Voorhis,  
 J. M. Herbert,  A. I. Krylov,  P. M. W. Gill,  M. Head-Gordon

 Contributors to earlier versions of Q-Chem not listed above: 
 R. D. Adamson,  B. Austin,  J. Baker,  G. J. O. Beran,  K. Brandhorst,  
 S. T. Brown,  E. F. C. Byrd,  A. K. Chakraborty,  C.-L. Cheng,  
 Siu Hung Chien,  D. M. Chipman,  D. L. Crittenden,  H. Dachsel,  
 R. A. DiStasio Jr.,  R. J. Doerksen,  A. D. Dutoi,  L. Fusti-Molnar,  
 W. A. Goddard III,  A. Golubeva-Zadorozhnaya,  S. R. Gwaltney,  G. Hawkins,  
 A. Heyden,  S. Hirata,  G. Kedziora,  F. J. Keil,  C. Kelley,  Jihan Kim,  
 R. A. King,  R. Z. Khaliullin,  P. P. Korambath,  W. Kurlancheek,  
 A. M. Lee,  M. S. Lee,  S. V. Levchenko,  Ching Yeh Lin,  D. Liotard,  
 R. C. Lochan,  I. Lotan,  P. E. Maslen,  N. Nair,  D. P. O'Neill,  
 D. Neuhauser,  E. Neuscamman,  C. M. Oana,  R. Olson,  B. Peters,  
 R. Peverati,  P. A. Pieniazek,  Y. M. Rhee,  J. Ritchie,  M. A. Rohrdanz,  
 E. Rosta,  N. J. Russ,  H. F. Schaefer III,  N. E. Schultz,  N. Shenvi,  
 A. C. Simmonett,  A. Sodt,  D. Stuck,  K. S. Thanthiriwatte,  V. Vanovschi,  
 Tao Wang,  A. Warshel,  C. F. Williams,  Q. Wu,  X. Xu,  W. Zhang

 Please cite Q-Chem as follows:
 Y. Shao et al., Mol. Phys. 113, 184-215 (2015)
 DOI: 10.1080/00268976.2014.952696

 Q-Chem 5.0.1 for Intel X86 EM64T Linux

 Parts of Q-Chem use Armadillo 5.200.1 (Boston Tea Smuggler).
 http://arma.sourceforge.net/

 Q-Chem begins on Sat Oct 14 21:19:08 2017  

Host: r0141.ten.osc.edu
0

     Scratch files written to /tmp/pbstmp.1310489/02//
Processing $rem in /users/PAS0291/osu6415/.qchemrc.
molden_format             true

Checking the input file for inconsistencies... 	...done.

--------------------------------------------------------------
User input:
--------------------------------------------------------------
$molecule
0 1
C 0.81250552 -0.68722192 0.10655748
C 0.80884901 0.70310538 -0.09861124
C -0.42835462 -1.52267496 0.12966096
C -0.44324029 1.52138239 -0.13283357
O -1.31828521 -1.11658011 -0.79838694
O -0.59032478 -2.48754934 0.83750353
O -1.29530345 1.15646960 0.84626862
O -0.64646070 2.43281750 -0.89772453
C -2.56297411 1.83581946 0.86882148
C -2.56454733 -1.83401698 -0.83927467
C 2.02799692 -1.36276983 0.22986475
C 3.23245268 -0.67495877 0.11855843
C 3.22863036 0.69779418 -0.12168315
C 2.02097210 1.38224563 -0.22827422
H -2.42043577 2.91084725 0.98602328
H -2.39055567 -2.89356673 -1.03107970
H 4.16360368 1.23701940 -0.21946169
H -3.11044459 1.64519164 -0.05633417
H -3.09621542 1.42375834 1.72258341
H -3.12960304 -1.38414340 -1.65254212
H -3.09659724 -1.72331827 0.10752163
H 4.16962949 -1.21148707 0.21045741
H 2.00340782 2.45144844 -0.40033129
H 2.01284185 -2.43269561 0.39824069
$end

$rem
sym_ignore      true
jobtype         opt
method          b3lyp
basis           6-311++G(d,p)
dft_d           d3_op
mem_total       62000
MEM_STATIC      4000
ao2mo_disk      350000
max_scf_cycles  200
geom_opt_max_cycles 1000
geom_opt_tol_displacement 1
GEOM_OPT_TOL_GRADIENT       1
GEOM_OPT_TOL_ENERGY         1
$end

--------------------------------------------------------------
 Adding empirical dispersion correction 
 ----------------------------------------------------------------
 Doing -D3(op) with
 s6 =   1.00000
 s8 =   0.78311
 a1 =   0.30000
 a2 =   4.25000
 n  =  10.00000
 -D3 energy without 3body term =     -0.0242384330 hartrees
 ----------------------------------------------------------------
             Standard Nuclear Orientation (Angstroms)
    I     Atom           X                Y                Z
 ----------------------------------------------------------------
    1      C       0.8125055200    -0.6872219200     0.1065574800
    2      C       0.8088490100     0.7031053800    -0.0986112400
    3      C      -0.4283546200    -1.5226749600     0.1296609600
    4      C      -0.4432402900     1.5213823900    -0.1328335700
    5      O      -1.3182852100    -1.1165801100    -0.7983869400
    6      O      -0.5903247800    -2.4875493400     0.8375035300
    7      O      -1.2953034500     1.1564696000     0.8462686200
    8      O      -0.6464607000     2.4328175000    -0.8977245300
    9      C      -2.5629741100     1.8358194600     0.8688214800
   10      C      -2.5645473300    -1.8340169800    -0.8392746700
   11      C       2.0279969200    -1.3627698300     0.2298647500
   12      C       3.2324526800    -0.6749587700     0.1185584300
   13      C       3.2286303600     0.6977941800    -0.1216831500
   14      C       2.0209721000     1.3822456300    -0.2282742200
   15      H      -2.4204357700     2.9108472500     0.9860232800
   16      H      -2.3905556700    -2.8935667300    -1.0310797000
   17      H       4.1636036800     1.2370194000    -0.2194616900
   18      H      -3.1104445900     1.6451916400    -0.0563341700
   19      H      -3.0962154200     1.4237583400     1.7225834100
   20      H      -3.1296030400    -1.3841434000    -1.6525421200
   21      H      -3.0965972400    -1.7233182700     0.1075216300
   22      H       4.1696294900    -1.2114870700     0.2104574100
   23      H       2.0034078200     2.4514484400    -0.4003312900
   24      H       2.0128418500    -2.4326956100     0.3982406900
 ----------------------------------------------------------------
 Nuclear Repulsion Energy =   897.1055290249 hartrees
 There are       51 alpha and       51 beta electrons
 Requested basis set is 6-311++G(d,p)
 There are 134 shells and 378 basis functions

 Total QAlloc Memory Limit  62000 MB
 Mega-Array Size      3911 MB
 MEM_STATIC part      4000 MB
 A cutoff of  1.0D-11 yielded   7374 shell pairs
 There are     60677 function pairs (     65042 Cartesian)
 
 -------------------------------------------------------
 OpenMP Integral Computing Module                       
 Release: version 1.0, May 2013, Q-Chem Inc. Pittsburgh 
 -------------------------------------------------------
 Integral Job Info:
 Integral job number is                      11
 Integral operator is                         1
 short-range coefficients                     0
 long-range coefficients              100000000
 Omega coefficients                           0
 if combine SR and LR in K                    0
 Integral screening is                        0
 Integral computing path is                   2
 max size of driver memory is            800000
 size of driver memory is                593474
 size of scratch memory is              2361544
 max col of scratch BK array               1296
 max len of scratch array in speh3          155
 max len of scratch index in speh4           18
 max int batch size is                      520
 min int batch size is                       52
 fixed nKL is                                52
 max L of basis functions is                  2
 order of int derivative is                   0
 number of shells is                        134
 number of basis is                         392
 number of cartesian basis is               392
 number of contracted shell pairs          7374
 number of primitive shell pairs          17325
 maxK2 (contraction) of shell pair           36
 max number of K2 of shell pair               1
 max number of CS2 of shell pair           1306
 max number of PS2 of shell pair           3012
 mem total for path MDJ                  127288
 -------------------------------------------------------
 Smallest overlap matrix eigenvalue = 4.68E-07

 Q-Chem warning in module /fs/scratch/osu6415/qchem-kaunlao-vdw/stvman/mkSTV.C, line 281:

 Overlap eigenvalue is smaller than square root of threshold

 Linear dependence detected in AO basis
 Number of orthogonalized atomic orbitals = 377
 Maximum deviation from orthogonality = 1.239E-10

 Scale SEOQF with 1.000000e-01/1.000000e-01/1.000000e-01

 Standard Electronic Orientation quadrupole field applied
 Nucleus-field energy     =     0.0000000282 hartrees
 Guess from superposition of atomic densities
 Warning:  Energy on first SCF cycle will be non-variational
 A restricted hybrid HF-DFT SCF calculation will be
 performed using Pulay DIIS extrapolation
 Exchange:     0.2000 Hartree-Fock + 0.0800 Slater + 0.7200 B88
 Correlation:  0.1900 VWN1RPA + 0.8100 LYP
 Using SG-1 standard quadrature grid
 Dispersion:   Grimme D3
 SCF converges when DIIS error is below 1.0E-08
 using 20 threads for integral computing
 -------------------------------------------------------
 OpenMP Integral computing Module                
 Release: version 1.0, May 2013, Q-Chem Inc. Pittsburgh 
 -------------------------------------------------------
 -------------------------------------------------------
 OpenMP BLAS3 based DFT computing Module                
 Release: version 1.0, May 2013, Q-Chem Inc. Pittsburgh 
 -------------------------------------------------------
 ---------------------------------------
  Cycle       Energy         DIIS Error
 ---------------------------------------
    1    -691.1644911520      3.35E-02
    2    -687.9482469569      4.30E-03
    3    -687.4345427577      7.67E-03
    4    -688.1715424710      1.72E-03
    5    -688.2136668064      4.67E-04
    6    -688.2162036154      1.62E-04
    7    -688.2165506112      3.98E-05
    8    -688.2165717590      1.12E-05
    9    -688.2165736213      2.66E-06
   10    -688.2165736828      1.69E-06
   11    -688.2165737407      1.84E-07
   12    -688.2165737409      8.76E-08
   13    -688.2165737407      2.53E-08
   14    -688.2165737397      1.84E-08
   15    -688.2165737395      3.59E-09 Convergence criterion met
 ---------------------------------------
 SCF time:  CPU 509.05 s  wall 28.19 s
 SCF   energy in the final basis set = -688.21657374
 Total energy in the final basis set = -688.21657374
 
 --------------------------------------------------------------
 
                    Orbital Energies (a.u.)
 --------------------------------------------------------------
 
 Alpha MOs
 -- Occupied --
-19.178 -19.178 -19.121 -19.121 -10.314 -10.314 -10.234 -10.234
-10.213 -10.212 -10.199 -10.199 -10.198 -10.198  -1.123  -1.117
 -1.033  -1.032  -0.888  -0.799  -0.785  -0.744  -0.734  -0.658
 -0.638  -0.593  -0.580  -0.556  -0.521  -0.512  -0.494  -0.493
 -0.487  -0.479  -0.467  -0.456  -0.440  -0.433  -0.419  -0.407
 -0.389  -0.384  -0.382  -0.367  -0.367  -0.326  -0.313  -0.301
 -0.297  -0.275  -0.274
 -- Virtual --
 -0.067  -0.044  -0.012  -0.006   0.006   0.008   0.016   0.020
  0.024   0.024   0.035   0.040   0.043   0.052   0.053   0.059
  0.064   0.071   0.072   0.094   0.095   0.100   0.101   0.102
  0.109   0.114   0.116   0.117   0.124   0.126   0.128   0.133
  0.136   0.139   0.142   0.144   0.151   0.156   0.158   0.159
  0.166   0.171   0.175   0.179   0.185   0.189   0.197   0.203
  0.207   0.215   0.216   0.220   0.222   0.228   0.232   0.237
  0.244   0.250   0.259   0.267   0.269   0.276   0.279   0.282
  0.285   0.287   0.302   0.305   0.311   0.315   0.320   0.333
  0.334   0.336   0.340   0.342   0.346   0.355   0.356   0.367
  0.373   0.378   0.388   0.390   0.396   0.398   0.413   0.427
  0.451   0.479   0.492   0.495   0.499   0.507   0.519   0.529
  0.539   0.542   0.555   0.565   0.573   0.577   0.581   0.593
  0.595   0.612   0.628   0.637   0.643   0.644   0.647   0.660
  0.661   0.669   0.674   0.688   0.697   0.712   0.723   0.725
  0.727   0.734   0.757   0.760   0.770   0.790   0.814   0.819
  0.833   0.846   0.848   0.856   0.859   0.872   0.914   0.916
  0.937   0.957   0.970   1.013   1.017   1.026   1.032   1.055
  1.059   1.063   1.087   1.101   1.114   1.125   1.135   1.178
  1.189   1.193   1.209   1.212   1.226   1.234   1.270   1.287
  1.305   1.307   1.330   1.339   1.353   1.381   1.391   1.441
  1.445   1.459   1.468   1.480   1.503   1.512   1.528   1.535
  1.536   1.550   1.556   1.569   1.570   1.589   1.607   1.628
  1.642   1.672   1.676   1.702   1.707   1.714   1.715   1.727
  1.734   1.746   1.753   1.759   1.788   1.796   1.814   1.824
  1.841   1.871   1.898   1.929   1.933   1.950   1.952   1.969
  1.976   1.992   2.002   2.046   2.049   2.062   2.089   2.104
  2.121   2.123   2.147   2.190   2.239   2.268   2.292   2.355
  2.400   2.418   2.444   2.448   2.461   2.483   2.492   2.496
  2.517   2.551   2.568   2.595   2.601   2.604   2.651   2.652
  2.663   2.696   2.709   2.716   2.725   2.752   2.773   2.777
  2.806   2.808   2.822   2.833   2.844   2.851   2.883   2.884
  2.893   2.901   2.940   2.947   2.989   3.035   3.047   3.061
  3.082   3.094   3.109   3.166   3.212   3.219   3.224   3.253
  3.274   3.285   3.360   3.365   3.384   3.410   3.517   3.533
  3.582   3.586   3.621   3.641   3.716   3.771   3.772   3.804
  3.852   3.859   4.022   4.024   4.052   4.057   4.111   4.134
  4.171   4.269   4.337   4.833   5.009   5.081   5.102   5.157
  5.219   5.234   5.387   5.406   5.623   5.627   5.862   5.867
 23.573  23.838  23.848  23.923  23.926  23.938  23.949  24.052
 24.078  24.169  49.877  49.892  50.012  50.025
 --------------------------------------------------------------
 
          Ground-State Mulliken Net Atomic Charges

     Atom                 Charge (a.u.)
  ----------------------------------------
      1 C                     0.748634
      2 C                     0.609041
      3 C                    -0.497899
      4 C                    -0.533014
      5 O                    -0.010932
      6 O                    -0.217831
      7 O                     0.009594
      8 O                    -0.215482
      9 C                    -0.246757
     10 C                    -0.249564
     11 C                    -0.301098
     12 C                    -0.242697
     13 C                    -0.250410
     14 C                    -0.350166
     15 H                     0.176456
     16 H                     0.176364
     17 H                     0.172916
     18 H                     0.178128
     19 H                     0.160574
     20 H                     0.161674
     21 H                     0.181928
     22 H                     0.173268
     23 H                     0.183045
     24 H                     0.184226
  ----------------------------------------
  Sum of atomic charges =    -0.000000

 -----------------------------------------------------------------
                    Cartesian Multipole Moments
 -----------------------------------------------------------------
    Charge (ESU x 10^10)
                -0.0000
    Dipole Moment (Debye)
         X      -0.2258      Y       0.0515      Z       0.0600
       Tot       0.2392
    Quadrupole Moments (Debye-Ang)
        XX     -60.4843     XY       0.2331     YY     -86.0888
        XZ      -0.2430     YZ       9.2245     ZZ     -86.7757
    Octopole Moments (Debye-Ang^2)
       XXX     -24.1078    XXY      -0.5448    XYY      -1.4569
       YYY       1.7729    XXZ       0.1384    XYZ     -15.3539
       YYZ      -0.1542    XZZ     -18.0429    YZZ      -1.0246
       ZZZ      -0.0443
    Hexadecapole Moments (Debye-Ang^3)
      XXXX   -1707.1717   XXXY       1.1726   XXYY    -470.9835
      XYYY       0.9608   YYYY   -1336.8424   XXXZ       0.0374
      XXYZ      11.9514   XYYZ      -0.8244   YYYZ      71.9856
      XXZZ    -375.8852   XYZZ       0.7093   YYZZ    -279.4672
      XZZZ       0.0270   YZZZ       9.6059   ZZZZ    -272.6146
 -----------------------------------------------------------------
 Calculating analytic gradient of the SCF energy
 Gradient of SCF Energy
            1           2           3           4           5           6
    1   0.0000015  -0.0000028  -0.0002104   0.0001274  -0.0000004   0.0001506
    2  -0.0000629  -0.0000614   0.0003103   0.0002002  -0.0000044  -0.0002234
    3   0.0001989  -0.0001076   0.0002682   0.0000881  -0.0000122  -0.0002829
            7           8           9          10          11          12
    1  -0.0000102  -0.0000659   0.0000095   0.0000001  -0.0000025   0.0000046
    2  -0.0000178  -0.0001359   0.0000136   0.0000073  -0.0000026  -0.0000045
    3  -0.0000159  -0.0001330  -0.0000062   0.0000075   0.0000084  -0.0000093
           13          14          15          16          17          18
    1   0.0000067   0.0000058   0.0000041  -0.0000053   0.0000032   0.0000012
    2  -0.0000082  -0.0000134   0.0000053   0.0000041  -0.0000120  -0.0000032
    3   0.0000188  -0.0000193  -0.0000170  -0.0000038  -0.0000127  -0.0000041
           19          20          21          22          23          24
    1  -0.0000012  -0.0000075   0.0000001  -0.0000027   0.0000026  -0.0000084
    2   0.0000184   0.0000025   0.0000025  -0.0000069  -0.0000030  -0.0000047
    3  -0.0000038   0.0000023   0.0000005   0.0000225   0.0000030   0.0000095
 Max gradient component =       3.103E-04
 RMS gradient           =       8.604E-05
 Gradient time:  CPU 167.90 s  wall 13.55 s
 Geometry Optimization Parameters
   NAtoms,    NIC,     NZ,  NCons,   NDum,   NFix, NCnnct, MaxDiis
       24     152       0       0       0       0       0       0


** GEOMETRY OPTIMIZATION IN DELOCALIZED INTERNAL COORDINATES **
   Searching for a Minimum

   Optimization Cycle:   1

                       Coordinates (Angstroms)
     ATOM                X               Y               Z
      1  C         0.8125055200   -0.6872219200    0.1065574800
      2  C         0.8088490100    0.7031053800   -0.0986112400
      3  C        -0.4283546200   -1.5226749600    0.1296609600
      4  C        -0.4432402900    1.5213823900   -0.1328335700
      5  O        -1.3182852100   -1.1165801100   -0.7983869400
      6  O        -0.5903247800   -2.4875493400    0.8375035300
      7  O        -1.2953034500    1.1564696000    0.8462686200
      8  O        -0.6464607000    2.4328175000   -0.8977245300
      9  C        -2.5629741100    1.8358194600    0.8688214800
     10  C        -2.5645473300   -1.8340169800   -0.8392746700
     11  C         2.0279969200   -1.3627698300    0.2298647500
     12  C         3.2324526800   -0.6749587700    0.1185584300
     13  C         3.2286303600    0.6977941800   -0.1216831500
     14  C         2.0209721000    1.3822456300   -0.2282742200
     15  H        -2.4204357700    2.9108472500    0.9860232800
     16  H        -2.3905556700   -2.8935667300   -1.0310797000
     17  H         4.1636036800    1.2370194000   -0.2194616900
     18  H        -3.1104445900    1.6451916400   -0.0563341700
     19  H        -3.0962154200    1.4237583400    1.7225834100
     20  H        -3.1296030400   -1.3841434000   -1.6525421200
     21  H        -3.0965972400   -1.7233182700    0.1075216300
     22  H         4.1696294900   -1.2114870700    0.2104574100
     23  H         2.0034078200    2.4514484400   -0.4003312900
     24  H         2.0128418500   -2.4326956100    0.3982406900
   Point Group: c1    Number of degrees of freedom:    66


   Energy is   -688.216573739


 Attempting to Generate Delocalized Internal Coordinates

 66 Hessian modes will be used to form the next step
  Hessian Eigenvalues:
     0.009688    0.009698    0.010540    0.010565    0.014038    0.014103
     0.018372    0.018677    0.022260    0.022472    0.022489    0.023157
     0.023201    0.023238    0.023342    0.023360    0.023423    0.101297
     0.101306    0.106033    0.106046    0.159979    0.159985    0.159994
     0.159997    0.160000    0.160000    0.160000    0.160000    0.160000
     0.160000    0.219995    0.224829    0.244496    0.249524    0.249690
     0.249792    0.249796    0.250000    0.250000    0.250000    0.250000
     0.327842    0.327923    0.346081    0.346198    0.347260    0.347276
     0.350805    0.350820    0.355398    0.355458    0.356105    0.356223
     0.397787    0.398048    0.418560    0.423415    0.455545    0.464499
     0.466838    0.469293    0.553648    0.553925    1.011031    1.013389

 Minimum Search - Taking Simple RFO Step
 Searching for Lamda that Minimizes Along All modes
 Value Taken    Lamda =  -0.00003013
 Step Taken.  Stepsize is  0.051625

                             Maximum     Tolerance    Cnvgd?
         Gradient           0.000250      0.000001      NO
         Displacement       0.025761      0.000001      NO
         Energy change     *********      0.000000      NO


 New Cartesian Coordinates Obtained by Inverse Iteration

 Displacement from previous Coordinates is:  0.100930
 Adding empirical dispersion correction 
 ----------------------------------------------------------------
 Doing -D3(op) with
 s6 =   1.00000
 s8 =   0.78311
 a1 =   0.30000
 a2 =   4.25000
 n  =  10.00000
 -D3 energy without 3body term =     -0.0242400673 hartrees
 ----------------------------------------------------------------
             Standard Nuclear Orientation (Angstroms)
    I     Atom           X                Y                Z
 ----------------------------------------------------------------
    1      C       0.8128530274    -0.6876406999     0.1004745334
    2      C       0.8089335025     0.7029501762    -0.1028421435
    3      C      -0.4281219224    -1.5228541228     0.1263983223
    4      C      -0.4432122285     1.5212943433    -0.1339733461
    5      O      -1.3141436278    -1.1264431273    -0.8095300506
    6      O      -0.6005279392    -2.4699566677     0.8554682198
    7      O      -1.2969698436     1.1495901790     0.8410789900
    8      O      -0.6412801182     2.4436235896    -0.8870743150
    9      C      -2.5623827549     1.8329100542     0.8697314311
   10      C      -2.5647175718    -1.8368293811    -0.8407890532
   11      C       2.0283165012    -1.3627065569     0.2265372209
   12      C       3.2326911836    -0.6744507477     0.1172369793
   13      C       3.2287455051     0.6984887204    -0.1219846391
   14      C       2.0210328326     1.3827304926    -0.2293314505
   15      H      -2.4163684755     2.9060905981     0.9990054421
   16      H      -2.3968710586    -2.9005760540    -1.0139385626
   17      H       4.1636862443     1.2382085265    -0.2173071915
   18      H      -3.1094294317     1.6544148740    -0.0580933667
   19      H      -3.0979563430     1.4131892380     1.7182832958
   20      H      -3.1252582108    -1.3975441519    -1.6629169406
   21      H      -3.0980544772    -1.7065772299     0.1027942374
   22      H       4.1699170194    -1.2106616349     0.2104701691
   23      H       2.0034129570     2.4522454128    -0.3994171228
   24      H       2.0132524399    -2.4325796106     0.3952437209
 ----------------------------------------------------------------
 Nuclear Repulsion Energy =   897.0620254817 hartrees
 There are       51 alpha and       51 beta electrons
 Applying Cartesian multipole field
    Component          Value
    ---------          -----
     (2,0,0)        1.00000E-11
     (0,2,0)        2.00000E-11
     (0,0,2)       -3.00000E-11
 Nucleus-field energy     =     0.0000000282 hartrees
 Requested basis set is 6-311++G(d,p)
 There are 134 shells and 378 basis functions
 A cutoff of  1.0D-11 yielded   7371 shell pairs
 There are     60656 function pairs (     65021 Cartesian)
 Smallest overlap matrix eigenvalue = 4.68E-07

 Q-Chem warning in module /fs/scratch/osu6415/qchem-kaunlao-vdw/stvman/mkSTV.C, line 281:

 Overlap eigenvalue is smaller than square root of threshold

 Linear dependence detected in AO basis
 Number of orthogonalized atomic orbitals = 377
 Maximum deviation from orthogonality = 1.593E-10
 Guess MOs from SCF MO coefficient file
 Reading MOs from coefficient file
 Reading MOs from coefficient file
 A restricted hybrid HF-DFT SCF calculation will be
 performed using Pulay DIIS extrapolation
 Exchange:     0.2000 Hartree-Fock + 0.0800 Slater + 0.7200 B88
 Correlation:  0.1900 VWN1RPA + 0.8100 LYP
 Using SG-1 standard quadrature grid
 Dispersion:   Grimme D3
 SCF converges when DIIS error is below 1.0E-08
 Geometry optimization detected.  Setting ReadMinima to 0
 Setting SaveMinima to 0
 using 20 threads for integral computing
 -------------------------------------------------------
 OpenMP Integral computing Module                
 Release: version 1.0, May 2013, Q-Chem Inc. Pittsburgh 
 -------------------------------------------------------
 -------------------------------------------------------
 OpenMP BLAS3 based DFT computing Module                
 Release: version 1.0, May 2013, Q-Chem Inc. Pittsburgh 
 -------------------------------------------------------
 ---------------------------------------
  Cycle       Energy         DIIS Error
 ---------------------------------------
    1    -688.2155329162      3.17E-04
    2    -688.2165678991      1.80E-05
    3    -688.2165770881      1.23E-05
    4    -688.2165783090      8.39E-06
    5    -688.2165791742      3.22E-06
    6    -688.2165792925      1.31E-06
    7    -688.2165793151      3.41E-07
    8    -688.2165793168      8.98E-08
    9    -688.2165793168      4.78E-08
   10    -688.2165793176      1.72E-08
   11    -688.2165793163      6.52E-09 Convergence criterion met
 ---------------------------------------
 SCF time:  CPU 374.05 s  wall 21.10 s
 SCF   energy in the final basis set = -688.21657932
 Total energy in the final basis set = -688.21657932
 
 --------------------------------------------------------------
 
                    Orbital Energies (a.u.)
 --------------------------------------------------------------
 
 Alpha MOs
 -- Occupied --
-19.178 -19.178 -19.121 -19.121 -10.314 -10.314 -10.234 -10.234
-10.213 -10.213 -10.199 -10.199 -10.198 -10.198  -1.123  -1.117
 -1.033  -1.032  -0.888  -0.799  -0.785  -0.744  -0.734  -0.658
 -0.639  -0.593  -0.580  -0.556  -0.521  -0.512  -0.494  -0.493
 -0.487  -0.479  -0.467  -0.456  -0.440  -0.433  -0.419  -0.407
 -0.389  -0.384  -0.382  -0.367  -0.367  -0.326  -0.313  -0.301
 -0.297  -0.275  -0.274
 -- Virtual --
 -0.067  -0.044  -0.012  -0.006   0.006   0.008   0.015   0.020
  0.024   0.024   0.035   0.040   0.043   0.052   0.053   0.059
  0.064   0.071   0.072   0.094   0.095   0.100   0.101   0.102
  0.109   0.114   0.116   0.116   0.124   0.126   0.128   0.133
  0.136   0.139   0.142   0.144   0.151   0.156   0.158   0.159
  0.166   0.171   0.175   0.178   0.185   0.189   0.197   0.203
  0.207   0.215   0.216   0.220   0.222   0.228   0.232   0.237
  0.244   0.250   0.259   0.267   0.269   0.276   0.279   0.282
  0.285   0.287   0.302   0.305   0.311   0.316   0.320   0.333
  0.334   0.336   0.340   0.342   0.346   0.355   0.356   0.367
  0.373   0.378   0.388   0.390   0.396   0.398   0.414   0.427
  0.451   0.479   0.491   0.496   0.500   0.507   0.519   0.529
  0.539   0.542   0.555   0.565   0.573   0.577   0.581   0.593
  0.595   0.612   0.628   0.636   0.643   0.644   0.647   0.660
  0.661   0.669   0.674   0.687   0.697   0.712   0.723   0.725
  0.728   0.733   0.757   0.760   0.769   0.790   0.813   0.819
  0.832   0.845   0.848   0.855   0.859   0.872   0.914   0.916
  0.937   0.957   0.970   1.013   1.016   1.027   1.031   1.055
  1.059   1.063   1.087   1.101   1.114   1.124   1.135   1.179
  1.190   1.193   1.208   1.212   1.226   1.235   1.270   1.287
  1.305   1.307   1.331   1.338   1.352   1.381   1.391   1.441
  1.445   1.459   1.468   1.480   1.503   1.512   1.528   1.535
  1.536   1.551   1.556   1.569   1.570   1.588   1.607   1.628
  1.641   1.672   1.677   1.702   1.707   1.714   1.715   1.727
  1.734   1.746   1.753   1.758   1.788   1.796   1.813   1.823
  1.840   1.872   1.898   1.929   1.933   1.950   1.952   1.969
  1.976   1.992   2.001   2.047   2.049   2.062   2.089   2.104
  2.121   2.122   2.147   2.190   2.239   2.268   2.292   2.355
  2.400   2.418   2.444   2.448   2.461   2.482   2.492   2.496
  2.516   2.551   2.568   2.595   2.601   2.604   2.651   2.652
  2.663   2.696   2.709   2.716   2.725   2.752   2.774   2.776
  2.806   2.808   2.822   2.834   2.843   2.851   2.883   2.884
  2.893   2.901   2.940   2.947   2.989   3.035   3.047   3.061
  3.081   3.094   3.109   3.165   3.212   3.219   3.224   3.253
  3.273   3.285   3.360   3.365   3.383   3.410   3.517   3.532
  3.582   3.586   3.622   3.641   3.715   3.771   3.772   3.804
  3.852   3.859   4.022   4.024   4.052   4.057   4.111   4.134
  4.171   4.268   4.336   4.833   5.010   5.081   5.103   5.157
  5.220   5.234   5.386   5.405   5.623   5.626   5.862   5.867
 23.573  23.838  23.847  23.923  23.925  23.938  23.949  24.052
 24.078  24.169  49.877  49.892  50.012  50.025
 --------------------------------------------------------------
 
          Ground-State Mulliken Net Atomic Charges

     Atom                 Charge (a.u.)
  ----------------------------------------
      1 C                     0.711369
      2 C                     0.659315
      3 C                    -0.510835
      4 C                    -0.526393
      5 O                    -0.006733
      6 O                    -0.216729
      7 O                     0.007049
      8 O                    -0.215840
      9 C                    -0.247872
     10 C                    -0.248403
     11 C                    -0.325423
     12 C                    -0.244621
     13 C                    -0.247047
     14 C                    -0.336218
     15 H                     0.176429
     16 H                     0.176281
     17 H                     0.172939
     18 H                     0.178805
     19 H                     0.160913
     20 H                     0.161699
     21 H                     0.180964
     22 H                     0.173172
     23 H                     0.183182
     24 H                     0.183996
  ----------------------------------------
  Sum of atomic charges =    -0.000000

 -----------------------------------------------------------------
                    Cartesian Multipole Moments
 -----------------------------------------------------------------
    Charge (ESU x 10^10)
                -0.0000
    Dipole Moment (Debye)
         X      -0.2226      Y       0.0168      Z       0.0327
       Tot       0.2257
    Quadrupole Moments (Debye-Ang)
        XX     -60.4912     XY       0.1965     YY     -86.0128
        XZ      -0.1793     YZ       9.2583     ZZ     -86.8208
    Octopole Moments (Debye-Ang^2)
       XXX     -24.1252    XXY      -0.5078    XYY      -1.4219
       YYY       0.4329    XXZ       0.1720    XYZ     -15.3926
       YYZ      -0.1223    XZZ     -18.0275    YZZ      -0.6950
       ZZZ      -0.0262
    Hexadecapole Moments (Debye-Ang^3)
      XXXX   -1707.2706   XXXY       0.2624   XXYY    -470.8974
      XYYY       0.4915   YYYY   -1334.7016   XXXZ       0.8772
      XXYZ      12.0438   XYYZ      -0.3855   YYYZ      71.8981
      XXZZ    -376.0223   XYZZ       0.0705   YYZZ    -279.6347
      XZZZ       0.7973   YZZZ       9.5087   ZZZZ    -273.4038
 -----------------------------------------------------------------
 Calculating analytic gradient of the SCF energy
 Gradient of SCF Energy
            1           2           3           4           5           6
    1  -0.0003682   0.0002997   0.0009834  -0.0005809  -0.0004356  -0.0003337
    2   0.0004068   0.0002592  -0.0010569  -0.0005446   0.0002302   0.0002672
    3   0.0003716   0.0000671  -0.0013601  -0.0005887   0.0003851   0.0004854
            7           8           9          10          11          12
    1   0.0002488   0.0001989   0.0000439  -0.0000137   0.0000482  -0.0000311
    2   0.0003086   0.0001240   0.0000060   0.0000057  -0.0000402  -0.0000060
    3   0.0002743   0.0002305  -0.0000134   0.0000184   0.0001620  -0.0000285
           13          14          15          16          17          18
    1   0.0000188  -0.0000565  -0.0000178   0.0000175   0.0000080   0.0000179
    2  -0.0000155  -0.0000074   0.0000140   0.0000104  -0.0000071  -0.0000104
    3  -0.0000182   0.0000375  -0.0000107   0.0000040   0.0000069  -0.0000200
           19          20          21          22          23          24
    1  -0.0000007  -0.0000038  -0.0000123  -0.0000094   0.0000331  -0.0000544
    2   0.0000209   0.0000103   0.0000160  -0.0000108   0.0000034   0.0000164
    3  -0.0000060   0.0000055  -0.0000188   0.0000143  -0.0000070   0.0000086
 Max gradient component =       1.360E-03
 RMS gradient           =       3.054E-04
 Gradient time:  CPU 168.58 s  wall 13.54 s
 Geometry Optimization Parameters
   NAtoms,    NIC,     NZ,  NCons,   NDum,   NFix, NCnnct, MaxDiis
       24     152       0       0       0       0       0       0

 Cartesian Hessian Update
 Hessian Updated using BFGS Update


** GEOMETRY OPTIMIZATION IN DELOCALIZED INTERNAL COORDINATES **
   Searching for a Minimum

   Optimization Cycle:   2

                       Coordinates (Angstroms)
     ATOM                X               Y               Z
      1  C         0.8128530274   -0.6876406999    0.1004745334
      2  C         0.8089335025    0.7029501762   -0.1028421435
      3  C        -0.4281219224   -1.5228541228    0.1263983223
      4  C        -0.4432122285    1.5212943433   -0.1339733461
      5  O        -1.3141436278   -1.1264431273   -0.8095300506
      6  O        -0.6005279392   -2.4699566677    0.8554682198
      7  O        -1.2969698436    1.1495901790    0.8410789900
      8  O        -0.6412801182    2.4436235896   -0.8870743150
      9  C        -2.5623827549    1.8329100542    0.8697314311
     10  C        -2.5647175718   -1.8368293811   -0.8407890532
     11  C         2.0283165012   -1.3627065569    0.2265372209
     12  C         3.2326911836   -0.6744507477    0.1172369793
     13  C         3.2287455051    0.6984887204   -0.1219846391
     14  C         2.0210328326    1.3827304926   -0.2293314505
     15  H        -2.4163684755    2.9060905981    0.9990054421
     16  H        -2.3968710586   -2.9005760540   -1.0139385626
     17  H         4.1636862443    1.2382085265   -0.2173071915
     18  H        -3.1094294317    1.6544148740   -0.0580933667
     19  H        -3.0979563430    1.4131892380    1.7182832958
     20  H        -3.1252582108   -1.3975441519   -1.6629169406
     21  H        -3.0980544772   -1.7065772299    0.1027942374
     22  H         4.1699170194   -1.2106616349    0.2104701691
     23  H         2.0034129570    2.4522454128   -0.3994171228
     24  H         2.0132524399   -2.4325796106    0.3952437209
   Point Group: c1    Number of degrees of freedom:    66


   Energy is   -688.216579316

 Hessian Updated using BFGS Update

 60 Hessian modes will be used to form the next step
  Hessian Eigenvalues:
     0.003852    0.009767    0.010539    0.010563    0.014043    0.017781
     0.018395    0.022048    0.022470    0.022478    0.023155    0.023200
     0.023236    0.023339    0.023359    0.023423    0.060362    0.101306
     0.101308    0.106042    0.106047    0.159981    0.159991    0.159994
     0.159995    0.159997    0.160327    0.219995    0.224858    0.244529
     0.249682    0.249773    0.249791    0.249885    0.249998    0.259148
     0.327849    0.328254    0.346083    0.346201    0.347260    0.347276
     0.350805    0.350820    0.355399    0.355459    0.356115    0.356224
     0.397792    0.398067    0.418985    0.423427    0.455732    0.464499
     0.466853    0.469296    0.553750    0.554123    1.011406    1.013528

 Minimum Search - Taking Simple RFO Step
 Searching for Lamda that Minimizes Along All modes
 Value Taken    Lamda =  -0.00004713
 Step Taken.  Stepsize is  0.075303

                             Maximum     Tolerance    Cnvgd?
         Gradient           0.000743      0.000001      NO
         Displacement       0.054772      0.000001      NO
         Energy change     -0.000006      0.000000      NO


 New Cartesian Coordinates Obtained by Inverse Iteration

 Displacement from previous Coordinates is:  0.202276
 Adding empirical dispersion correction 
 ----------------------------------------------------------------
 Doing -D3(op) with
 s6 =   1.00000
 s8 =   0.78311
 a1 =   0.30000
 a2 =   4.25000
 n  =  10.00000
 -D3 energy without 3body term =     -0.0242419478 hartrees
 ----------------------------------------------------------------
             Standard Nuclear Orientation (Angstroms)
    I     Atom           X                Y                Z
 ----------------------------------------------------------------
    1      C       0.8103943742    -0.6808839739     0.1000563454
    2      C       0.8114510154     0.7098753009    -0.1012986940
    3      C      -0.4352773611    -1.5083829555     0.1395556171
    4      C      -0.4372431141     1.5337781326    -0.1223772093
    5      O      -1.3091090882    -1.1361065161    -0.8174105246
    6      O      -0.6148316041    -2.4394248402     0.8872924879
    7      O      -1.3007041332     1.1417445557     0.8360645758
    8      O      -0.6304255501     2.4683006282    -0.8616407492
    9      C      -2.5657667177     1.8256316155     0.8676986383
   10      C      -2.5603827046    -1.8454539662    -0.8446655830
   11      C       2.0232956416    -1.3613252835     0.2216222536
   12      C       3.2301630997    -0.6781821183     0.1076998534
   13      C       3.2311051711     0.6951119562    -0.1296465143
   14      C       2.0259551073     1.3848067848    -0.2306904006
   15      H      -2.4199802139     2.8952403429     1.0240313976
   16      H      -2.3922671821    -2.9138976057    -0.9856874797
   17      H       4.1679644002     1.2310371641    -0.2274470211
   18      H      -3.1033480363     1.6700375171    -0.0697287114
   19      H      -3.1104996297     1.3864352483     1.7004127653
   20      H      -3.1096721193    -1.4286753780    -1.6858766867
   21      H      -3.1053813165    -1.6880331792     0.0880701196
   22      H       4.1654756008    -1.2184343063     0.1967541801
   23      H       2.0121914374     2.4547549562    -0.3983202005
   24      H       2.0044401331    -2.4310378595     0.3910559202
 ----------------------------------------------------------------
 Nuclear Repulsion Energy =   897.0715008036 hartrees
 There are       51 alpha and       51 beta electrons
 Applying Cartesian multipole field
    Component          Value
    ---------          -----
     (2,0,0)        1.00000E-11
     (0,2,0)        2.00000E-11
     (0,0,2)       -3.00000E-11
 Nucleus-field energy     =     0.0000000281 hartrees
 Requested basis set is 6-311++G(d,p)
 There are 134 shells and 378 basis functions
 A cutoff of  1.0D-11 yielded   7366 shell pairs
 There are     60591 function pairs (     64949 Cartesian)
 Smallest overlap matrix eigenvalue = 4.66E-07

 Q-Chem warning in module /fs/scratch/osu6415/qchem-kaunlao-vdw/stvman/mkSTV.C, line 281:

 Overlap eigenvalue is smaller than square root of threshold

 Linear dependence detected in AO basis
 Number of orthogonalized atomic orbitals = 377
 Maximum deviation from orthogonality = 2.398E-10
 Guess MOs from SCF MO coefficient file
 Reading MOs from coefficient file
 Reading MOs from coefficient file
 A restricted hybrid HF-DFT SCF calculation will be
 performed using Pulay DIIS extrapolation
 Exchange:     0.2000 Hartree-Fock + 0.0800 Slater + 0.7200 B88
 Correlation:  0.1900 VWN1RPA + 0.8100 LYP
 Using SG-1 standard quadrature grid
 Dispersion:   Grimme D3
 SCF converges when DIIS error is below 1.0E-08
 Geometry optimization detected.  Setting ReadMinima to 0
 Setting SaveMinima to 0
 using 20 threads for integral computing
 -------------------------------------------------------
 OpenMP Integral computing Module                
 Release: version 1.0, May 2013, Q-Chem Inc. Pittsburgh 
 -------------------------------------------------------
 -------------------------------------------------------
 OpenMP BLAS3 based DFT computing Module                
 Release: version 1.0, May 2013, Q-Chem Inc. Pittsburgh 
 -------------------------------------------------------
 ---------------------------------------
  Cycle       Energy         DIIS Error
 ---------------------------------------
    1    -688.2157037243      4.70E-04
    2    -688.2165128678      5.60E-05
    3    -688.2163800816      1.02E-04
    4    -688.2165832181      8.47E-06
    5    -688.2165842045      4.58E-06
    6    -688.2165844980      1.84E-06
    7    -688.2165845374      8.18E-07
    8    -688.2165845458      2.55E-07
    9    -688.2165845468      6.56E-08
   10    -688.2165845469      2.39E-08
   11    -688.2165845469      5.41E-09 Convergence criterion met
 ---------------------------------------
 SCF time:  CPU 377.05 s  wall 20.99 s
 SCF   energy in the final basis set = -688.21658455
 Total energy in the final basis set = -688.21658455
 
 --------------------------------------------------------------
 
                    Orbital Energies (a.u.)
 --------------------------------------------------------------
 
 Alpha MOs
 -- Occupied --
-19.178 -19.178 -19.121 -19.121 -10.314 -10.314 -10.234 -10.234
-10.213 -10.212 -10.199 -10.199 -10.198 -10.198  -1.123  -1.117
 -1.033  -1.032  -0.888  -0.799  -0.785  -0.744  -0.734  -0.658
 -0.639  -0.593  -0.580  -0.556  -0.521  -0.512  -0.494  -0.493
 -0.487  -0.479  -0.467  -0.456  -0.440  -0.433  -0.419  -0.407
 -0.389  -0.384  -0.382  -0.367  -0.367  -0.326  -0.313  -0.301
 -0.297  -0.275  -0.274
 -- Virtual --
 -0.067  -0.044  -0.012  -0.006   0.006   0.008   0.015   0.020
  0.024   0.024   0.035   0.040   0.043   0.052   0.053   0.059
  0.064   0.071   0.072   0.094   0.095   0.100   0.101   0.102
  0.109   0.114   0.116   0.116   0.124   0.126   0.128   0.133
  0.136   0.139   0.142   0.144   0.151   0.156   0.158   0.159
  0.166   0.171   0.175   0.178   0.185   0.189   0.197   0.203
  0.207   0.215   0.216   0.220   0.222   0.228   0.232   0.237
  0.244   0.250   0.259   0.267   0.269   0.276   0.279   0.282
  0.285   0.287   0.302   0.305   0.312   0.316   0.320   0.333
  0.335   0.336   0.340   0.342   0.347   0.355   0.356   0.367
  0.373   0.378   0.388   0.390   0.396   0.398   0.414   0.426
  0.451   0.479   0.491   0.496   0.500   0.507   0.519   0.529
  0.539   0.542   0.555   0.565   0.573   0.577   0.580   0.593
  0.594   0.612   0.629   0.636   0.643   0.644   0.647   0.660
  0.661   0.669   0.674   0.688   0.697   0.712   0.723   0.725
  0.728   0.734   0.757   0.760   0.769   0.790   0.813   0.819
  0.832   0.845   0.848   0.855   0.859   0.872   0.915   0.915
  0.937   0.957   0.970   1.013   1.016   1.028   1.030   1.054
  1.059   1.064   1.088   1.101   1.114   1.124   1.136   1.178
  1.190   1.192   1.208   1.212   1.226   1.235   1.270   1.287
  1.305   1.308   1.330   1.338   1.353   1.381   1.390   1.441
  1.446   1.458   1.468   1.480   1.503   1.512   1.528   1.535
  1.536   1.551   1.556   1.569   1.571   1.588   1.607   1.628
  1.642   1.672   1.677   1.702   1.707   1.713   1.715   1.727
  1.734   1.746   1.753   1.758   1.788   1.795   1.814   1.824
  1.840   1.872   1.898   1.930   1.931   1.950   1.952   1.969
  1.976   1.992   2.001   2.047   2.049   2.062   2.089   2.104
  2.121   2.122   2.147   2.190   2.240   2.268   2.292   2.356
  2.400   2.418   2.444   2.448   2.461   2.482   2.493   2.497
  2.516   2.551   2.568   2.595   2.601   2.604   2.651   2.652
  2.663   2.696   2.709   2.716   2.725   2.752   2.775   2.776
  2.806   2.807   2.822   2.834   2.843   2.851   2.883   2.884
  2.893   2.901   2.940   2.947   2.989   3.035   3.046   3.061
  3.081   3.094   3.109   3.165   3.212   3.219   3.224   3.253
  3.273   3.284   3.360   3.365   3.383   3.410   3.517   3.532
  3.583   3.585   3.622   3.641   3.715   3.771   3.772   3.804
  3.852   3.859   4.022   4.024   4.052   4.057   4.110   4.134
  4.172   4.268   4.336   4.833   5.010   5.081   5.103   5.157
  5.220   5.233   5.386   5.405   5.623   5.625   5.862   5.867
 23.573  23.838  23.847  23.923  23.925  23.938  23.949  24.052
 24.078  24.169  49.877  49.892  50.011  50.025
 --------------------------------------------------------------
 
          Ground-State Mulliken Net Atomic Charges

     Atom                 Charge (a.u.)
  ----------------------------------------
      1 C                     0.680273
      2 C                     0.704040
      3 C                    -0.530728
      4 C                    -0.515195
      5 O                    -0.000214
      6 O                    -0.215484
      7 O                     0.002369
      8 O                    -0.216789
      9 C                    -0.247796
     10 C                    -0.247953
     11 C                    -0.343439
     12 C                    -0.246450
     13 C                    -0.241543
     14 C                    -0.329238
     15 H                     0.176306
     16 H                     0.176342
     17 H                     0.172877
     18 H                     0.180030
     19 H                     0.161352
     20 H                     0.161539
     21 H                     0.179542
     22 H                     0.173182
     23 H                     0.183496
     24 H                     0.183482
  ----------------------------------------
  Sum of atomic charges =    -0.000000

 -----------------------------------------------------------------
                    Cartesian Multipole Moments
 -----------------------------------------------------------------
    Charge (ESU x 10^10)
                -0.0000
    Dipole Moment (Debye)
         X      -0.2229      Y      -0.0372      Z      -0.0178
       Tot       0.2267
    Quadrupole Moments (Debye-Ang)
        XX     -60.5021     XY       0.1389     YY     -85.9505
        XZ      -0.1210     YZ       9.2839     ZZ     -86.8549
    Octopole Moments (Debye-Ang^2)
       XXX     -24.1061    XXY      -0.6839    XYY      -1.4063
       YYY      -2.5253    XXZ      -0.2705    XYZ     -15.4108
       YYZ      -0.3335    XZZ     -18.0151    YZZ      -0.3460
       ZZZ      -0.9838
    Hexadecapole Moments (Debye-Ang^3)
      XXXX   -1707.1823   XXXY      -1.7603   XXYY    -470.7567
      XYYY      -0.3164   YYYY   -1333.0306   XXXZ       2.0617
      XXYZ      12.1533   XYYZ       0.7211   YYYZ      71.8204
      XXZZ    -376.0847   XYZZ      -0.8466   YYZZ    -279.7772
      XZZZ       3.7534   YZZZ       9.4816   ZZZZ    -273.9935
 -----------------------------------------------------------------
 Calculating analytic gradient of the SCF energy
 Gradient of SCF Energy
            1           2           3           4           5           6
    1  -0.0002746   0.0002039   0.0003912  -0.0001656  -0.0002177  -0.0000865
    2  -0.0000724  -0.0001345   0.0003941   0.0006030  -0.0002722  -0.0001974
    3  -0.0004773  -0.0003467  -0.0001473   0.0003867   0.0000735   0.0001291
            7           8           9          10          11          12
    1   0.0001478  -0.0000279   0.0000817  -0.0000252   0.0002001  -0.0000124
    2  -0.0000847  -0.0002537   0.0000145  -0.0000017   0.0000010  -0.0000553
    3   0.0000633  -0.0001246  -0.0000097   0.0000141   0.0002901   0.0000388
           13          14          15          16          17          18
    1   0.0000202  -0.0002114  -0.0000230   0.0000109   0.0000030  -0.0000035
    2  -0.0000822   0.0000441   0.0000329   0.0000255  -0.0000036   0.0000064
    3  -0.0000022   0.0002158  -0.0000101   0.0000121   0.0000046  -0.0000293
           19          20          21          22          23          24
    1  -0.0000087   0.0000178   0.0000101  -0.0000044   0.0000427  -0.0000687
    2   0.0000090   0.0000022   0.0000297  -0.0000092  -0.0000067   0.0000111
    3  -0.0000264  -0.0000169  -0.0000169  -0.0000008  -0.0000248   0.0000047
 Max gradient component =       6.030E-04
 RMS gradient           =       1.630E-04
 Gradient time:  CPU 160.19 s  wall 13.15 s
 Geometry Optimization Parameters
   NAtoms,    NIC,     NZ,  NCons,   NDum,   NFix, NCnnct, MaxDiis
       24     152       0       0       0       0       0       0

 Cartesian Hessian Update
 Hessian Updated using BFGS Update


** GEOMETRY OPTIMIZATION IN DELOCALIZED INTERNAL COORDINATES **
   Searching for a Minimum

   Optimization Cycle:   3

                       Coordinates (Angstroms)
     ATOM                X               Y               Z
      1  C         0.8103943742   -0.6808839739    0.1000563454
      2  C         0.8114510154    0.7098753009   -0.1012986940
      3  C        -0.4352773611   -1.5083829555    0.1395556171
      4  C        -0.4372431141    1.5337781326   -0.1223772093
      5  O        -1.3091090882   -1.1361065161   -0.8174105246
      6  O        -0.6148316041   -2.4394248402    0.8872924879
      7  O        -1.3007041332    1.1417445557    0.8360645758
      8  O        -0.6304255501    2.4683006282   -0.8616407492
      9  C        -2.5657667177    1.8256316155    0.8676986383
     10  C        -2.5603827046   -1.8454539662   -0.8446655830
     11  C         2.0232956416   -1.3613252835    0.2216222536
     12  C         3.2301630997   -0.6781821183    0.1076998534
     13  C         3.2311051711    0.6951119562   -0.1296465143
     14  C         2.0259551073    1.3848067848   -0.2306904006
     15  H        -2.4199802139    2.8952403429    1.0240313976
     16  H        -2.3922671821   -2.9138976057   -0.9856874797
     17  H         4.1679644002    1.2310371641   -0.2274470211
     18  H        -3.1033480363    1.6700375171   -0.0697287114
     19  H        -3.1104996297    1.3864352483    1.7004127653
     20  H        -3.1096721193   -1.4286753780   -1.6858766867
     21  H        -3.1053813165   -1.6880331792    0.0880701196
     22  H         4.1654756008   -1.2184343063    0.1967541801
     23  H         2.0121914374    2.4547549562   -0.3983202005
     24  H         2.0044401331   -2.4310378595    0.3910559202
   Point Group: c1    Number of degrees of freedom:    66


   Energy is   -688.216584547

 Hessian Updated using BFGS Update

 62 Hessian modes will be used to form the next step
  Hessian Eigenvalues:
     0.003002    0.010205    0.010555    0.010612    0.014151    0.018260
     0.019819    0.022448    0.022478    0.022750    0.023156    0.023201
     0.023238    0.023343    0.023365    0.023424    0.067735    0.101297
     0.101307    0.106037    0.106052    0.159944    0.159986    0.159993
     0.159995    0.159997    0.160017    0.160143    0.220193    0.224795
     0.244506    0.248785    0.249685    0.249774    0.249814    0.249997
     0.250034    0.251896    0.327896    0.329246    0.346088    0.346198
     0.347265    0.347288    0.350805    0.350822    0.355399    0.355458
     0.356106    0.356224    0.397807    0.398050    0.418507    0.423474
     0.455544    0.464515    0.467542    0.469309    0.553704    0.553946
     1.011331    1.013370

 Minimum Search - Taking Simple RFO Step
 Searching for Lamda that Minimizes Along All modes
 Value Taken    Lamda =  -0.00002169
 Step Taken.  Stepsize is  0.051947

                             Maximum     Tolerance    Cnvgd?
         Gradient           0.000478      0.000001      NO
         Displacement       0.025260      0.000001      NO
         Energy change     -0.000005      0.000000      NO


 New Cartesian Coordinates Obtained by Inverse Iteration

 Displacement from previous Coordinates is:  0.135304
 Adding empirical dispersion correction 
 ----------------------------------------------------------------
 Doing -D3(op) with
 s6 =   1.00000
 s8 =   0.78311
 a1 =   0.30000
 a2 =   4.25000
 n  =  10.00000
 -D3 energy without 3body term =     -0.0242821968 hartrees
 ----------------------------------------------------------------
             Standard Nuclear Orientation (Angstroms)
    I     Atom           X                Y                Z
 ----------------------------------------------------------------
    1      C       0.8119066382    -0.6789930002     0.1067106955
    2      C       0.8141391976     0.7116359889    -0.0940432938
    3      C      -0.4364017376    -1.5024663260     0.1503558703
    4      C      -0.4341847145     1.5355488388    -0.1167247471
    5      O      -1.3064949651    -1.1321794579    -0.8106961081
    6      O      -0.6186046136    -2.4303078545     0.9011974939
    7      O      -1.3089157732     1.1293270982     0.8255767136
    8      O      -0.6177327802     2.4834981917    -0.8413262784
    9      C      -2.5731054035     1.8149587934     0.8558010085
   10      C      -2.5591533383    -1.8392068076    -0.8380963721
   11      C       2.0241134631    -1.3620276402     0.2187508762
   12      C       3.2314790750    -0.6803476188     0.1000209814
   13      C       3.2335664129     0.6935390348    -0.1340763438
   14      C       2.0290526559     1.3850609911    -0.2286216649
   15      H      -2.4266767505     2.8814204140     1.0316109078
   16      H      -2.3930602693    -2.9084310290    -0.9758358334
   17      H       4.1707846334     1.2280600950    -0.2359680779
   18      H      -3.1015136960     1.6762853989    -0.0894259340
   19      H      -3.1268956146     1.3629433514     1.6755971245
   20      H      -3.1064069330    -1.4237380051    -1.6812647555
   21      H      -3.1053800487    -1.6782775372     0.0933668094
   22      H       4.1663879726    -1.2223030997     0.1827829548
   23      H       2.0156997159     2.4550221147    -0.3961615282
   24      H       2.0049440834    -2.4321057148     0.3859938814
 ----------------------------------------------------------------
 Nuclear Repulsion Energy =   897.4976869858 hartrees
 There are       51 alpha and       51 beta electrons
 Applying Cartesian multipole field
    Component          Value
    ---------          -----
     (2,0,0)        1.00000E-11
     (0,2,0)        2.00000E-11
     (0,0,2)       -3.00000E-11
 Nucleus-field energy     =     0.0000000282 hartrees
 Requested basis set is 6-311++G(d,p)
 There are 134 shells and 378 basis functions
 A cutoff of  1.0D-11 yielded   7374 shell pairs
 There are     60659 function pairs (     65026 Cartesian)
 Smallest overlap matrix eigenvalue = 4.64E-07

 Q-Chem warning in module /fs/scratch/osu6415/qchem-kaunlao-vdw/stvman/mkSTV.C, line 281:

 Overlap eigenvalue is smaller than square root of threshold

 Linear dependence detected in AO basis
 Number of orthogonalized atomic orbitals = 377
 Maximum deviation from orthogonality = 1.267E-10
 Guess MOs from SCF MO coefficient file
 Reading MOs from coefficient file
 Reading MOs from coefficient file
 A restricted hybrid HF-DFT SCF calculation will be
 performed using Pulay DIIS extrapolation
 Exchange:     0.2000 Hartree-Fock + 0.0800 Slater + 0.7200 B88
 Correlation:  0.1900 VWN1RPA + 0.8100 LYP
 Using SG-1 standard quadrature grid
 Dispersion:   Grimme D3
 SCF converges when DIIS error is below 1.0E-08
 Geometry optimization detected.  Setting ReadMinima to 0
 Setting SaveMinima to 0
 using 20 threads for integral computing
 -------------------------------------------------------
 OpenMP Integral computing Module                
 Release: version 1.0, May 2013, Q-Chem Inc. Pittsburgh 
 -------------------------------------------------------
 -------------------------------------------------------
 OpenMP BLAS3 based DFT computing Module                
 Release: version 1.0, May 2013, Q-Chem Inc. Pittsburgh 
 -------------------------------------------------------
 ---------------------------------------
  Cycle       Energy         DIIS Error
 ---------------------------------------
    1    -688.2165118485      2.87E-04
    2    -688.2165534566      2.64E-05
    3    -688.2165376383      4.25E-05
    4    -688.2165703788      7.61E-06
    5    -688.2165710307      4.31E-06
    6    -688.2165712516      1.72E-06
    7    -688.2165712869      6.84E-07
    8    -688.2165712939      1.78E-07
    9    -688.2165712946      5.80E-08
   10    -688.2165712946      2.99E-08
   11    -688.2165712937      1.09E-08
   12    -688.2165712953      2.52E-09 Convergence criterion met
 ---------------------------------------
 SCF time:  CPU 406.65 s  wall 22.70 s
 SCF   energy in the final basis set = -688.21657130
 Total energy in the final basis set = -688.21657130
 
 --------------------------------------------------------------
 
                    Orbital Energies (a.u.)
 --------------------------------------------------------------
 
 Alpha MOs
 -- Occupied --
-19.178 -19.178 -19.121 -19.121 -10.314 -10.314 -10.234 -10.234
-10.213 -10.212 -10.199 -10.199 -10.198 -10.198  -1.123  -1.117
 -1.033  -1.032  -0.888  -0.799  -0.785  -0.743  -0.734  -0.658
 -0.639  -0.593  -0.580  -0.556  -0.521  -0.512  -0.494  -0.493
 -0.487  -0.479  -0.467  -0.456  -0.440  -0.433  -0.419  -0.408
 -0.389  -0.384  -0.382  -0.367  -0.367  -0.326  -0.312  -0.301
 -0.297  -0.275  -0.274
 -- Virtual --
 -0.067  -0.044  -0.012  -0.006   0.006   0.008   0.016   0.020
  0.024   0.024   0.036   0.040   0.043   0.052   0.053   0.059
  0.064   0.071   0.072   0.094   0.095   0.100   0.101   0.102
  0.109   0.114   0.116   0.116   0.124   0.126   0.128   0.133
  0.136   0.139   0.142   0.144   0.151   0.156   0.158   0.159
  0.166   0.171   0.175   0.179   0.185   0.189   0.197   0.203
  0.207   0.215   0.216   0.220   0.222   0.228   0.232   0.237
  0.244   0.250   0.259   0.267   0.270   0.276   0.280   0.282
  0.285   0.288   0.302   0.305   0.312   0.316   0.321   0.334
  0.335   0.336   0.340   0.343   0.347   0.356   0.356   0.367
  0.373   0.378   0.388   0.390   0.396   0.398   0.413   0.426
  0.450   0.480   0.492   0.496   0.500   0.508   0.520   0.529
  0.540   0.542   0.555   0.565   0.573   0.577   0.581   0.593
  0.594   0.612   0.629   0.636   0.643   0.644   0.647   0.660
  0.661   0.669   0.674   0.688   0.697   0.712   0.723   0.725
  0.729   0.734   0.757   0.761   0.770   0.790   0.813   0.820
  0.832   0.846   0.849   0.856   0.859   0.872   0.915   0.916
  0.937   0.957   0.971   1.013   1.017   1.028   1.030   1.055
  1.058   1.064   1.087   1.100   1.115   1.124   1.134   1.178
  1.191   1.195   1.208   1.211   1.227   1.234   1.270   1.287
  1.305   1.310   1.331   1.339   1.354   1.382   1.391   1.441
  1.445   1.460   1.468   1.480   1.503   1.512   1.527   1.535
  1.537   1.550   1.556   1.569   1.570   1.588   1.609   1.627
  1.642   1.671   1.678   1.702   1.707   1.714   1.717   1.728
  1.734   1.746   1.753   1.758   1.788   1.796   1.814   1.824
  1.841   1.872   1.898   1.930   1.932   1.950   1.953   1.969
  1.976   1.992   2.001   2.046   2.051   2.062   2.088   2.104
  2.121   2.122   2.148   2.191   2.240   2.269   2.292   2.355
  2.400   2.418   2.444   2.448   2.461   2.483   2.492   2.497
  2.517   2.552   2.568   2.595   2.601   2.606   2.651   2.652
  2.663   2.696   2.710   2.716   2.725   2.752   2.774   2.776
  2.806   2.808   2.822   2.834   2.844   2.851   2.883   2.884
  2.893   2.901   2.939   2.948   2.990   3.035   3.047   3.062
  3.082   3.094   3.110   3.166   3.212   3.219   3.225   3.254
  3.274   3.285   3.360   3.365   3.384   3.410   3.517   3.533
  3.583   3.585   3.622   3.641   3.716   3.771   3.772   3.805
  3.853   3.859   4.021   4.024   4.052   4.058   4.111   4.134
  4.172   4.269   4.337   4.834   5.008   5.081   5.102   5.159
  5.220   5.233   5.389   5.406   5.623   5.626   5.862   5.868
 23.573  23.838  23.848  23.923  23.926  23.937  23.949  24.052
 24.077  24.169  49.878  49.892  50.012  50.026
 --------------------------------------------------------------
 
          Ground-State Mulliken Net Atomic Charges

     Atom                 Charge (a.u.)
  ----------------------------------------
      1 C                     0.673039
      2 C                     0.706211
      3 C                    -0.539974
      4 C                    -0.504728
      5 O                     0.001720
      6 O                    -0.215396
      7 O                    -0.001491
      8 O                    -0.218448
      9 C                    -0.246395
     10 C                    -0.248437
     11 C                    -0.339258
     12 C                    -0.243740
     13 C                    -0.241169
     14 C                    -0.329948
     15 H                     0.176393
     16 H                     0.176387
     17 H                     0.172976
     18 H                     0.180853
     19 H                     0.161151
     20 H                     0.160880
     21 H                     0.179399
     22 H                     0.173175
     23 H                     0.183713
     24 H                     0.183087
  ----------------------------------------
  Sum of atomic charges =    -0.000000

 -----------------------------------------------------------------
                    Cartesian Multipole Moments
 -----------------------------------------------------------------
    Charge (ESU x 10^10)
                -0.0000
    Dipole Moment (Debye)
         X      -0.2294      Y      -0.0662      Z      -0.0614
       Tot       0.2465
    Quadrupole Moments (Debye-Ang)
        XX     -60.4638     XY       0.0761     YY     -86.0849
        XZ      -0.0922     YZ       9.2373     ZZ     -86.8166
    Octopole Moments (Debye-Ang^2)
       XXX     -24.2560    XXY      -0.6674    XYY      -1.3654
       YYY      -3.7893    XXZ      -0.7368    XYZ     -15.1985
       YYZ      -0.6542    XZZ     -18.0504    YZZ      -0.0719
       ZZZ      -1.8155
    Hexadecapole Moments (Debye-Ang^3)
      XXXX   -1709.6500   XXXY      -2.4888   XXYY    -470.8624
      XYYY      -0.4963   YYYY   -1331.7257   XXXZ       2.3640
      XXYZ      12.2516   XYYZ       1.3628   YYYZ      72.9761
      XXZZ    -376.4032   XYZZ      -1.1064   YYZZ    -278.7411
      XZZZ       5.4609   YZZZ      10.6276   ZZZZ    -271.3958
 -----------------------------------------------------------------
 Calculating analytic gradient of the SCF energy
 Gradient of SCF Energy
            1           2           3           4           5           6
    1  -0.0001680   0.0001780  -0.0000653  -0.0002690   0.0000390   0.0000777
    2  -0.0001463  -0.0001630   0.0006185   0.0001012   0.0003731  -0.0002478
    3  -0.0003227   0.0000864   0.0003269  -0.0004404   0.0002040   0.0000138
            7           8           9          10          11          12
    1   0.0002058   0.0000250  -0.0000863  -0.0000331   0.0001409   0.0000170
    2  -0.0004589  -0.0000822   0.0000459  -0.0000527  -0.0000002  -0.0000115
    3  -0.0001285   0.0001366   0.0000044  -0.0000277  -0.0000372   0.0000412
           13          14          15          16          17          18
    1   0.0000497  -0.0001454   0.0000095  -0.0000040  -0.0000009   0.0000011
    2  -0.0000474  -0.0000007   0.0000138   0.0000088  -0.0000021   0.0000310
    3   0.0000307   0.0001776  -0.0000035   0.0000208  -0.0000233  -0.0000161
           19          20          21          22          23          24
    1  -0.0000012   0.0000163  -0.0000058   0.0000003   0.0000537  -0.0000350
    2   0.0000078  -0.0000004   0.0000055   0.0000029   0.0000030   0.0000018
    3  -0.0000165  -0.0000040  -0.0000005   0.0000125  -0.0000358   0.0000013
 Max gradient component =       6.185E-04
 RMS gradient           =       1.509E-04
 Gradient time:  CPU 161.66 s  wall 12.85 s
 Geometry Optimization Parameters
   NAtoms,    NIC,     NZ,  NCons,   NDum,   NFix, NCnnct, MaxDiis
       24     152       0       0       0       0       0       0

 Cartesian Hessian Update
 Hessian Updated using BFGS Update


** GEOMETRY OPTIMIZATION IN DELOCALIZED INTERNAL COORDINATES **
   Searching for a Minimum

   Optimization Cycle:   4

                       Coordinates (Angstroms)
     ATOM                X               Y               Z
      1  C         0.8119066382   -0.6789930002    0.1067106955
      2  C         0.8141391976    0.7116359889   -0.0940432938
      3  C        -0.4364017376   -1.5024663260    0.1503558703
      4  C        -0.4341847145    1.5355488388   -0.1167247471
      5  O        -1.3064949651   -1.1321794579   -0.8106961081
      6  O        -0.6186046136   -2.4303078545    0.9011974939
      7  O        -1.3089157732    1.1293270982    0.8255767136
      8  O        -0.6177327802    2.4834981917   -0.8413262784
      9  C        -2.5731054035    1.8149587934    0.8558010085
     10  C        -2.5591533383   -1.8392068076   -0.8380963721
     11  C         2.0241134631   -1.3620276402    0.2187508762
     12  C         3.2314790750   -0.6803476188    0.1000209814
     13  C         3.2335664129    0.6935390348   -0.1340763438
     14  C         2.0290526559    1.3850609911   -0.2286216649
     15  H        -2.4266767505    2.8814204140    1.0316109078
     16  H        -2.3930602693   -2.9084310290   -0.9758358334
     17  H         4.1707846334    1.2280600950   -0.2359680779
     18  H        -3.1015136960    1.6762853989   -0.0894259340
     19  H        -3.1268956146    1.3629433514    1.6755971245
     20  H        -3.1064069330   -1.4237380051   -1.6812647555
     21  H        -3.1053800487   -1.6782775372    0.0933668094
     22  H         4.1663879726   -1.2223030997    0.1827829548
     23  H         2.0156997159    2.4550221147   -0.3961615282
     24  H         2.0049440834   -2.4321057148    0.3859938814
   Point Group: c1    Number of degrees of freedom:    66


   Energy is   -688.216571295

 Hessian Updated using BFGS Update

 64 Hessian modes will be used to form the next step
  Hessian Eigenvalues:
     0.002325    0.010275    0.010555    0.012275    0.014397    0.015925
     0.018904    0.022464    0.022477    0.023150    0.023187    0.023236
     0.023339    0.023356    0.023423    0.039713    0.066682    0.101287
     0.101311    0.106029    0.106048    0.159227    0.159985    0.159994
     0.159996    0.159997    0.159999    0.160052    0.160108    0.219783
     0.225312    0.239744    0.244616    0.249690    0.249790    0.249921
     0.249998    0.250000    0.250714    0.320200    0.327454    0.346066
     0.346179    0.347245    0.347270    0.350796    0.350818    0.355398
     0.355458    0.356098    0.356186    0.361240    0.397809    0.398693
     0.423328    0.441544    0.464470    0.465923    0.469013    0.474186
     0.553670    0.554024    1.008395    1.013178

 Minimum Search - Taking Simple RFO Step
 Searching for Lamda that Minimizes Along All modes
 Value Taken    Lamda =  -0.00002769
 Step Taken.  Stepsize is  0.042687

                             Maximum     Tolerance    Cnvgd?
         Gradient           0.001814      0.000001      NO
         Displacement       0.014656      0.000001      NO
         Energy change      0.000013      0.000000      NO


 New Cartesian Coordinates Obtained by Inverse Iteration

 Displacement from previous Coordinates is:  0.167682
 Adding empirical dispersion correction 
 ----------------------------------------------------------------
 Doing -D3(op) with
 s6 =   1.00000
 s8 =   0.78311
 a1 =   0.30000
 a2 =   4.25000
 n  =  10.00000
 -D3 energy without 3body term =     -0.0242059168 hartrees
 ----------------------------------------------------------------
             Standard Nuclear Orientation (Angstroms)
    I     Atom           X                Y                Z
 ----------------------------------------------------------------
    1      C       0.8073971142    -0.6778312221     0.1157465631
    2      C       0.8102017885     0.7125649756    -0.0881105488
    3      C      -0.4412246792    -1.5016896077     0.1575324573
    4      C      -0.4363465697     1.5388578474    -0.1108566175
    5      O      -1.2990622175    -1.1464794446    -0.8200591107
    6      O      -0.6288781813    -2.4224371134     0.9154607782
    7      O      -1.3109777563     1.1390953254     0.8344365028
    8      O      -0.6153779294     2.4899515867    -0.8326342041
    9      C      -2.5712599279     1.8316290534     0.8678798700
   10      C      -2.5492593048    -1.8575981933    -0.8545762206
   11      C       2.0193704130    -1.3618517583     0.2224626184
   12      C       3.2269080506    -0.6815821736     0.0968052512
   13      C       3.2295540088     0.6917002324    -0.1406063261
   14      C       2.0253931171     1.3839976216    -0.2315615387
   15      H      -2.4180554730     2.8976734372     1.0402059566
   16      H      -2.3785635845    -2.9278315782    -0.9784437171
   17      H       4.1668724610     1.2248548160    -0.2484893495
   18      H      -3.1043569682     1.6932754154    -0.0747183646
   19      H      -3.1240022340     1.3848987352     1.6912938718
   20      H      -3.0878235192    -1.4532021088    -1.7086456198
   21      H      -3.1070170513    -1.6881526163     0.0685438183
   22      H       4.1615852214    -1.2245143003     0.1757549190
   23      H       2.0119672591     2.4534636119    -0.4021419712
   24      H       2.0005031728    -2.4318763214     0.3902453619
 ----------------------------------------------------------------
 Nuclear Repulsion Energy =   896.8455493665 hartrees
 There are       51 alpha and       51 beta electrons
 Applying Cartesian multipole field
    Component          Value
    ---------          -----
     (2,0,0)        1.00000E-11
     (0,2,0)        2.00000E-11
     (0,0,2)       -3.00000E-11
 Nucleus-field energy     =     0.0000000281 hartrees
 Requested basis set is 6-311++G(d,p)
 There are 134 shells and 378 basis functions
 A cutoff of  1.0D-11 yielded   7363 shell pairs
 There are     60581 function pairs (     64938 Cartesian)
 Smallest overlap matrix eigenvalue = 4.64E-07

 Q-Chem warning in module /fs/scratch/osu6415/qchem-kaunlao-vdw/stvman/mkSTV.C, line 281:

 Overlap eigenvalue is smaller than square root of threshold

 Linear dependence detected in AO basis
 Number of orthogonalized atomic orbitals = 377
 Maximum deviation from orthogonality = 1.745E-10
 Guess MOs from SCF MO coefficient file
 Reading MOs from coefficient file
 Reading MOs from coefficient file
 A restricted hybrid HF-DFT SCF calculation will be
 performed using Pulay DIIS extrapolation
 Exchange:     0.2000 Hartree-Fock + 0.0800 Slater + 0.7200 B88
 Correlation:  0.1900 VWN1RPA + 0.8100 LYP
 Using SG-1 standard quadrature grid
 Dispersion:   Grimme D3
 SCF converges when DIIS error is below 1.0E-08
 Geometry optimization detected.  Setting ReadMinima to 0
 Setting SaveMinima to 0
 using 20 threads for integral computing
 -------------------------------------------------------
 OpenMP Integral computing Module                
 Release: version 1.0, May 2013, Q-Chem Inc. Pittsburgh 
 -------------------------------------------------------
 -------------------------------------------------------
 OpenMP BLAS3 based DFT computing Module                
 Release: version 1.0, May 2013, Q-Chem Inc. Pittsburgh 
 -------------------------------------------------------
 ---------------------------------------
  Cycle       Energy         DIIS Error
 ---------------------------------------
    1    -688.2154897440      2.41E-04
    2    -688.2165616279      2.25E-05
    3    -688.2165552970      3.31E-05
    4    -688.2165730862      8.51E-06
    5    -688.2165739742      3.73E-06
    6    -688.2165741382      1.52E-06
    7    -688.2165741672      5.46E-07
    8    -688.2165741720      1.62E-07
    9    -688.2165741717      6.27E-08
   10    -688.2165741717      2.46E-08
   11    -688.2165741727      1.17E-08
   12    -688.2165741714      2.40E-09 Convergence criterion met
 ---------------------------------------
 SCF time:  CPU 406.86 s  wall 22.59 s
 SCF   energy in the final basis set = -688.21657417
 Total energy in the final basis set = -688.21657417
 
 --------------------------------------------------------------
 
                    Orbital Energies (a.u.)
 --------------------------------------------------------------
 
 Alpha MOs
 -- Occupied --
-19.178 -19.178 -19.121 -19.121 -10.314 -10.314 -10.234 -10.234
-10.213 -10.212 -10.199 -10.199 -10.198 -10.198  -1.123  -1.117
 -1.033  -1.032  -0.888  -0.799  -0.785  -0.744  -0.734  -0.658
 -0.639  -0.593  -0.580  -0.556  -0.521  -0.512  -0.494  -0.493
 -0.487  -0.480  -0.467  -0.456  -0.440  -0.433  -0.419  -0.407
 -0.389  -0.384  -0.382  -0.367  -0.367  -0.326  -0.313  -0.301
 -0.297  -0.275  -0.274
 -- Virtual --
 -0.067  -0.044  -0.012  -0.006   0.006   0.008   0.016   0.020
  0.024   0.024   0.035   0.039   0.043   0.052   0.053   0.059
  0.064   0.071   0.072   0.094   0.095   0.100   0.101   0.102
  0.109   0.114   0.116   0.116   0.123   0.126   0.128   0.133
  0.136   0.139   0.142   0.144   0.151   0.156   0.158   0.159
  0.166   0.171   0.175   0.178   0.185   0.189   0.196   0.203
  0.207   0.215   0.215   0.220   0.222   0.228   0.231   0.237
  0.244   0.250   0.259   0.267   0.270   0.276   0.279   0.282
  0.285   0.287   0.302   0.305   0.312   0.316   0.320   0.332
  0.335   0.337   0.340   0.342   0.347   0.355   0.356   0.367
  0.373   0.379   0.388   0.390   0.396   0.398   0.414   0.426
  0.451   0.479   0.491   0.496   0.499   0.507   0.518   0.528
  0.539   0.542   0.555   0.566   0.574   0.576   0.580   0.593
  0.594   0.612   0.629   0.636   0.643   0.644   0.647   0.659
  0.662   0.668   0.674   0.688   0.696   0.712   0.723   0.725
  0.727   0.734   0.757   0.761   0.770   0.790   0.811   0.819
  0.832   0.844   0.848   0.856   0.859   0.872   0.915   0.916
  0.937   0.957   0.970   1.012   1.017   1.028   1.031   1.054
  1.059   1.066   1.088   1.100   1.113   1.124   1.136   1.177
  1.188   1.193   1.209   1.212   1.225   1.235   1.270   1.287
  1.305   1.307   1.330   1.338   1.355   1.380   1.391   1.441
  1.446   1.458   1.467   1.481   1.503   1.512   1.528   1.534
  1.536   1.551   1.557   1.569   1.572   1.588   1.607   1.628
  1.642   1.672   1.676   1.703   1.707   1.713   1.715   1.727
  1.734   1.746   1.752   1.758   1.788   1.795   1.815   1.824
  1.840   1.872   1.897   1.930   1.932   1.950   1.953   1.969
  1.977   1.992   2.002   2.046   2.048   2.062   2.089   2.104
  2.121   2.122   2.147   2.189   2.239   2.269   2.292   2.355
  2.400   2.418   2.444   2.447   2.461   2.482   2.493   2.497
  2.516   2.551   2.568   2.595   2.601   2.603   2.650   2.652
  2.663   2.696   2.709   2.716   2.725   2.752   2.775   2.776
  2.806   2.808   2.822   2.834   2.844   2.851   2.883   2.884
  2.893   2.901   2.940   2.947   2.989   3.035   3.046   3.060
  3.081   3.094   3.109   3.165   3.212   3.219   3.224   3.254
  3.273   3.283   3.361   3.364   3.384   3.410   3.517   3.533
  3.583   3.585   3.621   3.641   3.716   3.771   3.772   3.804
  3.852   3.859   4.023   4.024   4.052   4.057   4.110   4.134
  4.172   4.268   4.336   4.833   5.011   5.081   5.103   5.155
  5.219   5.234   5.385   5.406   5.622   5.626   5.862   5.867
 23.573  23.838  23.848  23.923  23.925  23.938  23.949  24.052
 24.078  24.169  49.877  49.892  50.012  50.024
 --------------------------------------------------------------
 
          Ground-State Mulliken Net Atomic Charges

     Atom                 Charge (a.u.)
  ----------------------------------------
      1 C                     0.667546
      2 C                     0.697252
      3 C                    -0.544759
      4 C                    -0.496723
      5 O                     0.004513
      6 O                    -0.214083
      7 O                    -0.002149
      8 O                    -0.218593
      9 C                    -0.245586
     10 C                    -0.249807
     11 C                    -0.328081
     12 C                    -0.242770
     13 C                    -0.243835
     14 C                    -0.330878
     15 H                     0.176434
     16 H                     0.176340
     17 H                     0.173004
     18 H                     0.180627
     19 H                     0.161773
     20 H                     0.161066
     21 H                     0.178892
     22 H                     0.173111
     23 H                     0.183902
     24 H                     0.182804
  ----------------------------------------
  Sum of atomic charges =    -0.000000

 -----------------------------------------------------------------
                    Cartesian Multipole Moments
 -----------------------------------------------------------------
    Charge (ESU x 10^10)
                -0.0000
    Dipole Moment (Debye)
         X      -0.2277      Y      -0.0853      Z      -0.0942
       Tot       0.2608
    Quadrupole Moments (Debye-Ang)
        XX     -60.5283     XY       0.0203     YY     -85.9425
        XZ      -0.0763     YZ       9.2986     ZZ     -86.8297
    Octopole Moments (Debye-Ang^2)
       XXX     -23.9130    XXY      -0.6251    XYY      -1.5005
       YYY      -4.5339    XXZ      -1.1380    XYZ     -15.4832
       YYZ      -0.9279    XZZ     -18.0015    YZZ       0.1105
       ZZZ      -2.5055
    Hexadecapole Moments (Debye-Ang^3)
      XXXX   -1704.5850   XXXY      -2.8750   XXYY    -470.6490
      XYYY      -0.5215   YYYY   -1337.4288   XXXZ       2.4395
      XXYZ      12.1164   XYYZ       1.8371   YYYZ      71.3541
      XXZZ    -375.5548   XYZZ      -1.1725   YYZZ    -280.5442
      XZZZ       6.7021   YZZZ       8.9623   ZZZZ    -274.9926
 -----------------------------------------------------------------
 Calculating analytic gradient of the SCF energy
 Gradient of SCF Energy
            1           2           3           4           5           6
    1   0.0000632   0.0001491  -0.0007781  -0.0005786   0.0002747   0.0003095
    2  -0.0005027   0.0002187   0.0010080  -0.0008752  -0.0003840  -0.0003547
    3   0.0000270   0.0004942   0.0005590  -0.0011614  -0.0002877  -0.0002323
            7           8           9          10          11          12
    1   0.0002009   0.0001865  -0.0000583   0.0001421   0.0000755  -0.0000113
[...]
    -0.00556145     -0.00521483      0.00019210
vibration 51
     0.00551535      0.01384290     -0.00179664
     0.00622409     -0.01390210      0.00161900
     0.00174448     -0.00154293      0.00014172
     0.00085633      0.00165807      0.00027808
    -0.00110296     -0.00940148      0.00889209
    -0.00190479      0.00126067     -0.00195541
    -0.00039327      0.00916207     -0.00784011
    -0.00175308     -0.00121262      0.00158698
    -0.00684941      0.02989775     -0.02152109
    -0.00858195     -0.03112208      0.02518917
    -0.01512115     -0.00133100      0.00026386
     0.00476127     -0.00541222      0.00088399
     0.00435519      0.00572245     -0.00105845
    -0.01525068      0.00117513      0.00021270
     0.24958054     -0.08332076      0.36311513
     0.27099345      0.08020277     -0.40138335
     0.01804229     -0.01456334      0.00226227
    -0.01325904     -0.46478607      0.06744800
    -0.14736815      0.07224958     -0.07694123
    -0.14920257     -0.08745437      0.07131608
    -0.00541160      0.50122409     -0.08286350
     0.01733943      0.01255548     -0.00246761
     0.05367455      0.00125457     -0.00221375
     0.05348453     -0.00225101      0.00072430
vibration 52
    -0.08409325     -0.15613181      0.01996962
    -0.08578379      0.15649953     -0.01799543
     0.03094787      0.01103699      0.02629627
     0.03126558     -0.00917691     -0.02548678
    -0.00768485     -0.00437190     -0.00201239
     0.00360425      0.01691946     -0.01602149
    -0.00769022      0.00419549      0.00177139
     0.00354275     -0.01829038      0.01540926
    -0.01460077      0.00934593     -0.00062583
    -0.01460705     -0.00966730      0.00066172
     0.16628019      0.00357871     -0.00029171
    -0.04404531      0.07480414     -0.01209086
    -0.04430101     -0.07482157      0.01336767
     0.16759432     -0.00456713     -0.00429189
     0.10287717     -0.02003957      0.06636273
     0.10506297      0.01897287     -0.06462080
    -0.20373393      0.16383611     -0.02438041
     0.06474303     -0.11273010     -0.02371664
     0.02537582     -0.01907810      0.01344077
     0.02594863      0.02013865     -0.01346862
     0.06309649      0.11484049      0.02076835
    -0.20347683     -0.15928681      0.02967516
    -0.57067952     -0.00245840      0.02749768
    -0.57238041      0.00963896     -0.01221547
vibration 53
     0.08027366     -0.27916084      0.04576556
     0.07322066      0.27726263     -0.04741214
    -0.01586872     -0.00576690      0.02786972
    -0.01553287      0.00864125     -0.02648516
    -0.00392420     -0.00430010     -0.00154543
     0.01206949      0.02571202     -0.02314849
    -0.00414824      0.00436551      0.00133358
     0.01191002     -0.02795490      0.02231427
    -0.00176574      0.00077865      0.00175369
    -0.00172941     -0.00093295     -0.00168506
    -0.02856491      0.15440323     -0.02597345
    -0.08290076     -0.33650558      0.05681776
    -0.09067612      0.34168264     -0.05508729
    -0.01409977     -0.15561716      0.02650999
     0.00927783      0.00026426      0.00282612
     0.00836935     -0.00049958     -0.00284046
     0.32689946     -0.34286509      0.05168860
     0.02177837     -0.01018614     -0.00946066
     0.00749280     -0.00235229      0.00617576
     0.00834113      0.00192261     -0.00666215
     0.02174683      0.01023220      0.00974915
     0.32878046      0.32408374     -0.05825703
     0.07706152     -0.17471462      0.02119199
     0.10042138      0.17169913     -0.02249942
vibration 54
    -0.22041127      0.03308797     -0.01059039
     0.22422896      0.04379405     -0.01768993
     0.03420890      0.01035012     -0.00232123
    -0.03550380      0.01348821     -0.00473534
     0.00253798      0.00087424      0.00160276
    -0.00620148     -0.00425240      0.00430640
    -0.00311864      0.00080995      0.00199657
     0.00707548     -0.00734184      0.00617512
     0.00270207     -0.00083199     -0.00080171
    -0.00274290     -0.00092645     -0.00089649
     0.34127540      0.01800041     -0.00428091
    -0.20766821     -0.09133441      0.01856708
     0.20306046     -0.08071274      0.01075223
    -0.34067943      0.01508894      0.00586193
    -0.00770559      0.00137520     -0.00247358
     0.00875524      0.00133000     -0.00150957
     0.01540306      0.27579863     -0.05330985
     0.00147872      0.00686344     -0.00057131
     0.00626837      0.00040129      0.00131917
    -0.00491071      0.00160802      0.00087615
    -0.00042772      0.00676733     -0.00015074
    -0.00313051      0.28728035     -0.05479495
     0.44310082      0.01996044     -0.02522795
    -0.44527218      0.03211588     -0.01458418
vibration 55
    -0.00155283     -0.04010866      0.01503220
     0.01278797     -0.06675607      0.02031988
     0.09451052      0.35941671     -0.28007707
    -0.12566594      0.51422764     -0.36002076
     0.00305239     -0.02153026      0.02330186
    -0.05169578     -0.22834246      0.18695034
    -0.00375516     -0.03202732      0.02956897
     0.06719065     -0.32442819      0.24039884
    -0.01889428      0.01580525     -0.00425642
     0.01300505      0.01099204     -0.00369604
    -0.02907071      0.01060465     -0.00515831
     0.01453715      0.00226991     -0.00135145
    -0.01376014     -0.00491657     -0.00012250
     0.02737363      0.01676598     -0.00736462
     0.10504632      0.02179841     -0.05400473
    -0.07528364      0.01239024     -0.03962381
    -0.02298089      0.01256576      0.00069449
     0.08634573     -0.00988878     -0.07803599
     0.14604134     -0.11619974      0.02668557
    -0.10409173     -0.08179049      0.02004452
    -0.06055845     -0.01077165     -0.05720855
     0.01359205      0.00198718      0.00266792
    -0.05076794      0.03026167      0.01192469
     0.04616009      0.01914569      0.00736984
vibration 56
    -0.04167012     -0.08196465      0.02048291
    -0.03495502      0.06728030     -0.01408460
     0.13781739      0.49725914     -0.37376770
     0.09720779     -0.37547563      0.25388106
     0.00092387     -0.03067460      0.02776052
    -0.07121752     -0.30929796      0.25121964
     0.00029993      0.02366740     -0.01832001
    -0.04907043      0.23232775     -0.17077796
     0.01565117     -0.01190999      0.00229968
     0.02048856      0.01594625     -0.00398017
     0.00274168      0.01866253     -0.00520003
    -0.00083684     -0.02139550      0.00206730
    -0.00362102      0.02056315     -0.00217122
     0.00812834     -0.01492001      0.00301726
    -0.08047422     -0.01723010      0.04433577
    -0.10891439      0.01873613     -0.06091183
     0.02416640     -0.02711216      0.00788928
    -0.06398336      0.00191821      0.05746765
    -0.10984428      0.09130081     -0.02220166
    -0.14680906     -0.12127374      0.03095206
    -0.08415435     -0.00853592     -0.07958465
     0.02931967      0.03017338     -0.00842804
     0.01291011     -0.02561264     -0.01054551
     0.02471943      0.03249703      0.01305461
vibration 57
     0.00014440     -0.00003935      0.00010083
    -0.00016817     -0.00004451      0.00010722
    -0.00108376      0.00069929     -0.00150812
     0.00124440      0.00091258     -0.00161156
     0.00179713      0.00056976      0.00060848
    -0.00008386     -0.00045024      0.00040925
    -0.00203634      0.00059310      0.00066755
     0.00008810     -0.00053511      0.00043887
    -0.02686819      0.01741363     -0.01009361
     0.02336110      0.01578704     -0.00856205
    -0.00000638      0.00002322     -0.00001150
     0.00001693     -0.00001064     -0.00000964
    -0.00002951     -0.00001038     -0.00000892
     0.00001136      0.00001777     -0.00001132
    -0.06832289     -0.42813944     -0.07600796
     0.06707385     -0.38374889     -0.05265057
     0.00020762      0.00019382     -0.00001373
     0.24315807      0.07340192      0.44440121
     0.16314836      0.13562443     -0.24752597
    -0.14156072      0.10997833     -0.22505732
    -0.21962069      0.07532269      0.38042607
    -0.00014152      0.00014615     -0.00000416
     0.00007377      0.00041239     -0.00000322
    -0.00006787      0.00024739      0.00001354
vibration 58
    -0.00012018     -0.00000144     -0.00007781
    -0.00011373     -0.00000164      0.00006371
     0.00113109     -0.00097598      0.00164348
     0.00101212      0.00095964     -0.00137901
    -0.00192702     -0.00052426     -0.00060799
     0.00013421      0.00056284     -0.00046892
    -0.00170100      0.00040953      0.00051662
     0.00011355     -0.00052031      0.00039315
    -0.02354744      0.01590190     -0.00862616
    -0.02635995     -0.01861142      0.00938840
     0.00001135      0.00001921      0.00000918
    -0.00007339      0.00003159      0.00000587
    -0.00007168     -0.00002925      0.00000029
     0.00001249     -0.00002249     -0.00000595
    -0.06042755     -0.38183670     -0.06745236
    -0.07660779      0.44167550      0.06018009
     0.00047124      0.00033456     -0.00006841
     0.21231815      0.06379473      0.38838061
     0.14315161      0.11887574     -0.21736815
     0.16025950     -0.12440968      0.25490049
     0.24693843     -0.08439343     -0.42814044
     0.00050591     -0.00036916      0.00005926
    -0.00000750      0.00075589     -0.00001501
    -0.00000929     -0.00077750      0.00000798
vibration 59
     0.00012169     -0.00014747     -0.00008974
    -0.00011372     -0.00010479     -0.00006707
    -0.00009924      0.00010092      0.00006756
     0.00011656      0.00006709      0.00003204
    -0.00015876      0.00016142      0.00019842
     0.00002109      0.00008910      0.00010559
     0.00010014      0.00010867      0.00016394
    -0.00003591      0.00005755      0.00009059
    -0.01863352     -0.03727136     -0.03708998
     0.02805714     -0.05287413     -0.04786395
     0.00000059      0.00001016      0.00001136
     0.00001067     -0.00001147      0.00000793
    -0.00001670     -0.00000564      0.00000651
     0.00000778      0.00000467      0.00001078
     0.06499730      0.42131721      0.06143349
    -0.09727481      0.57531146      0.06108666
     0.00017561      0.00012339     -0.00005213
     0.18456714      0.04827169      0.34510950
    -0.02940191     -0.02816455      0.03143481
     0.03164858     -0.03023250      0.03180149
    -0.26589106      0.08066142      0.47228869
    -0.00017244      0.00012072     -0.00005121
     0.00004646      0.00015691     -0.00005868
    -0.00006299      0.00019232     -0.00008465
vibration 60
    -0.00001734      0.00010327      0.00007974
    -0.00004988     -0.00013440     -0.00011090
    -0.00012588     -0.00002979     -0.00021544
    -0.00011870      0.00003668      0.00025420
     0.00021690     -0.00012488     -0.00007823
     0.00001721     -0.00008856     -0.00001983
     0.00027495      0.00015238      0.00013781
     0.00000069      0.00011026      0.00005457
    -0.02566215     -0.05039296     -0.05164932
    -0.02050734      0.03805995      0.03534006
    -0.00003022     -0.00002453      0.00000408
     0.00002732      0.00000966     -0.00000317
     0.00002332     -0.00001322      0.00000543
    -0.00002946      0.00002748      0.00000052
     0.08848618      0.57016114      0.08299520
     0.07034222     -0.41389480     -0.04388666
    -0.00010050     -0.00006510     -0.00000189
     0.25720593      0.06681947      0.48113335
    -0.04243279     -0.04074534      0.04572081
    -0.02421676      0.02314061     -0.02466011
     0.19624064     -0.05919176     -0.34875042
    -0.00015210      0.00010124     -0.00000689
     0.00004797     -0.00012298     -0.00004770
     0.00003875      0.00015870      0.00002597
vibration 61
    -0.00000415     -0.00003121      0.00005819
    -0.00000293      0.00001932     -0.00003767
     0.00063521      0.00070257     -0.00027750
     0.00036964     -0.00040935      0.00014163
     0.00011055     -0.00018720      0.00021223
    -0.00018060     -0.00031947      0.00018496
     0.00008375      0.00011841     -0.00012517
    -0.00009913      0.00018709     -0.00009301
    -0.01726216     -0.02975185      0.03673271
    -0.02625193      0.04357650     -0.06173036
    -0.00002077     -0.00010951      0.00001736
    -0.00007867      0.00006057     -0.00001027
    -0.00003417     -0.00003238      0.00000611
    -0.00001550      0.00003333     -0.00000745
     0.02803927      0.18002204      0.03877562
     0.04700358     -0.27463508     -0.04878634
     0.00041211      0.00022923     -0.00004873
    -0.06618897     -0.02621131     -0.11177631
     0.23958590      0.20006588     -0.36240535
     0.37490867     -0.29232644      0.59491400
    -0.11551841      0.04841122      0.18547969
     0.00100407     -0.00058501      0.00008848
     0.00002571     -0.00044251      0.00004517
     0.00009130      0.00127929     -0.00018105
vibration 62
     0.00000070     -0.00002716      0.00003035
     0.00000104     -0.00003816      0.00004998
     0.00048795      0.00052689     -0.00022044
    -0.00070992      0.00078170     -0.00029832
     0.00003596     -0.00013251      0.00013540
    -0.00014517     -0.00024289      0.00015175
    -0.00008519     -0.00020911      0.00020757
     0.00020192     -0.00036353      0.00020214
     0.02702268      0.04688728     -0.05897901
    -0.01619061      0.02709242     -0.03924904
    -0.00000590     -0.00015544      0.00001887
    -0.00009130      0.00005582     -0.00001029
     0.00010916      0.00006946     -0.00001499
     0.00001319     -0.00017912      0.00002329
    -0.04368595     -0.28179780     -0.06067487
     0.02885464     -0.16946768     -0.03013222
    -0.00145683     -0.00083845      0.00016641
     0.10867342      0.04187261      0.18354864
    -0.38076618     -0.31786414      0.57597810
     0.23573744     -0.18379822      0.37405595
    -0.07535233      0.03080072      0.12107479
     0.00123561     -0.00073211      0.00010635
    -0.00013984      0.00200844     -0.00030987
     0.00012820      0.00169163     -0.00027471
vibration 63
    -0.00053296      0.00000696     -0.00002004
     0.00044295      0.00001329     -0.00002803
     0.00010091     -0.00013970      0.00012542
    -0.00010680     -0.00011048      0.00010724
    -0.00001276      0.00001703     -0.00001546
    -0.00005748      0.00006669     -0.00006434
     0.00001685      0.00001522     -0.00001628
     0.00005671      0.00005046     -0.00005342
    -0.00008580     -0.00011259      0.00013914
     0.00008708     -0.00010648      0.00015462
     0.00110954     -0.02196870      0.00342113
    -0.05042250      0.02832768     -0.00411438
     0.04759186      0.02580327     -0.00514452
    -0.00113966     -0.01846501      0.00290818
     0.00009502      0.00072935      0.00015622
    -0.00009685      0.00071761      0.00013108
    -0.55336018     -0.31237825      0.06204047
    -0.00015652     -0.00011097     -0.00029803
     0.00096383      0.00079634     -0.00146195
    -0.00098456      0.00076483     -0.00157239
     0.00018526     -0.00012687     -0.00032232
     0.58667532     -0.33943449      0.04958348
     0.00005341      0.22401553     -0.03516532
     0.00176165      0.26491204     -0.04153218
vibration 64
    -0.00095532     -0.00006560     -0.00002786
    -0.00074103      0.00021610      0.00002158
    -0.00001522     -0.00038992      0.00019166
    -0.00001190      0.00033925     -0.00015890
     0.00003737      0.00004385      0.00000394
    -0.00005831      0.00018981     -0.00012081
     0.00002695     -0.00003680     -0.00000350
    -0.00006193     -0.00016751      0.00010074
     0.00004675      0.00005876     -0.00008624
     0.00004714     -0.00005823      0.00010530
     0.00112576     -0.04059426      0.00633732
    -0.03628198      0.02434147     -0.00365773
    -0.04308706     -0.02718786      0.00534094
     0.00161695      0.03510310     -0.00552397
    -0.00001249     -0.00036022     -0.00009419
    -0.00000319      0.00035483      0.00008439
     0.50223640      0.28855885     -0.05727704
     0.00014071      0.00005206      0.00019606
    -0.00047167     -0.00045570      0.00077422
    -0.00050364      0.00046634     -0.00088185
     0.00019134     -0.00007415     -0.00026767
     0.42656609     -0.25202763      0.03703505
     0.00039574     -0.41396596      0.06502809
     0.00412344      0.47506401     -0.07455392
vibration 65
    -0.00215755      0.00118831     -0.00021676
     0.00161875      0.00102536     -0.00021948
    -0.00001578     -0.00065699      0.00031364
    -0.00004026     -0.00049990      0.00024603
     0.00010331      0.00007893      0.00001430
    -0.00006611      0.00027705     -0.00019307
    -0.00005466      0.00005608     -0.00000036
     0.00008297      0.00019826     -0.00013585
    -0.00002833     -0.00005671      0.00012546
    -0.00000116     -0.00006597      0.00012840
    -0.00185920     -0.06311739      0.00990279
     0.02950243     -0.01380160      0.00197433
    -0.01085111     -0.00249230      0.00062510
     0.00050249     -0.04932548      0.00771639
    -0.00002263      0.00032062      0.00009586
     0.00003296      0.00055784      0.00010788
     0.10601862      0.05566706     -0.01123682
    -0.00028039     -0.00010318     -0.00049094
     0.00046533      0.00050476     -0.00081365
    -0.00029489      0.00039516     -0.00065361
     0.00040401     -0.00013251     -0.00063796
    -0.31263788      0.17760728     -0.02599649
    -0.00413052      0.56241827     -0.08834019
     0.01091642      0.71479572     -0.11226565
vibration 66
     0.00130171     -0.00008003      0.00003278
     0.00204088      0.00049218     -0.00016385
     0.00014968      0.00044801     -0.00015947
     0.00014679     -0.00068971      0.00026232
    -0.00011244     -0.00005900     -0.00003508
    -0.00000730     -0.00021108      0.00013313
    -0.00014751      0.00008458      0.00003827
     0.00003148      0.00031136     -0.00019191
     0.00005309     -0.00008138      0.00004989
     0.00005757      0.00004877     -0.00000375
     0.00191835      0.03616506     -0.00569312
    -0.03075375      0.01843173     -0.00272109
    -0.03845020     -0.02102939      0.00422350
     0.00204250     -0.05858311      0.00915413
    -0.00001338      0.00091572      0.00015118
    -0.00000783     -0.00064822     -0.00007143
     0.41542243      0.23498754     -0.04682023
    -0.00037754     -0.00006763     -0.00054819
    -0.00019723      0.00003713      0.00006367
    -0.00033865      0.00013185     -0.00035954
    -0.00024774      0.00003924      0.00031929
     0.33571329     -0.19579185      0.02876301
    -0.00673359      0.65780980     -0.10323055
    -0.00729048     -0.40319579      0.06330360
[INT]
    4.495221
    0.968400
    0.070316
    3.867667
    0.240881
    4.019923
    0.516952
    0.447231
    0.045123
    4.908711
    7.731005
    3.179688
    2.589174
   15.484913
    3.715628
    2.396945
    0.167222
    6.103166
    1.573362
    0.279758
   14.994165
   83.788606
    2.615105
   10.816692
    3.939454
   13.796848
    0.783639
   12.712483
    7.617312
    1.733027
    0.462820
   32.150562
   34.997529
   51.581698
  166.937125
    0.290504
    1.611210
    1.193371
   18.160469
   53.842488
   80.117863
  609.110666
   39.281060
    0.032054
    9.423134
   26.909874
    2.194357
   11.852861
    6.369034
   14.683464
    6.250908
    2.789497
    0.717788
   11.973607
  566.338626
   23.548064
    9.445659
   54.974239
   34.437982
    3.066120
    5.694794
   15.994090
    1.480086
    5.509280
    3.457142
    9.489522

======= END OF MOLDEN-FORMATTED INPUT FILE =======


        *************************************************************
        *                                                           *
        *  Thank you very much for using Q-Chem.  Have a nice day.  *
        *                                                           *
        *************************************************************


