r0084.ten.osc.edu 10.25.153
Q-Chem Developer Version! Running on 10.25.153.*
                  Welcome to Q-Chem
     A Quantum Leap Into The Future Of Chemistry


 Q-Chem 5.0, Q-Chem, Inc., Pleasanton, CA (2017)

 Yihan Shao,  Zhengting Gan,  E. Epifanovsky,  A. T. B. Gilbert,  M. Wormit,  
 J. Kussmann,  A. W. Lange,  A. Behn,  Jia Deng,  Xintian Feng,  D. Ghosh,  
 M. Goldey,  P. R. Horn,  L. D. Jacobson,  I. Kaliman,  T. Kus,  A. Landau,  
 Jie Liu,  E. I. Proynov,  R. M. Richard,  R. P. Steele,  E. J. Sundstrom,  
 H. L. Woodcock III,  P. M. Zimmerman,  D. Zuev,  B. Albrecht,  E. Alguire,  
 S. A. Baeppler,  Z. Benda,  Y. A. Bernard,  E. J. Berquist,  K. B. Bravaya,  
 D. Casanova,  Chun-Min Chang,  Yunqing Chen,  A. Chien,  K. D. Closser,  
 M. P. Coons,  S. Dasgupta,  M. Diedenhofen,  Hainam Do,  R. G. Edgar,  
 Po-Tung Fang,  S. Fatehi,  Qingguo Feng,  Qinghui Ge,  A. Ghysels,  
 J. Gomes,  J. Gonthier,  A. Gunina,  M. W. D. Hanson-Heine,  
 P. H. P. Harbach,  A. W. Hauser,  J. E. Herr,  E. G. Hohenstein,  
 Z. C. Holden,  Kerwin Hui,  T.-C. Jagau,  Hyunjun Ji,  B. Kaduk,  
 K. Khistyaev,  Jaehoon Kim,  P. Klunzinger,  K. Koh,  D. Kosenkov,  
 T. Kowalczyk,  C. M. Krauter,  A. Kunitsa,  Ka Un Lao,  A. Laurent,  
 K. V. Lawler,  Joonho Lee,  D. Lefrancois,  S. Lehtola,  D. S. Levine,  
 Yi-Pei Li,  You-Sheng Lin,  Fenglai Liu,  E. Livshits,  A. Luenser,  
 P. Manohar,  E. Mansoor,  S. F. Manzer,  Shan-Ping Mao,  Yuezhi Mao,  
 N. Mardirossian,  A. V. Marenich,  L. A. Martinez-Martinez,  S. A. Maurer,  
 N. J. Mayhall,  S. C. McKenzie,  J.-M. Mewes,  A. F. Morrison,  K. Nanda,  
 T. S. Nguyen-Beck,  R. Olivares-Amaya,  J. A. Parkhill,  T. M. Perrine,  
 F. Plasser,  S. Prager,  A. Prociuk,  D. R. Rehn,  F. Rob,  M. Schneider,  
 N. Sergueev,  S. M. Sharada,  S. Sharma,  D. W. Small,  T. Stauch,  
 T. Stein,  Yu-Chuan Su,  A. J. W. Thom,  T. Tsuchimochi,  L. Vogt,  
 O. Vydrov,  M. A. Watson,  J. Wenzel,  M. de Wergifosse,  T. A. Wesolowski,  
 A. White,  J. Witte,  A. Yamada,  Jun Yang,  K. Yao,  S. Yeganeh,  
 S. R. Yost,  Zhi-Qiang You,  A. Zech,  Igor Ying Zhang,  Xing Zhang,  
 Yan Zhao,  Ying Zhu,  B. R. Brooks,  G. K. L. Chan,  C. J. Cramer,  
 M. S. Gordon,  W. J. Hehre,  A. Klamt,  M. W. Schmidt,  C. D. Sherrill,  
 D. G. Truhlar,  A. Aspuru-Guzik,  R. Baer,  A. T. Bell,  N. A. Besley,  
 Jeng-Da Chai,  A. Dreuw,  B. D. Dunietz,  T. R. Furlani,  Chao-Ping Hsu,  
 Yousung Jung,  Jing Kong,  D. S. Lambrecht,  WanZhen Liang,  C. Ochsenfeld,  
 V. A. Rassolov,  L. V. Slipchenko,  J. E. Subotnik,  T. Van Voorhis,  
 J. M. Herbert,  A. I. Krylov,  P. M. W. Gill,  M. Head-Gordon

 Contributors to earlier versions of Q-Chem not listed above: 
 R. D. Adamson,  B. Austin,  J. Baker,  G. J. O. Beran,  K. Brandhorst,  
 S. T. Brown,  E. F. C. Byrd,  A. K. Chakraborty,  C.-L. Cheng,  
 Siu Hung Chien,  D. M. Chipman,  D. L. Crittenden,  H. Dachsel,  
 R. A. DiStasio Jr.,  R. J. Doerksen,  A. D. Dutoi,  L. Fusti-Molnar,  
 W. A. Goddard III,  A. Golubeva-Zadorozhnaya,  S. R. Gwaltney,  G. Hawkins,  
 A. Heyden,  S. Hirata,  G. Kedziora,  F. J. Keil,  C. Kelley,  Jihan Kim,  
 R. A. King,  R. Z. Khaliullin,  P. P. Korambath,  W. Kurlancheek,  
 A. M. Lee,  M. S. Lee,  S. V. Levchenko,  Ching Yeh Lin,  D. Liotard,  
 R. C. Lochan,  I. Lotan,  P. E. Maslen,  N. Nair,  D. P. O'Neill,  
 D. Neuhauser,  E. Neuscamman,  C. M. Oana,  R. Olson,  B. Peters,  
 R. Peverati,  P. A. Pieniazek,  Y. M. Rhee,  J. Ritchie,  M. A. Rohrdanz,  
 E. Rosta,  N. J. Russ,  H. F. Schaefer III,  N. E. Schultz,  N. Shenvi,  
 A. C. Simmonett,  A. Sodt,  D. Stuck,  K. S. Thanthiriwatte,  V. Vanovschi,  
 Tao Wang,  A. Warshel,  C. F. Williams,  Q. Wu,  X. Xu,  W. Zhang

 Please cite Q-Chem as follows:
 Y. Shao et al., Mol. Phys. 113, 184-215 (2015)
 DOI: 10.1080/00268976.2014.952696

 Q-Chem 5.0.1 for Intel X86 EM64T Linux

 Parts of Q-Chem use Armadillo 5.200.1 (Boston Tea Smuggler).
 http://arma.sourceforge.net/

 Q-Chem begins on Sun Oct 15 23:04:55 2017  

Host: r0084.ten.osc.edu
0

     Scratch files written to /tmp/pbstmp.1310562/03//
Processing $rem in /users/PAS0291/osu6415/.qchemrc.
molden_format             true

Checking the input file for inconsistencies... 	...done.

--------------------------------------------------------------
User input:
--------------------------------------------------------------
$molecule
0 1
C 0.66889947 -0.86548595 -0.62223406
C 0.55671019 0.70077923 -0.73418274
C -0.50696926 -1.72359724 -0.17823632
C -0.82542723 1.32441627 -0.64166972
O -1.66963091 -1.06955838 -0.07215539
O -0.38685694 -2.90804379 0.03017992
O -1.14838903 1.68850547 0.61217816
O -1.52941171 1.52944037 -1.60114288
C -2.45981756 2.24712582 0.78615221
C -2.81530206 -1.85133191 0.31689659
C 1.81635410 -0.99338944 0.42113381
C 3.15847424 -0.54523453 -0.19694939
C 2.99703818 1.00544955 -0.17937987
C 1.56355734 1.14010258 0.37145603
O 1.49758482 0.07031732 1.32820421
H 0.96687677 -1.29121512 -1.58309230
H 0.91435012 0.99536638 -1.72148945
H -2.57052033 3.16221572 0.20197269
H -2.67697544 -2.24589119 1.32435961
H 1.82658916 -1.94594843 0.94292992
H 3.99046515 -0.86895408 0.42959103
H 3.31176960 -0.95370495 -1.19787790
H 3.70746152 1.47016359 0.50573131
H 3.11971360 1.46549840 -1.16190799
H 1.32196645 2.08028838 0.85762367
H -3.21919276 1.52910780 0.47187626
H -2.54757556 2.45696574 1.84995236
H -2.96600418 -2.67677409 -0.37931625
H -3.65719530 -1.16371039 0.28440700
$end

$rem
sym_ignore      true
jobtype         ts
method          b3lyp
basis           6-311++G(d,p)
dft_d           d3_op
mem_total       62000
MEM_STATIC      4000
ao2mo_disk      350000
max_scf_cycles  200
geom_opt_max_cycles 1000
geom_opt_tol_displacement 1
GEOM_OPT_TOL_GRADIENT       1
GEOM_OPT_TOL_ENERGY         1
$end

--------------------------------------------------------------
 Adding empirical dispersion correction 
 ----------------------------------------------------------------
 Doing -D3(op) with
 s6 =   1.00000
 s8 =   0.78311
 a1 =   0.30000
 a2 =   4.25000
 n  =  10.00000
 -D3 energy without 3body term =     -0.0307345557 hartrees
 ----------------------------------------------------------------
             Standard Nuclear Orientation (Angstroms)
    I     Atom           X                Y                Z
 ----------------------------------------------------------------
    1      C       0.6688994700    -0.8654859500    -0.6222340600
    2      C       0.5567101900     0.7007792300    -0.7341827400
    3      C      -0.5069692600    -1.7235972400    -0.1782363200
    4      C      -0.8254272300     1.3244162700    -0.6416697200
    5      O      -1.6696309100    -1.0695583800    -0.0721553900
    6      O      -0.3868569400    -2.9080437900     0.0301799200
    7      O      -1.1483890300     1.6885054700     0.6121781600
    8      O      -1.5294117100     1.5294403700    -1.6011428800
    9      C      -2.4598175600     2.2471258200     0.7861522100
   10      C      -2.8153020600    -1.8513319100     0.3168965900
   11      C       1.8163541000    -0.9933894400     0.4211338100
   12      C       3.1584742400    -0.5452345300    -0.1969493900
   13      C       2.9970381800     1.0054495500    -0.1793798700
   14      C       1.5635573400     1.1401025800     0.3714560300
   15      O       1.4975848200     0.0703173200     1.3282042100
   16      H       0.9668767700    -1.2912151200    -1.5830923000
   17      H       0.9143501200     0.9953663800    -1.7214894500
   18      H      -2.5705203300     3.1622157200     0.2019726900
   19      H      -2.6769754400    -2.2458911900     1.3243596100
   20      H       1.8265891600    -1.9459484300     0.9429299200
   21      H       3.9904651500    -0.8689540800     0.4295910300
   22      H       3.3117696000    -0.9537049500    -1.1978779000
   23      H       3.7074615200     1.4701635900     0.5057313100
   24      H       3.1197136000     1.4654984000    -1.1619079900
   25      H       1.3219664500     2.0802883800     0.8576236700
   26      H      -3.2191927600     1.5291078000     0.4718762600
   27      H      -2.5475755600     2.4569657400     1.8499523600
   28      H      -2.9660041800    -2.6767740900    -0.3793162500
   29      H      -3.6571953000    -1.1637103900     0.2844070000
 ----------------------------------------------------------------
 Nuclear Repulsion Energy =  1118.0718256371 hartrees
 There are       57 alpha and       57 beta electrons
 Requested basis set is 6-311++G(d,p)
 There are 160 shells and 428 basis functions

 Total QAlloc Memory Limit  62000 MB
 Mega-Array Size      3911 MB
 MEM_STATIC part      4000 MB
 A cutoff of  1.0D-11 yielded  10627 shell pairs
 There are     77653 function pairs (     82938 Cartesian)
 
 -------------------------------------------------------
 OpenMP Integral Computing Module                       
 Release: version 1.0, May 2013, Q-Chem Inc. Pittsburgh 
 -------------------------------------------------------
 Integral Job Info:
 Integral job number is                      11
 Integral operator is                         1
 short-range coefficients                     0
 long-range coefficients              100000000
 Omega coefficients                           0
 if combine SR and LR in K                    0
 Integral screening is                        0
 Integral computing path is                   2
 max size of driver memory is            800000
 size of driver memory is                593474
 size of scratch memory is              2361544
 max col of scratch BK array               1296
 max len of scratch array in speh3          155
 max len of scratch index in speh4           18
 max int batch size is                      520
 min int batch size is                       52
 fixed nKL is                                52
 max L of basis functions is                  2
 order of int derivative is                   0
 number of shells is                        160
 number of basis is                         443
 number of cartesian basis is               443
 number of contracted shell pairs         10627
 number of primitive shell pairs          24110
 maxK2 (contraction) of shell pair           36
 max number of K2 of shell pair               1
 max number of CS2 of shell pair           1954
 max number of PS2 of shell pair           3432
 mem total for path MDJ                  142472
 -------------------------------------------------------
 Smallest overlap matrix eigenvalue = 1.23E-06

 Q-Chem warning in module /fs/scratch/osu6415/qchem-kaunlao-vdw/stvman/mkSTV.C, line 281:

 Overlap eigenvalue is smaller than square root of threshold


 Scale SEOQF with 1.000000e-01/1.000000e-01/1.000000e-01

 Standard Electronic Orientation quadrupole field applied
 Nucleus-field energy     =     0.0000000274 hartrees
 Guess from superposition of atomic densities
 Warning:  Energy on first SCF cycle will be non-variational
 A restricted hybrid HF-DFT SCF calculation will be
 performed using Pulay DIIS extrapolation
 Exchange:     0.2000 Hartree-Fock + 0.0800 Slater + 0.7200 B88
 Correlation:  0.1900 VWN1RPA + 0.8100 LYP
 Using SG-1 standard quadrature grid
 Dispersion:   Grimme D3
 SCF converges when DIIS error is below 1.0E-08
 using 20 threads for integral computing
 -------------------------------------------------------
 OpenMP Integral computing Module                
 Release: version 1.0, May 2013, Q-Chem Inc. Pittsburgh 
 -------------------------------------------------------
 -------------------------------------------------------
 OpenMP BLAS3 based DFT computing Module                
 Release: version 1.0, May 2013, Q-Chem Inc. Pittsburgh 
 -------------------------------------------------------
 ---------------------------------------
  Cycle       Energy         DIIS Error
 ---------------------------------------
    1    -768.9297073228      3.08E-02
    2    -765.5712019209      3.94E-03
    3    -765.0687599548      6.80E-03
    4    -765.8177172295      1.47E-03
    5    -765.8548383608      4.47E-04
    6    -765.8578335878      1.42E-04
    7    -765.8581554394      4.42E-05
    8    -765.8581882620      1.14E-05
    9    -765.8581906461      2.73E-06
   10    -765.8581907533      1.25E-06
   11    -765.8581907786      2.70E-07
   12    -765.8581907797      1.42E-07
   13    -765.8581907799      4.42E-08
   14    -765.8581907794      1.59E-08
   15    -765.8581907823      3.11E-09 Convergence criterion met
 ---------------------------------------
 SCF time:  CPU 747.56 s  wall 40.07 s
 SCF   energy in the final basis set = -765.85819078
 Total energy in the final basis set = -765.85819078
 
 --------------------------------------------------------------
 
                    Orbital Energies (a.u.)
 --------------------------------------------------------------
 
 Alpha MOs
 -- Occupied --
-19.181 -19.171 -19.133 -19.119 -19.112 -10.312 -10.305 -10.236
-10.234 -10.234 -10.229 -10.211 -10.205 -10.182 -10.182  -1.124
 -1.113  -1.065  -1.033  -1.025  -0.831  -0.785  -0.778  -0.740
 -0.729  -0.660  -0.606  -0.597  -0.579  -0.573  -0.551  -0.518
 -0.506  -0.491  -0.490  -0.489  -0.478  -0.472  -0.464  -0.434
 -0.426  -0.417  -0.412  -0.406  -0.381  -0.375  -0.368  -0.367
 -0.363  -0.355  -0.341  -0.338  -0.323  -0.309  -0.291  -0.285
 -0.273
 -- Virtual --
 -0.019  -0.011  -0.006  -0.003   0.005   0.010   0.015   0.020
  0.029   0.033   0.036   0.041   0.045   0.045   0.050   0.057
  0.073   0.074   0.079   0.087   0.088   0.091   0.098   0.100
  0.105   0.108   0.111   0.113   0.115   0.122   0.124   0.129
  0.130   0.131   0.137   0.140   0.144   0.147   0.149   0.149
  0.150   0.155   0.158   0.161   0.163   0.169   0.174   0.178
  0.180   0.184   0.186   0.190   0.191   0.197   0.203   0.208
  0.210   0.213   0.219   0.223   0.230   0.232   0.237   0.248
  0.254   0.263   0.264   0.273   0.277   0.282   0.290   0.293
  0.298   0.300   0.305   0.312   0.316   0.323   0.326   0.327
  0.329   0.334   0.344   0.349   0.354   0.356   0.359   0.362
  0.367   0.373   0.377   0.381   0.382   0.389   0.399   0.402
  0.407   0.413   0.419   0.423   0.443   0.449   0.459   0.475
  0.485   0.499   0.510   0.515   0.519   0.535   0.537   0.548
  0.550   0.576   0.589   0.590   0.599   0.606   0.623   0.623
  0.633   0.639   0.649   0.651   0.661   0.673   0.680   0.681
  0.692   0.701   0.704   0.715   0.718   0.721   0.731   0.739
  0.745   0.755   0.762   0.769   0.774   0.779   0.781   0.798
  0.805   0.822   0.850   0.855   0.876   0.899   0.937   0.954
  0.963   0.980   1.007   1.011   1.025   1.051   1.070   1.081
  1.098   1.104   1.121   1.162   1.170   1.178   1.193   1.197
  1.210   1.228   1.235   1.244   1.256   1.264   1.274   1.293
  1.316   1.329   1.337   1.353   1.371   1.391   1.395   1.403
  1.412   1.430   1.436   1.446   1.455   1.468   1.484   1.500
  1.517   1.542   1.546   1.552   1.561   1.565   1.573   1.583
  1.588   1.592   1.611   1.620   1.637   1.646   1.675   1.683
  1.691   1.700   1.709   1.713   1.723   1.737   1.739   1.743
  1.767   1.786   1.803   1.807   1.811   1.828   1.840   1.846
  1.871   1.892   1.898   1.910   1.916   1.938   1.953   1.962
  1.978   1.998   2.012   2.031   2.041   2.057   2.067   2.101
  2.114   2.119   2.137   2.142   2.163   2.181   2.186   2.189
  2.225   2.245   2.254   2.285   2.309   2.334   2.368   2.421
  2.451   2.465   2.467   2.471   2.491   2.498   2.512   2.520
  2.529   2.544   2.553   2.571   2.580   2.585   2.621   2.642
  2.658   2.666   2.692   2.728   2.752   2.762   2.775   2.776
  2.821   2.827   2.843   2.846   2.862   2.867   2.889   2.896
  2.912   2.927   2.954   2.974   2.989   3.009   3.012   3.032
  3.063   3.080   3.098   3.099   3.116   3.141   3.148   3.163
  3.181   3.203   3.231   3.235   3.240   3.262   3.288   3.316
  3.349   3.370   3.391   3.399   3.445   3.602   3.610   3.643
  3.676   3.742   3.774   3.779   3.848   3.860   3.885   3.932
  4.002   4.016   4.052   4.058   4.088   4.113   4.156   4.164
  4.174   4.232   4.258   4.406   4.502   5.014   5.072   5.080
  5.141   5.205   5.236   5.249   5.418   5.450   5.501   5.589
  5.640   5.656   5.876   5.884  23.829  23.837  23.847  23.864
 23.891  23.928  23.941  23.946  23.965  24.049  49.905  49.934
 49.980  50.021  50.037
 --------------------------------------------------------------
 
          Ground-State Mulliken Net Atomic Charges

     Atom                 Charge (a.u.)
  ----------------------------------------
      1 C                    -0.435656
      2 C                     0.921048
      3 C                    -0.579035
      4 C                    -0.685440
      5 O                    -0.084102
      6 O                    -0.232130
      7 O                     0.000919
      8 O                    -0.189768
      9 C                    -0.196478
     10 C                    -0.213502
     11 C                     0.357840
     12 C                    -0.356687
     13 C                    -0.612534
     14 C                    -0.271749
     15 O                    -0.120426
     16 H                     0.221444
     17 H                     0.281653
     18 H                     0.174382
     19 H                     0.193614
     20 H                     0.282059
     21 H                     0.189008
     22 H                     0.129951
     23 H                     0.184687
     24 H                     0.119926
     25 H                     0.267887
     26 H                     0.171401
     27 H                     0.160499
     28 H                     0.183604
     29 H                     0.137585
  ----------------------------------------
  Sum of atomic charges =    -0.000000

 -----------------------------------------------------------------
                    Cartesian Multipole Moments
 -----------------------------------------------------------------
    Charge (ESU x 10^10)
                -0.0000
    Dipole Moment (Debye)
         X       0.1435      Y       1.2867      Z       0.3111
       Tot       1.3315
    Quadrupole Moments (Debye-Ang)
        XX     -75.3408     XY       2.4664     YY     -92.6276
        XZ      -9.3394     YZ       4.3007     ZZ     -94.1633
    Octopole Moments (Debye-Ang^2)
       XXX     -37.8860    XXY      -9.4268    XYY     -12.4616
       YYY      46.5666    XXZ      15.9359    XYZ     -10.2631
       YYZ      11.4692    XZZ      -0.9030    YZZ      -9.7616
       ZZZ       7.3865
    Hexadecapole Moments (Debye-Ang^3)
      XXXX   -1961.1777   XXXY      28.6034   XXYY    -512.0633
      XYYY      -1.7067   YYYY   -1445.7861   XXXZ     -11.0657
      XXYZ      20.4633   XYYZ     -11.0416   YYYZ      24.3595
      XXZZ    -424.5108   XYZZ      14.7928   YYZZ    -285.0870
      XZZZ     -27.6367   YZZZ      25.7332   ZZZZ    -413.1784
 -----------------------------------------------------------------
 Calculating analytic gradient of the SCF energy
 Gradient of SCF Energy
            1           2           3           4           5           6
    1   0.0000607  -0.0001459   0.0001279  -0.0001010  -0.0000199  -0.0001139
    2  -0.0000459   0.0001212   0.0001073  -0.0003198   0.0000115  -0.0000828
    3   0.0005300  -0.0006231   0.0004574   0.0001126   0.0000608  -0.0004633
            7           8           9          10          11          12
    1  -0.0000252   0.0000921   0.0000302   0.0000221   0.0000082  -0.0000042
    2   0.0000045   0.0002132  -0.0000146  -0.0000069  -0.0000073  -0.0000418
    3  -0.0000053  -0.0000131  -0.0000202  -0.0000034  -0.0000160  -0.0000099
           13          14          15          16          17          18
    1   0.0000113  -0.0000069   0.0000013   0.0000182   0.0000029   0.0000057
    2   0.0000460  -0.0000027  -0.0000023   0.0000176  -0.0000421   0.0000081
    3   0.0000045  -0.0000484   0.0000161   0.0000093  -0.0000074   0.0000085
           19          20          21          22          23          24
    1  -0.0000051   0.0000142  -0.0000025   0.0000052   0.0000015  -0.0000110
    2   0.0000246   0.0000161  -0.0000081  -0.0000024   0.0000018  -0.0000250
    3   0.0000303   0.0000118  -0.0000178  -0.0000135  -0.0000339  -0.0000300
           25          26          27          28          29
    1   0.0000264   0.0000060   0.0000081  -0.0000007  -0.0000058
    2   0.0000040   0.0000046   0.0000136   0.0000017   0.0000058
    3  -0.0000106   0.0000159   0.0000070   0.0000342   0.0000177
 Max gradient component =       6.231E-04
 RMS gradient           =       1.263E-04
 Gradient time:  CPU 246.07 s  wall 18.33 s
 Geometry Optimization Parameters
   NAtoms,    NIC,     NZ,  NCons,   NDum,   NFix, NCnnct, MaxDiis
       29     227       0       0       0       0       0       0


** GEOMETRY OPTIMIZATION IN DELOCALIZED INTERNAL COORDINATES **
   Searching for a Transition State

   Optimization Cycle:   1

                       Coordinates (Angstroms)
     ATOM                X               Y               Z
      1  C         0.6688994700   -0.8654859500   -0.6222340600
      2  C         0.5567101900    0.7007792300   -0.7341827400
      3  C        -0.5069692600   -1.7235972400   -0.1782363200
      4  C        -0.8254272300    1.3244162700   -0.6416697200
      5  O        -1.6696309100   -1.0695583800   -0.0721553900
      6  O        -0.3868569400   -2.9080437900    0.0301799200
      7  O        -1.1483890300    1.6885054700    0.6121781600
      8  O        -1.5294117100    1.5294403700   -1.6011428800
      9  C        -2.4598175600    2.2471258200    0.7861522100
     10  C        -2.8153020600   -1.8513319100    0.3168965900
     11  C         1.8163541000   -0.9933894400    0.4211338100
     12  C         3.1584742400   -0.5452345300   -0.1969493900
     13  C         2.9970381800    1.0054495500   -0.1793798700
     14  C         1.5635573400    1.1401025800    0.3714560300
     15  O         1.4975848200    0.0703173200    1.3282042100
     16  H         0.9668767700   -1.2912151200   -1.5830923000
     17  H         0.9143501200    0.9953663800   -1.7214894500
     18  H        -2.5705203300    3.1622157200    0.2019726900
     19  H        -2.6769754400   -2.2458911900    1.3243596100
     20  H         1.8265891600   -1.9459484300    0.9429299200
     21  H         3.9904651500   -0.8689540800    0.4295910300
     22  H         3.3117696000   -0.9537049500   -1.1978779000
     23  H         3.7074615200    1.4701635900    0.5057313100
     24  H         3.1197136000    1.4654984000   -1.1619079900
     25  H         1.3219664500    2.0802883800    0.8576236700
     26  H        -3.2191927600    1.5291078000    0.4718762600
     27  H        -2.5475755600    2.4569657400    1.8499523600
     28  H        -2.9660041800   -2.6767740900   -0.3793162500
     29  H        -3.6571953000   -1.1637103900    0.2844070000
   Point Group: c1    Number of degrees of freedom:    81


   Energy is   -765.858190782


 Attempting to Generate Delocalized Internal Coordinates

 81 Hessian modes will be used to form the next step
  Hessian Eigenvalues:
     0.003166    0.006283    0.006647    0.007292    0.010286    0.010819
     0.010849    0.010880    0.021940    0.022922    0.023819    0.025962
     0.030438    0.035907    0.037856    0.040528    0.043785    0.048867
     0.051586    0.054213    0.056015    0.057785    0.058657    0.062651
     0.064446    0.065000    0.073915    0.075221    0.092971    0.095662
     0.097533    0.101415    0.101416    0.106022    0.106142    0.115481
     0.123278    0.159504    0.160000    0.160000    0.160000    0.160000
     0.160000    0.160000    0.168370    0.235331    0.238387    0.247921
     0.249732    0.249950    0.250000    0.250000    0.250000    0.250000
     0.259296    0.269552    0.281997    0.301850    0.304496    0.336108
     0.345395    0.345961    0.346040    0.346610    0.346642    0.347102
     0.347231    0.347356    0.347405    0.347492    0.347767    0.350630
     0.351028    0.352601    0.353181    0.395144    0.401356    0.561011
     0.576083    1.006053    1.011110
**WARNING** Hessian does not have the Desired Local Structure

 Transition State Search - Taking P-RFO Step
 Searching for Lamda that Maximizes Along the Lowest mode
 Value Taken    Lamda =   0.00316679
 Searching for Lamda that Minimizes Along All other modes
 Value Taken    Lamda =  -0.00004679
 Calculated Step too Large.  Step scaled by  0.003180
 Step Taken.  Stepsize is  0.300000

                             Maximum     Tolerance    Cnvgd?
         Gradient           0.000256      0.000001      NO
         Displacement       0.102506      0.000001      NO
         Energy change     *********      0.000000      NO


 New Cartesian Coordinates Obtained by Inverse Iteration

 Displacement from previous Coordinates is:  0.688545
 Adding empirical dispersion correction 
 ----------------------------------------------------------------
 Doing -D3(op) with
 s6 =   1.00000
 s8 =   0.78311
 a1 =   0.30000
 a2 =   4.25000
 n  =  10.00000
 -D3 energy without 3body term =     -0.0306955205 hartrees
 ----------------------------------------------------------------
             Standard Nuclear Orientation (Angstroms)
    I     Atom           X                Y                Z
 ----------------------------------------------------------------
    1      C       0.6724764914    -0.8535705159    -0.6108112864
    2      C       0.5450658506     0.7103539153    -0.7405243383
    3      C      -0.5040453028    -1.7222073853    -0.1895948365
    4      C      -0.8390861311     1.3240438310    -0.6168544489
    5      O      -1.6762109368    -1.0808096881    -0.1158472823
    6      O      -0.3756741721    -2.9038512537     0.0295320638
    7      O      -1.1302337399     1.7002252329     0.6412077346
    8      O      -1.5710254505     1.5121912721    -1.5587053838
    9      C      -2.4409225118     2.2504036200     0.8450887861
   10      C      -2.8220687618    -1.8731096404     0.2507103933
   11      C       1.7991540300    -0.9647510998     0.4583137468
   12      C       3.1577388692    -0.5613508803    -0.1515044551
   13      C       3.0006131760     0.9878471854    -0.2307081511
   14      C       1.5760349082     1.1688331726     0.3332123820
   15      O       1.4932870512     0.1346195394     1.3266761206
   16      H       0.9971864988    -1.2825760215    -1.5614963755
   17      H       0.8729906074     0.9960718228    -1.7406709013
   18      H      -2.5753110651     3.1576740817     0.2537256298
   19      H      -2.7036557716    -2.2596592694     1.2638001135
   20      H       1.7841382352    -1.8990995959     1.0119490474
   21      H       3.9715475753    -0.8487304096     0.5153422599
   22      H       3.3350975691    -1.0300304353    -1.1216017627
   23      H       3.7250947905     1.4923755332     0.4100846307
   24      H       3.1085768148     1.3827711369    -1.2428517365
   25      H       1.3587109854     2.1304827109     0.7878275599
   26      H      -3.2027373531     1.5227371683     0.5602912134
   27      H      -2.5009465873     2.4719942754     1.9084324038
   28      H      -2.9466397127    -2.7046219721    -0.4434420476
   29      H      -3.6706135166    -1.1953532004     0.1934294407
 ----------------------------------------------------------------
 Nuclear Repulsion Energy =  1117.8554667335 hartrees
 There are       57 alpha and       57 beta electrons
 Applying Cartesian multipole field
    Component          Value
    ---------          -----
     (2,0,0)        1.00000E-11
     (0,2,0)        2.00000E-11
     (0,0,2)       -3.00000E-11
 Nucleus-field energy     =     0.0000000275 hartrees
 Requested basis set is 6-311++G(d,p)
 There are 160 shells and 428 basis functions
 A cutoff of  1.0D-11 yielded  10625 shell pairs
 There are     77618 function pairs (     82903 Cartesian)
 Smallest overlap matrix eigenvalue = 1.22E-06

 Q-Chem warning in module /fs/scratch/osu6415/qchem-kaunlao-vdw/stvman/mkSTV.C, line 281:

 Overlap eigenvalue is smaller than square root of threshold

 Guess MOs from SCF MO coefficient file
 Reading MOs from coefficient file
 Reading MOs from coefficient file
 A restricted hybrid HF-DFT SCF calculation will be
 performed using Pulay DIIS extrapolation
 Exchange:     0.2000 Hartree-Fock + 0.0800 Slater + 0.7200 B88
 Correlation:  0.1900 VWN1RPA + 0.8100 LYP
 Using SG-1 standard quadrature grid
 Dispersion:   Grimme D3
 SCF converges when DIIS error is below 1.0E-08
 Geometry optimization detected.  Setting ReadMinima to 0
 Setting SaveMinima to 0
 using 20 threads for integral computing
 -------------------------------------------------------
 OpenMP Integral computing Module                
 Release: version 1.0, May 2013, Q-Chem Inc. Pittsburgh 
 -------------------------------------------------------
 -------------------------------------------------------
 OpenMP BLAS3 based DFT computing Module                
 Release: version 1.0, May 2013, Q-Chem Inc. Pittsburgh 
 -------------------------------------------------------
 ---------------------------------------
  Cycle       Energy         DIIS Error
 ---------------------------------------
    1    -765.8350123402      9.13E-04
    2    -765.8574664023      1.58E-04
    3    -765.8568661624      2.48E-04
    4    -765.8579931972      5.14E-05
    5    -765.8580291189      2.01E-05
    6    -765.8580355235      5.27E-06
    7    -765.8580359180      2.22E-06
    8    -765.8580360028      4.14E-07
    9    -765.8580360057      1.55E-07
   10    -765.8580360065      6.19E-08
   11    -765.8580360072      2.05E-08
   12    -765.8580360040      1.15E-08
   13    -765.8580360028      1.75E-09 Convergence criterion met
 ---------------------------------------
 SCF time:  CPU 646.87 s  wall 34.82 s
 SCF   energy in the final basis set = -765.85803600
 Total energy in the final basis set = -765.85803600
 
 --------------------------------------------------------------
 
                    Orbital Energies (a.u.)
 --------------------------------------------------------------
 
 Alpha MOs
 -- Occupied --
-19.181 -19.171 -19.133 -19.119 -19.111 -10.312 -10.305 -10.235
-10.235 -10.234 -10.229 -10.211 -10.205 -10.182 -10.182  -1.124
 -1.112  -1.065  -1.033  -1.024  -0.831  -0.785  -0.778  -0.740
 -0.729  -0.660  -0.606  -0.597  -0.579  -0.572  -0.551  -0.518
 -0.506  -0.491  -0.489  -0.488  -0.478  -0.472  -0.464  -0.433
 -0.426  -0.416  -0.413  -0.405  -0.381  -0.375  -0.368  -0.367
 -0.363  -0.355  -0.341  -0.339  -0.323  -0.309  -0.291  -0.284
 -0.273
 -- Virtual --
 -0.019  -0.010  -0.006  -0.003   0.005   0.010   0.015   0.020
  0.029   0.033   0.036   0.041   0.044   0.046   0.050   0.057
  0.072   0.075   0.079   0.088   0.088   0.091   0.098   0.100
  0.105   0.108   0.111   0.113   0.115   0.121   0.125   0.129
  0.131   0.131   0.137   0.140   0.144   0.146   0.148   0.150
  0.150   0.156   0.158   0.161   0.164   0.168   0.174   0.178
  0.180   0.183   0.187   0.190   0.193   0.195   0.204   0.209
  0.210   0.213   0.220   0.223   0.228   0.232   0.238   0.252
  0.253   0.263   0.265   0.274   0.276   0.280   0.289   0.292
  0.298   0.302   0.304   0.312   0.316   0.321   0.326   0.329
  0.330   0.335   0.343   0.346   0.355   0.357   0.359   0.363
  0.367   0.374   0.378   0.380   0.382   0.388   0.398   0.401
  0.407   0.414   0.420   0.422   0.442   0.448   0.458   0.475
  0.484   0.499   0.510   0.516   0.520   0.536   0.537   0.548
  0.551   0.575   0.588   0.591   0.599   0.608   0.622   0.623
  0.633   0.639   0.647   0.652   0.660   0.673   0.677   0.682
  0.692   0.701   0.705   0.715   0.716   0.721   0.732   0.736
  0.745   0.755   0.764   0.770   0.775   0.778   0.781   0.797
  0.805   0.822   0.850   0.856   0.876   0.895   0.938   0.954
  0.964   0.978   1.007   1.011   1.026   1.051   1.072   1.079
  1.100   1.102   1.122   1.164   1.174   1.185   1.192   1.197
  1.212   1.225   1.235   1.244   1.260   1.264   1.274   1.292
  1.316   1.335   1.338   1.355   1.373   1.391   1.395   1.404
  1.414   1.430   1.436   1.445   1.454   1.466   1.491   1.502
  1.514   1.542   1.544   1.551   1.558   1.565   1.572   1.579
  1.587   1.592   1.607   1.622   1.640   1.650   1.676   1.683
  1.693   1.699   1.711   1.712   1.722   1.738   1.741   1.742
  1.767   1.780   1.801   1.807   1.811   1.830   1.842   1.846
  1.868   1.891   1.900   1.912   1.922   1.938   1.954   1.960
  1.977   1.996   2.011   2.033   2.042   2.058   2.070   2.101
  2.115   2.121   2.137   2.143   2.159   2.182   2.188   2.190
  2.224   2.243   2.252   2.284   2.308   2.333   2.372   2.423
  2.451   2.465   2.466   2.470   2.491   2.500   2.514   2.521
  2.529   2.545   2.551   2.568   2.579   2.583   2.623   2.640
  2.657   2.667   2.691   2.730   2.754   2.763   2.775   2.782
  2.813   2.829   2.839   2.844   2.862   2.866   2.889   2.900
  2.916   2.925   2.953   2.975   2.989   3.006   3.017   3.032
  3.062   3.084   3.100   3.100   3.118   3.139   3.144   3.163
  3.183   3.202   3.230   3.236   3.241   3.262   3.278   3.317
  3.347   3.370   3.392   3.401   3.445   3.602   3.611   3.643
  3.675   3.747   3.775   3.780   3.848   3.861   3.884   3.934
  4.001   4.019   4.054   4.059   4.088   4.113   4.156   4.162
  4.173   4.232   4.256   4.407   4.504   5.015   5.072   5.079
  5.142   5.205   5.235   5.250   5.418   5.447   5.502   5.591
  5.639   5.656   5.874   5.888  23.828  23.837  23.847  23.864
 23.893  23.927  23.940  23.946  23.969  24.049  49.905  49.935
 49.979  50.020  50.039
 --------------------------------------------------------------
 
          Ground-State Mulliken Net Atomic Charges

     Atom                 Charge (a.u.)
  ----------------------------------------
      1 C                    -0.556845
      2 C                     1.044331
      3 C                    -0.530847
      4 C                    -0.738569
      5 O                    -0.079799
      6 O                    -0.231745
      7 O                    -0.000294
      8 O                    -0.190404
      9 C                    -0.187743
     10 C                    -0.214138
     11 C                     0.424102
     12 C                    -0.408434
     13 C                    -0.543654
     14 C                    -0.362881
     15 O                    -0.116303
     16 H                     0.219658
     17 H                     0.282290
     18 H                     0.174122
     19 H                     0.193108
     20 H                     0.282814
     21 H                     0.189714
     22 H                     0.127915
     23 H                     0.184457
     24 H                     0.120120
     25 H                     0.265210
     26 H                     0.168001
     27 H                     0.160520
     28 H                     0.182516
     29 H                     0.142779
  ----------------------------------------
  Sum of atomic charges =     0.000000

 -----------------------------------------------------------------
                    Cartesian Multipole Moments
 -----------------------------------------------------------------
    Charge (ESU x 10^10)
                -0.0000
    Dipole Moment (Debye)
         X       0.1748      Y       1.2355      Z       0.2578
       Tot       1.2741
    Quadrupole Moments (Debye-Ang)
        XX     -75.6181     XY       2.6424     YY     -92.4833
        XZ      -9.3379     YZ       4.1467     ZZ     -93.8794
    Octopole Moments (Debye-Ang^2)
       XXX     -36.8727    XXY     -10.3373    XYY     -12.8083
       YYY      45.7723    XXZ      15.9109    XYZ     -10.9998
       YYZ      10.8296    XZZ      -0.8982    YZZ      -9.9521
       ZZZ       6.3203
    Hexadecapole Moments (Debye-Ang^3)
      XXXX   -1963.8689   XXXY      28.8833   XXYY    -512.7762
      XYYY      -2.3987   YYYY   -1446.9707   XXXZ     -12.5433
      XXYZ      19.5343   XYYZ     -11.5258   YYYZ      18.1998
      XXZZ    -424.4038   XYZZ      11.4710   YYZZ    -284.2416
      XZZZ     -28.7579   YZZZ      16.0147   ZZZZ    -409.7049
 -----------------------------------------------------------------
 Calculating analytic gradient of the SCF energy
 Gradient of SCF Energy
            1           2           3           4           5           6
    1   0.0010071  -0.0010645   0.0002200   0.0001499  -0.0001780  -0.0001528
    2  -0.0000898  -0.0000031   0.0000185  -0.0005930   0.0001141   0.0000224
    3  -0.0005732   0.0005307   0.0007183   0.0005236  -0.0003904  -0.0004774
            7           8           9          10          11          12
    1   0.0002303  -0.0002357   0.0000980   0.0001311  -0.0015211   0.0008730
    2   0.0006040  -0.0002822  -0.0000637  -0.0000412   0.0000350  -0.0000418
    3  -0.0001475  -0.0000727  -0.0000172  -0.0000580  -0.0006209   0.0009196
           13          14          15          16          17          18
    1  -0.0007416   0.0014258  -0.0001165  -0.0000047   0.0000378   0.0000062
    2  -0.0001813   0.0005553   0.0002790   0.0001074  -0.0001851  -0.0000201
    3  -0.0009298   0.0003169   0.0003915  -0.0001299   0.0001128   0.0000108
           19          20          21          22          23          24
    1  -0.0000258  -0.0000241   0.0001432  -0.0001189  -0.0000640   0.0000678
    2   0.0000760   0.0000681  -0.0001104  -0.0000046  -0.0000521  -0.0000376
    3   0.0000165   0.0000890  -0.0001868  -0.0000305   0.0000784  -0.0001450
           25          26          27          28          29
    1  -0.0000687   0.0000015   0.0000006  -0.0000365  -0.0000397
    2  -0.0001183   0.0000094   0.0000323  -0.0000350  -0.0000623
    3  -0.0000520  -0.0000141   0.0000239   0.0000377   0.0000756
 Max gradient component =       1.521E-03
 RMS gradient           =       3.975E-04
 Gradient time:  CPU 244.47 s  wall 17.44 s
 Geometry Optimization Parameters
   NAtoms,    NIC,     NZ,  NCons,   NDum,   NFix, NCnnct, MaxDiis
       29     227       0       0       0       0       0       0

 Cartesian Hessian Update
 Hessian Updated using Powell/Murtagh-Sargent Update
  Mixing factors:     0.000030 Powell
                      0.999970 Murtagh-Sargent


** GEOMETRY OPTIMIZATION IN DELOCALIZED INTERNAL COORDINATES **
   Searching for a Transition State

   Optimization Cycle:   2

                       Coordinates (Angstroms)
     ATOM                X               Y               Z
      1  C         0.6724764914   -0.8535705159   -0.6108112864
      2  C         0.5450658506    0.7103539153   -0.7405243383
      3  C        -0.5040453028   -1.7222073853   -0.1895948365
      4  C        -0.8390861311    1.3240438310   -0.6168544489
      5  O        -1.6762109368   -1.0808096881   -0.1158472823
      6  O        -0.3756741721   -2.9038512537    0.0295320638
      7  O        -1.1302337399    1.7002252329    0.6412077346
      8  O        -1.5710254505    1.5121912721   -1.5587053838
      9  C        -2.4409225118    2.2504036200    0.8450887861
     10  C        -2.8220687618   -1.8731096404    0.2507103933
     11  C         1.7991540300   -0.9647510998    0.4583137468
     12  C         3.1577388692   -0.5613508803   -0.1515044551
     13  C         3.0006131760    0.9878471854   -0.2307081511
     14  C         1.5760349082    1.1688331726    0.3332123820
     15  O         1.4932870512    0.1346195394    1.3266761206
     16  H         0.9971864988   -1.2825760215   -1.5614963755
     17  H         0.8729906074    0.9960718228   -1.7406709013
     18  H        -2.5753110651    3.1576740817    0.2537256298
     19  H        -2.7036557716   -2.2596592694    1.2638001135
     20  H         1.7841382352   -1.8990995959    1.0119490474
     21  H         3.9715475753   -0.8487304096    0.5153422599
     22  H         3.3350975691   -1.0300304353   -1.1216017627
     23  H         3.7250947905    1.4923755332    0.4100846307
     24  H         3.1085768148    1.3827711369   -1.2428517365
     25  H         1.3587109854    2.1304827109    0.7878275599
     26  H        -3.2027373531    1.5227371683    0.5602912134
     27  H        -2.5009465873    2.4719942754    1.9084324038
     28  H        -2.9466397127   -2.7046219721   -0.4434420476
     29  H        -3.6706135166   -1.1953532004    0.1934294407
   Point Group: c1    Number of degrees of freedom:    81


   Energy is   -765.858036003

 Hessian Updated using Powell/Murtagh-Sargent Update
  Mixing factors:     0.999872 Powell
                      0.000128 Murtagh-Sargent

 77 Hessian modes will be used to form the next step
  Hessian Eigenvalues:
    -0.000038    0.006341    0.007184    0.008843    0.010286    0.010849
     0.010880    0.011201    0.021957    0.022928    0.023819    0.025973
     0.030441    0.035974    0.037874    0.040532    0.043822    0.048935
     0.051593    0.054219    0.056025    0.057807    0.058671    0.062741
     0.064451    0.065004    0.073916    0.075233    0.092971    0.095662
     0.097533    0.101415    0.101416    0.106022    0.106142    0.115512
     0.123280    0.159505    0.160000    0.160000    0.160001    0.168396
     0.235342    0.238388    0.247921    0.249732    0.249950    0.250000
     0.250000    0.250006    0.259305    0.269552    0.281997    0.301850
     0.304497    0.336109    0.345396    0.345961    0.346040    0.346610
     0.346642    0.347102    0.347231    0.347356    0.347406    0.347494
     0.347767    0.350630    0.351028    0.352601    0.353181    0.395144
     0.401357    0.561011    0.576083    1.006053    1.011110
**WARNING** Magnitude of eigenvalue   1 too small.  Replaced by    -0.000100

 Transition State Search - Taking P-RFO Step
 Searching for Lamda that Maximizes Along the Lowest mode
 Value Taken    Lamda =   0.00011475
 Searching for Lamda that Minimizes Along All other modes
 Value Taken    Lamda =  -0.00024929
 Calculated Step too Large.  Step scaled by  0.402664
 Step Taken.  Stepsize is  0.300000

                             Maximum     Tolerance    Cnvgd?
         Gradient           0.000815      0.000001      NO
         Displacement       0.122979      0.000001      NO
         Energy change      0.000155      0.000000      NO


 New Cartesian Coordinates Obtained by Inverse Iteration

 Displacement from previous Coordinates is:  0.571164
 Adding empirical dispersion correction 
 ----------------------------------------------------------------
 Doing -D3(op) with
 s6 =   1.00000
 s8 =   0.78311
 a1 =   0.30000
 a2 =   4.25000
 n  =  10.00000
 -D3 energy without 3body term =     -0.0308435066 hartrees
 ----------------------------------------------------------------
             Standard Nuclear Orientation (Angstroms)
    I     Atom           X                Y                Z
 ----------------------------------------------------------------
    1      C       0.6762775660    -0.8392088567    -0.6194138669
    2      C       0.5496412776     0.7249266369    -0.7609574635
    3      C      -0.5060171626    -1.7091633207    -0.2172290255
    4      C      -0.8329924861     1.3410828929    -0.6261014908
    5      O      -1.6704495652    -1.0581093702    -0.1133004034
    6      O      -0.3803049504    -2.8910023771     0.0027796960
    7      O      -1.1466841864     1.6408569869     0.6470512876
    8      O      -1.5479934732     1.5859860482    -1.5677923212
    9      C      -2.4575580428     2.1875069980     0.8598134589
   10      C      -2.8184321834    -1.8425617013     0.2632393297
   11      C       1.7853004485    -0.9498608497     0.4709409319
   12      C       3.1598337577    -0.5745766106    -0.1164918003
   13      C       3.0081271635     0.9705328733    -0.2585347239
   14      C       1.5863752177     1.1828329861     0.3049588421
   15      O       1.4835732591     0.1677337380     1.3160353516
   16      H       1.0214692390    -1.2700012646    -1.5618841975
   17      H       0.8679788030     1.0117459444    -1.7641494057
   18      H      -2.5746933908     3.1305612786     0.3232037292
   19      H      -2.6858503645    -2.2458347855     1.2680933552
   20      H       1.7455254401    -1.8745320856     1.0394263720
   21      H       3.9485707146    -0.8322219178     0.5912817739
   22      H       3.3717758250    -1.0836800415    -1.0589008656
   23      H       3.7422912768     1.5015527144     0.3489623922
   24      H       3.1051122080     1.3187564268    -1.2885710390
   25      H       1.3873849920     2.1568399482     0.7417311314
   26      H      -3.2185545590     1.4845646175     0.5167849088
   27      H      -2.5362216701     2.3436415979     1.9334794976
   28      H      -2.9656023792    -2.6618234312    -0.4408850755
   29      H      -3.6593403352    -1.1536419456     0.2314401405
 ----------------------------------------------------------------
 Nuclear Repulsion Energy =  1119.1321720046 hartrees
 There are       57 alpha and       57 beta electrons
 Applying Cartesian multipole field
    Component          Value
    ---------          -----
     (2,0,0)        1.00000E-11
     (0,2,0)        2.00000E-11
     (0,0,2)       -3.00000E-11
 Nucleus-field energy     =     0.0000000271 hartrees
 Requested basis set is 6-311++G(d,p)
 There are 160 shells and 428 basis functions
 A cutoff of  1.0D-11 yielded  10640 shell pairs
 There are     77759 function pairs (     83063 Cartesian)
 Smallest overlap matrix eigenvalue = 1.26E-06

 Q-Chem warning in module /fs/scratch/osu6415/qchem-kaunlao-vdw/stvman/mkSTV.C, line 281:

 Overlap eigenvalue is smaller than square root of threshold

 Guess MOs from SCF MO coefficient file
 Reading MOs from coefficient file
 Reading MOs from coefficient file
 A restricted hybrid HF-DFT SCF calculation will be
 performed using Pulay DIIS extrapolation
 Exchange:     0.2000 Hartree-Fock + 0.0800 Slater + 0.7200 B88
 Correlation:  0.1900 VWN1RPA + 0.8100 LYP
 Using SG-1 standard quadrature grid
 Dispersion:   Grimme D3
 SCF converges when DIIS error is below 1.0E-08
 Geometry optimization detected.  Setting ReadMinima to 0
 Setting SaveMinima to 0
 using 20 threads for integral computing
 -------------------------------------------------------
 OpenMP Integral computing Module                
 Release: version 1.0, May 2013, Q-Chem Inc. Pittsburgh 
 -------------------------------------------------------
 -------------------------------------------------------
 OpenMP BLAS3 based DFT computing Module                
 Release: version 1.0, May 2013, Q-Chem Inc. Pittsburgh 
 -------------------------------------------------------
 ---------------------------------------
  Cycle       Energy         DIIS Error
 ---------------------------------------
    1    -765.8386137056      8.61E-04
    2    -765.8574989302      1.09E-04
    3    -765.8571604638      1.86E-04
    4    -765.8577771532      3.92E-05
    5    -765.8577994945      1.31E-05
    6    -765.8578020352      5.25E-06
    7    -765.8578024679      1.60E-06
    8    -765.8578025106      4.15E-07
    9    -765.8578025138      1.10E-07
   10    -765.8578025144      7.08E-08
   11    -765.8578025141      1.87E-08
   12    -765.8578025126      9.44E-09 Convergence criterion met
 ---------------------------------------
 SCF time:  CPU 614.68 s  wall 33.18 s
 SCF   energy in the final basis set = -765.85780251
 Total energy in the final basis set = -765.85780251
 
 --------------------------------------------------------------
 
                    Orbital Energies (a.u.)
 --------------------------------------------------------------
 
 Alpha MOs
 -- Occupied --
-19.181 -19.170 -19.133 -19.119 -19.111 -10.313 -10.305 -10.236
-10.235 -10.235 -10.228 -10.212 -10.205 -10.182 -10.182  -1.124
 -1.112  -1.065  -1.033  -1.024  -0.831  -0.785  -0.778  -0.740
 -0.729  -0.660  -0.606  -0.597  -0.579  -0.573  -0.551  -0.518
 -0.506  -0.491  -0.489  -0.488  -0.477  -0.472  -0.464  -0.433
 -0.427  -0.416  -0.413  -0.405  -0.381  -0.375  -0.368  -0.367
 -0.362  -0.356  -0.341  -0.339  -0.323  -0.308  -0.291  -0.284
 -0.273
 -- Virtual --
 -0.018  -0.011  -0.006  -0.003   0.005   0.010   0.015   0.020
  0.029   0.034   0.035   0.041   0.045   0.046   0.050   0.056
  0.073   0.074   0.079   0.087   0.089   0.091   0.097   0.099
  0.105   0.108   0.111   0.113   0.116   0.121   0.125   0.128
  0.130   0.131   0.137   0.140   0.144   0.147   0.148   0.149
  0.150   0.156   0.159   0.161   0.164   0.167   0.175   0.178
  0.181   0.182   0.189   0.189   0.193   0.195   0.205   0.209
  0.210   0.215   0.220   0.221   0.227   0.233   0.239   0.250
  0.256   0.263   0.266   0.274   0.276   0.280   0.288   0.294
  0.298   0.301   0.304   0.313   0.317   0.321   0.325   0.328
  0.330   0.336   0.345   0.346   0.356   0.357   0.360   0.364
  0.368   0.374   0.378   0.379   0.381   0.386   0.398   0.401
  0.406   0.414   0.422   0.423   0.440   0.448   0.459   0.476
  0.483   0.498   0.510   0.517   0.520   0.535   0.540   0.547
  0.552   0.575   0.588   0.591   0.600   0.607   0.621   0.623
  0.633   0.639   0.650   0.651   0.659   0.672   0.677   0.683
  0.690   0.702   0.707   0.717   0.717   0.720   0.734   0.734
  0.743   0.755   0.765   0.770   0.775   0.779   0.784   0.797
  0.807   0.821   0.849   0.857   0.876   0.895   0.937   0.950
  0.970   0.979   1.008   1.009   1.023   1.053   1.071   1.078
  1.102   1.107   1.126   1.163   1.173   1.182   1.192   1.200
  1.209   1.225   1.234   1.245   1.258   1.265   1.270   1.290
  1.316   1.331   1.341   1.357   1.375   1.391   1.397   1.404
  1.418   1.433   1.438   1.447   1.453   1.472   1.495   1.503
  1.513   1.538   1.543   1.551   1.557   1.564   1.572   1.577
  1.585   1.593   1.606   1.624   1.640   1.655   1.678   1.682
  1.695   1.700   1.707   1.714   1.722   1.739   1.743   1.744
  1.767   1.776   1.798   1.806   1.811   1.830   1.841   1.847
  1.866   1.889   1.899   1.917   1.928   1.940   1.954   1.958
  1.978   1.993   2.009   2.034   2.043   2.059   2.069   2.099
  2.117   2.124   2.129   2.148   2.159   2.182   2.188   2.191
  2.224   2.245   2.253   2.282   2.306   2.330   2.376   2.425
  2.453   2.462   2.468   2.473   2.491   2.498   2.514   2.521
  2.530   2.546   2.549   2.567   2.578   2.584   2.624   2.638
  2.657   2.672   2.691   2.731   2.755   2.764   2.774   2.788
  2.808   2.830   2.836   2.845   2.863   2.868   2.885   2.900
  2.917   2.922   2.953   2.978   2.986   3.004   3.023   3.031
  3.062   3.086   3.099   3.101   3.121   3.134   3.146   3.163
  3.185   3.198   3.228   3.236   3.239   3.264   3.277   3.324
  3.348   3.369   3.392   3.399   3.444   3.601   3.610   3.643
  3.674   3.745   3.774   3.780   3.849   3.860   3.883   3.935
  4.002   4.023   4.051   4.063   4.087   4.114   4.157   4.161
  4.171   4.232   4.254   4.406   4.503   5.012   5.076   5.084
  5.143   5.207   5.234   5.248   5.421   5.450   5.504   5.591
  5.639   5.655   5.877   5.885  23.827  23.837  23.848  23.865
 23.893  23.928  23.940  23.947  23.969  24.048  49.904  49.938
 49.979  50.019  50.038
 --------------------------------------------------------------
 
          Ground-State Mulliken Net Atomic Charges

     Atom                 Charge (a.u.)
  ----------------------------------------
      1 C                    -0.611788
      2 C                     1.039264
      3 C                    -0.508491
      4 C                    -0.715786
      5 O                    -0.079726
      6 O                    -0.231919
      7 O                     0.005974
      8 O                    -0.189833
      9 C                    -0.195375
     10 C                    -0.208858
     11 C                     0.477739
     12 C                    -0.466839
     13 C                    -0.494292
     14 C                    -0.399706
     15 O                    -0.111934
     16 H                     0.219781
     17 H                     0.283911
     18 H                     0.173446
     19 H                     0.193069
     20 H                     0.282785
     21 H                     0.189907
     22 H                     0.128278
     23 H                     0.183791
     24 H                     0.120088
     25 H                     0.261819
     26 H                     0.171999
     27 H                     0.161699
     28 H                     0.183253
     29 H                     0.137745
  ----------------------------------------
  Sum of atomic charges =    -0.000000

 -----------------------------------------------------------------
                    Cartesian Multipole Moments
 -----------------------------------------------------------------
    Charge (ESU x 10^10)
                -0.0000
    Dipole Moment (Debye)
         X       0.1970      Y       1.1031      Z       0.3188
       Tot       1.1650
    Quadrupole Moments (Debye-Ang)
        XX     -75.4101     XY       2.8566     YY     -93.0157
        XZ      -9.2977     YZ       4.1649     ZZ     -93.8183
    Octopole Moments (Debye-Ang^2)
       XXX     -36.9967    XXY     -10.8751    XYY     -11.1885
       YYY      43.1668    XXZ      16.3170    XYZ     -11.3587
       YYZ      12.4894    XZZ      -0.9408    YZZ     -11.5239
       ZZZ       7.9150
    Hexadecapole Moments (Debye-Ang^3)
      XXXX   -1965.5336   XXXY      29.7822   XXYY    -513.0783
      XYYY       1.0754   YYYY   -1428.7826   XXXZ      -9.7977
      XXYZ      21.3897   XYYZ     -11.8360   YYYZ      21.7706
      XXZZ    -424.1738   XYZZ      11.8656   YYZZ    -284.1562
      XZZZ     -25.6547   YZZZ      19.5674   ZZZZ    -413.1723
 -----------------------------------------------------------------
 Calculating analytic gradient of the SCF energy
 Gradient of SCF Energy
            1           2           3           4           5           6
    1   0.0010260  -0.0003261  -0.0006960   0.0002097   0.0004171   0.0003216
    2   0.0004172   0.0005645  -0.0011649   0.0001842   0.0008413   0.0003689
    3   0.0013536   0.0008120  -0.0038113  -0.0015232   0.0017488   0.0014260
            7           8           9          10          11          12
    1  -0.0004019  -0.0000661  -0.0003593  -0.0001132  -0.0008869   0.0007866
    2  -0.0009361  -0.0001700   0.0000534   0.0000080  -0.0002108   0.0000430
    3   0.0003530   0.0003723   0.0000576   0.0000644  -0.0009568   0.0009051
           13          14          15          16          17          18
    1  -0.0009135   0.0013279  -0.0003199  -0.0001335  -0.0001854   0.0000925
    2  -0.0001345   0.0000369  -0.0002676   0.0002019   0.0004205   0.0000144
    3  -0.0006386  -0.0001106   0.0003634   0.0000122  -0.0001480  -0.0000045
           19          20          21          22          23          24
    1  -0.0000463  -0.0001660   0.0000541   0.0002860   0.0000348  -0.0001830
    2  -0.0000306   0.0001041   0.0000929  -0.0002902   0.0001349  -0.0003330
    3   0.0000552   0.0001219  -0.0001365   0.0000083  -0.0000764  -0.0000659
           25          26          27          28          29
    1   0.0001149   0.0000235  -0.0000026   0.0000779   0.0000267
    2  -0.0001362  -0.0000199  -0.0000036   0.0000612   0.0001499
    3  -0.0002661   0.0000655  -0.0000208   0.0000243   0.0000150
 Max gradient component =       3.811E-03
 RMS gradient           =       6.610E-04
 Gradient time:  CPU 244.18 s  wall 17.89 s
 Geometry Optimization Parameters
   NAtoms,    NIC,     NZ,  NCons,   NDum,   NFix, NCnnct, MaxDiis
       29     227       0       0       0       0       0       0

 Cartesian Hessian Update
 Hessian Updated using Powell/Murtagh-Sargent Update
  Mixing factors:     0.120243 Powell
                      0.879757 Murtagh-Sargent


** GEOMETRY OPTIMIZATION IN DELOCALIZED INTERNAL COORDINATES **
   Searching for a Transition State

   Optimization Cycle:   3

                       Coordinates (Angstroms)
     ATOM                X               Y               Z
      1  C         0.6762775660   -0.8392088567   -0.6194138669
      2  C         0.5496412776    0.7249266369   -0.7609574635
      3  C        -0.5060171626   -1.7091633207   -0.2172290255
      4  C        -0.8329924861    1.3410828929   -0.6261014908
      5  O        -1.6704495652   -1.0581093702   -0.1133004034
      6  O        -0.3803049504   -2.8910023771    0.0027796960
      7  O        -1.1466841864    1.6408569869    0.6470512876
      8  O        -1.5479934732    1.5859860482   -1.5677923212
      9  C        -2.4575580428    2.1875069980    0.8598134589
     10  C        -2.8184321834   -1.8425617013    0.2632393297
     11  C         1.7853004485   -0.9498608497    0.4709409319
     12  C         3.1598337577   -0.5745766106   -0.1164918003
     13  C         3.0081271635    0.9705328733   -0.2585347239
     14  C         1.5863752177    1.1828329861    0.3049588421
     15  O         1.4835732591    0.1677337380    1.3160353516
     16  H         1.0214692390   -1.2700012646   -1.5618841975
     17  H         0.8679788030    1.0117459444   -1.7641494057
     18  H        -2.5746933908    3.1305612786    0.3232037292
     19  H        -2.6858503645   -2.2458347855    1.2680933552
     20  H         1.7455254401   -1.8745320856    1.0394263720
     21  H         3.9485707146   -0.8322219178    0.5912817739
     22  H         3.3717758250   -1.0836800415   -1.0589008656
     23  H         3.7422912768    1.5015527144    0.3489623922
     24  H         3.1051122080    1.3187564268   -1.2885710390
     25  H         1.3873849920    2.1568399482    0.7417311314
     26  H        -3.2185545590    1.4845646175    0.5167849088
     27  H        -2.5362216701    2.3436415979    1.9334794976
     28  H        -2.9656023792   -2.6618234312   -0.4408850755
     29  H        -3.6593403352   -1.1536419456    0.2314401405
   Point Group: c1    Number of degrees of freedom:    81


   Energy is   -765.857802513

 Hessian Updated using Powell/Murtagh-Sargent Update
  Mixing factors:     0.898504 Powell
                      0.101496 Murtagh-Sargent

 77 Hessian modes will be used to form the next step
  Hessian Eigenvalues:
    -0.004129    0.006328    0.007187    0.008820    0.010286    0.010865
     0.010880    0.019834    0.022551    0.022929    0.023854    0.026736
     0.030812    0.036260    0.037906    0.040798    0.043828    0.048956
     0.051608    0.054252    0.056048    0.057974    0.058682    0.062862
     0.064467    0.065014    0.073928    0.075252    0.092982    0.095790
     0.097550    0.101416    0.101418    0.106022    0.106146    0.115913
     0.124485    0.159898    0.160000    0.160000    0.160243    0.168523
     0.235355    0.238438    0.247994    0.249738    0.249951    0.250000
     0.250003    0.251050    0.259363    0.269569    0.281998    0.301867
     0.304513    0.336166    0.345402    0.345967    0.346046    0.346610
     0.346642    0.347102    0.347231    0.347357    0.347417    0.347545
     0.347768    0.350630    0.351029    0.352601    0.353188    0.395145
     0.401381    0.561045    0.576096    1.006053    1.011140

 Transition State Search - Taking P-RFO Step
 Searching for Lamda that Maximizes Along the Lowest mode
 Value Taken    Lamda =   0.00002502
 Searching for Lamda that Minimizes Along All other modes
 Value Taken    Lamda =  -0.00053204
 Step Taken.  Stepsize is  0.164556

                             Maximum     Tolerance    Cnvgd?
         Gradient           0.003574      0.000001      NO
         Displacement       0.046010      0.000001      NO
         Energy change      0.000233      0.000000      NO


 New Cartesian Coordinates Obtained by Inverse Iteration

 Displacement from previous Coordinates is:  0.492688
 Adding empirical dispersion correction 
 ----------------------------------------------------------------
 Doing -D3(op) with
 s6 =   1.00000
 s8 =   0.78311
 a1 =   0.30000
 a2 =   4.25000
 n  =  10.00000
 -D3 energy without 3body term =     -0.0305832862 hartrees
 ----------------------------------------------------------------
             Standard Nuclear Orientation (Angstroms)
    I     Atom           X                Y                Z
 ----------------------------------------------------------------
    1      C       0.6677627958    -0.8524783820    -0.6015040164
    2      C       0.5402921380     0.7115393159    -0.7479362592
    3      C      -0.5052310385    -1.7263187577    -0.1799001377
    4      C      -0.8388859627     1.3356056228    -0.6147804150
    5      O      -1.6839623922    -1.0960183298    -0.1206820522
    6      O      -0.3720258601    -2.9093160226     0.0292992532
    7      O      -1.1340180532     1.6761146302     0.6523681831
    8      O      -1.5515142247     1.5819464278    -1.5580022742
    9      C      -2.4313725230     2.2547757268     0.8621270160
   10      C      -2.8265398409    -1.8977726772     0.2354590708
   11      C       1.7945997343    -0.9548466243     0.4712911101
   12      C       3.1553945377    -0.5628067531    -0.1376081597
   13      C       2.9976211641     0.9839278635    -0.2512871969
   14      C       1.5753737278     1.1769207904     0.3171411660
   15      O       1.4917183706     0.1562906228     1.3242128776
   16      H       1.0020120166    -1.2879256594    -1.5459101718
   17      H       0.8594853556     0.9910000035    -1.7527609348
   18      H      -2.5352565947     3.1849621545     0.3008981091
   19      H      -2.7144343572    -2.2824110645     1.2500415486
   20      H       1.7741494057    -1.8827762110     1.0354993579
   21      H       3.9579728016    -0.8286630608     0.5513965026
   22      H       3.3511944427    -1.0556105956    -1.0919481472
   23      H       3.7301307326     1.5074086026     0.3646051547
   24      H       3.0908103183     1.3515072700    -1.2750137042
   25      H       1.3665400979     2.1460044383     0.7606477973
   26      H      -3.2096199531     1.5583164641     0.5455632759
   27      H      -2.4962745220     2.4417763838     1.9317928908
   28      H      -2.9372513980    -2.7309856981    -0.4589665650
   29      H      -3.6801284791    -1.2272633508     0.1689672405
 ----------------------------------------------------------------
 Nuclear Repulsion Energy =  1116.6921725298 hartrees
 There are       57 alpha and       57 beta electrons
 Applying Cartesian multipole field
    Component          Value
    ---------          -----
     (2,0,0)        1.00000E-11
     (0,2,0)        2.00000E-11
     (0,0,2)       -3.00000E-11
 Nucleus-field energy     =     0.0000000277 hartrees
 Requested basis set is 6-311++G(d,p)
 There are 160 shells and 428 basis functions
 A cutoff of  1.0D-11 yielded  10614 shell pairs
 There are     77578 function pairs (     82862 Cartesian)
 Smallest overlap matrix eigenvalue = 1.24E-06

 Q-Chem warning in module /fs/scratch/osu6415/qchem-kaunlao-vdw/stvman/mkSTV.C, line 281:

 Overlap eigenvalue is smaller than square root of threshold

 Guess MOs from SCF MO coefficient file
 Reading MOs from coefficient file
 Reading MOs from coefficient file
 A restricted hybrid HF-DFT SCF calculation will be
 performed using Pulay DIIS extrapolation
 Exchange:     0.2000 Hartree-Fock + 0.0800 Slater + 0.7200 B88
 Correlation:  0.1900 VWN1RPA + 0.8100 LYP
 Using SG-1 standard quadrature grid
 Dispersion:   Grimme D3
 SCF converges when DIIS error is below 1.0E-08
 Geometry optimization detected.  Setting ReadMinima to 0
 Setting SaveMinima to 0
 using 20 threads for integral computing
 -------------------------------------------------------
 OpenMP Integral computing Module                
 Release: version 1.0, May 2013, Q-Chem Inc. Pittsburgh 
 -------------------------------------------------------
 -------------------------------------------------------
 OpenMP BLAS3 based DFT computing Module                
 Release: version 1.0, May 2013, Q-Chem Inc. Pittsburgh 
 -------------------------------------------------------
 ---------------------------------------
  Cycle       Energy         DIIS Error
 ---------------------------------------
    1    -765.8609545205      5.80E-04
    2    -765.8578044449      6.66E-05
    3    -765.8577116867      1.08E-04
    4    -765.8579113654      1.82E-05
    5    -765.8579147487      1.13E-05
    6    -765.8579167296      3.20E-06
    7    -765.8579168857      1.14E-06
    8    -765.8579169094      2.93E-07
    9    -765.8579169107      1.42E-07
   10    -765.8579169102      4.44E-08
   11    -765.8579169100      2.06E-08
   12    -765.8579169121      5.78E-09 Convergence criterion met
 ---------------------------------------
 SCF time:  CPU 613.77 s  wall 32.73 s
 SCF   energy in the final basis set = -765.85791691
 Total energy in the final basis set = -765.85791691
 
 --------------------------------------------------------------
 
                    Orbital Energies (a.u.)
 --------------------------------------------------------------
 
 Alpha MOs
 -- Occupied --
-19.182 -19.171 -19.133 -19.119 -19.111 -10.313 -10.305 -10.235
-10.235 -10.235 -10.228 -10.212 -10.205 -10.182 -10.182  -1.124
 -1.112  -1.065  -1.033  -1.024  -0.830  -0.785  -0.778  -0.740
 -0.729  -0.660  -0.606  -0.597  -0.579  -0.572  -0.551  -0.517
 -0.506  -0.491  -0.490  -0.488  -0.478  -0.472  -0.464  -0.433
 -0.427  -0.416  -0.413  -0.406  -0.381  -0.375  -0.368  -0.367
 -0.362  -0.356  -0.341  -0.339  -0.323  -0.309  -0.291  -0.284
 -0.273
 -- Virtual --
 -0.019  -0.010  -0.007  -0.003   0.005   0.010   0.015   0.020
  0.029   0.033   0.035   0.041   0.044   0.046   0.050   0.057
  0.072   0.074   0.079   0.087   0.088   0.091   0.098   0.100
  0.105   0.108   0.111   0.113   0.115   0.121   0.125   0.129
  0.130   0.131   0.137   0.140   0.144   0.147   0.148   0.150
  0.150   0.156   0.158   0.161   0.164   0.167   0.175   0.178
  0.180   0.183   0.187   0.190   0.194   0.194   0.204   0.209
  0.210   0.214   0.221   0.221   0.227   0.231   0.238   0.251
  0.255   0.262   0.265   0.274   0.276   0.280   0.289   0.293
  0.298   0.302   0.305   0.312   0.316   0.320   0.325   0.328
  0.330   0.335   0.343   0.346   0.355   0.357   0.359   0.363
  0.367   0.373   0.377   0.379   0.382   0.388   0.397   0.402
  0.405   0.414   0.421   0.422   0.441   0.448   0.459   0.474
  0.484   0.498   0.509   0.516   0.520   0.536   0.537   0.548
  0.552   0.576   0.588   0.591   0.599   0.608   0.621   0.623
  0.634   0.638   0.647   0.651   0.659   0.673   0.676   0.681
  0.691   0.701   0.705   0.714   0.716   0.720   0.732   0.735
  0.744   0.754   0.763   0.770   0.776   0.777   0.782   0.796
  0.806   0.820   0.849   0.857   0.877   0.894   0.936   0.954
  0.966   0.978   1.007   1.012   1.027   1.051   1.071   1.078
  1.100   1.100   1.121   1.164   1.173   1.182   1.192   1.199
  1.210   1.222   1.235   1.244   1.258   1.264   1.271   1.291
  1.316   1.333   1.338   1.356   1.374   1.390   1.393   1.406
  1.416   1.430   1.437   1.445   1.453   1.463   1.492   1.501
  1.513   1.540   1.546   1.550   1.557   1.564   1.572   1.576
  1.586   1.591   1.606   1.624   1.638   1.652   1.677   1.682
  1.694   1.699   1.708   1.713   1.721   1.737   1.741   1.745
  1.766   1.778   1.798   1.808   1.810   1.831   1.841   1.846
  1.866   1.890   1.900   1.914   1.925   1.940   1.953   1.961
  1.977   1.993   2.009   2.033   2.040   2.055   2.069   2.100
  2.115   2.121   2.133   2.146   2.159   2.181   2.186   2.192
  2.223   2.243   2.248   2.282   2.306   2.331   2.374   2.424
  2.449   2.462   2.467   2.471   2.491   2.499   2.515   2.521
  2.528   2.545   2.550   2.567   2.578   2.582   2.623   2.639
  2.657   2.666   2.691   2.730   2.755   2.763   2.774   2.784
  2.810   2.830   2.838   2.844   2.863   2.865   2.885   2.900
  2.915   2.923   2.952   2.976   2.988   3.003   3.021   3.031
  3.063   3.083   3.099   3.099   3.120   3.137   3.145   3.161
  3.183   3.201   3.229   3.236   3.239   3.262   3.276   3.320
  3.346   3.369   3.391   3.401   3.443   3.601   3.611   3.642
  3.675   3.743   3.775   3.779   3.846   3.859   3.884   3.935
  4.001   4.022   4.054   4.060   4.088   4.114   4.155   4.161
  4.171   4.232   4.253   4.407   4.502   5.018   5.072   5.079
  5.141   5.207   5.236   5.248   5.420   5.443   5.503   5.591
  5.638   5.655   5.874   5.884  23.828  23.837  23.846  23.864
 23.893  23.927  23.940  23.947  23.968  24.048  49.904  49.934
 49.978  50.019  50.039
 --------------------------------------------------------------
 
          Ground-State Mulliken Net Atomic Charges

     Atom                 Charge (a.u.)
  ----------------------------------------
      1 C                    -0.574480
      2 C                     1.053644
      3 C                    -0.539518
      4 C                    -0.736758
      5 O                    -0.076174
      6 O                    -0.231169
      7 O                    -0.001956
      8 O                    -0.190697
      9 C                    -0.191882
     10 C                    -0.213822
     11 C                     0.441423
     12 C                    -0.430057
     13 C                    -0.524313
     14 C                    -0.368254
     15 O                    -0.113087
     16 H                     0.220278
     17 H                     0.284034
     18 H                     0.174168
     19 H                     0.193253
     20 H                     0.282113
     21 H                     0.189612
     22 H                     0.128944
     23 H                     0.184224
     24 H                     0.119066
     25 H                     0.264791
     26 H                     0.169965
     27 H                     0.160593
     28 H                     0.182290
     29 H                     0.143769
  ----------------------------------------
  Sum of atomic charges =     0.000000

 -----------------------------------------------------------------
                    Cartesian Multipole Moments
 -----------------------------------------------------------------
    Charge (ESU x 10^10)
                 0.0000
    Dipole Moment (Debye)
         X       0.1600      Y       1.1368      Z       0.2799
       Tot       1.1817
    Quadrupole Moments (Debye-Ang)
        XX     -75.5517     XY       2.8808     YY     -92.6823
        XZ      -9.2587     YZ       4.3460     ZZ     -93.8675
    Octopole Moments (Debye-Ang^2)
       XXX     -37.0873    XXY     -11.0065    XYY     -12.5350
       YYY      44.6960    XXZ      15.5675    XYZ     -11.4391
       YYZ      11.6863    XZZ      -1.0006    YZZ     -10.8239
       ZZZ       6.3271
    Hexadecapole Moments (Debye-Ang^3)
      XXXX   -1958.3388   XXXY      28.8682   XXYY    -514.6399
      XYYY      -1.4001   YYYY   -1460.8120   XXXZ     -10.9645
      XXYZ      20.7164   XYYZ     -12.7487   YYYZ      22.2749
      XXZZ    -423.2949   XYZZ      10.7335   YYZZ    -288.3530
      XZZZ     -27.7805   YZZZ      17.6274   ZZZZ    -410.5184
 -----------------------------------------------------------------
 Calculating analytic gradient of the SCF energy
 Gradient of SCF Energy
            1           2           3           4           5           6
    1  -0.0003501   0.0002270   0.0005873  -0.0015347  -0.0002275  -0.0005739
    2  -0.0002534   0.0016753   0.0005676  -0.0026843  -0.0013635  -0.0002502
    3  -0.0010963  -0.0001030   0.0040403   0.0002429  -0.0006719  -0.0018385
            7           8           9          10          11          12
    1   0.0006439   0.0008308   0.0001294   0.0001609  -0.0003180   0.0000984
    2   0.0011812   0.0012260   0.0000320   0.0000253  -0.0002412  -0.0000343
    3  -0.0001073  -0.0001032  -0.0000529  -0.0000145   0.0000373  -0.0000802
           13          14          15          16          17          18
    1  -0.0001328   0.0000857   0.0000472   0.0005425  -0.0000867  -0.0000356
    2  -0.0000394  -0.0001767  -0.0001127   0.0002204   0.0001549   0.0000092
    3   0.0000956  -0.0003326   0.0001102   0.0000679  -0.0001514   0.0000209
           19          20          21          22          23          24
    1   0.0000263  -0.0001442  -0.0001901   0.0002312   0.0001563  -0.0002812
    2   0.0000500   0.0000289   0.0001580  -0.0001615   0.0001642  -0.0002346
    3   0.0000527  -0.0000055   0.0001228   0.0000180  -0.0002171  -0.0000599
           25          26          27          28          29
    1   0.0001209   0.0000756   0.0000290  -0.0000855  -0.0000322
    2   0.0000715   0.0000691   0.0000209  -0.0000072  -0.0000956
    3   0.0000020  -0.0000170   0.0000046   0.0000568  -0.0000208
 Max gradient component =       4.040E-03
 RMS gradient           =       6.976E-04
 Gradient time:  CPU 244.77 s  wall 17.48 s
 Geometry Optimization Parameters
   NAtoms,    NIC,     NZ,  NCons,   NDum,   NFix, NCnnct, MaxDiis
       29     227       0       0       0       0       0       0

 Cartesian Hessian Update
 Hessian Updated using Powell/Murtagh-Sargent Update
  Mixing factors:     0.754015 Powell
                      0.245985 Murtagh-Sargent


** GEOMETRY OPTIMIZATION IN DELOCALIZED INTERNAL COORDINATES **
   Searching for a Transition State

   Optimization Cycle:   4

                       Coordinates (Angstroms)
     ATOM                X               Y               Z
      1  C         0.6677627958   -0.8524783820   -0.6015040164
      2  C         0.5402921380    0.7115393159   -0.7479362592
      3  C        -0.5052310385   -1.7263187577   -0.1799001377
      4  C        -0.8388859627    1.3356056228   -0.6147804150
      5  O        -1.6839623922   -1.0960183298   -0.1206820522
      6  O        -0.3720258601   -2.9093160226    0.0292992532
      7  O        -1.1340180532    1.6761146302    0.6523681831
      8  O        -1.5515142247    1.5819464278   -1.5580022742
      9  C        -2.4313725230    2.2547757268    0.8621270160
     10  C        -2.8265398409   -1.8977726772    0.2354590708
     11  C         1.7945997343   -0.9548466243    0.4712911101
     12  C         3.1553945377   -0.5628067531   -0.1376081597
     13  C         2.9976211641    0.9839278635   -0.2512871969
     14  C         1.5753737278    1.1769207904    0.3171411660
     15  O         1.4917183706    0.1562906228    1.3242128776
     16  H         1.0020120166   -1.2879256594   -1.5459101718
     17  H         0.8594853556    0.9910000035   -1.7527609348
     18  H        -2.5352565947    3.1849621545    0.3008981091
     19  H        -2.7144343572   -2.2824110645    1.2500415486
     20  H         1.7741494057   -1.8827762110    1.0354993579
     21  H         3.9579728016   -0.8286630608    0.5513965026
     22  H         3.3511944427   -1.0556105956   -1.0919481472
     23  H         3.7301307326    1.5074086026    0.3646051547
     24  H         3.0908103183    1.3515072700   -1.2750137042
     25  H         1.3665400979    2.1460044383    0.7606477973
     26  H        -3.2096199531    1.5583164641    0.5455632759
     27  H        -2.4962745220    2.4417763838    1.9317928908
     28  H        -2.9372513980   -2.7309856981   -0.4589665650
     29  H        -3.6801284791   -1.2272633508    0.1689672405
   Point Group: c1    Number of degrees of freedom:    81


   Energy is   -765.857916912

 Hessian Updated using Powell/Murtagh-Sargent Update
  Mixing factors:     0.910706 Powell
                      0.089294 Murtagh-Sargent

 79 Hessian modes will be used to form the next step
  Hessian Eigenvalues:
    -0.017678    0.005613    0.007163    0.009399    0.010279    0.010878
     0.011876    0.021375    0.022910    0.023799    0.024893    0.030380
     0.034564    0.036251    0.038338    0.042699    0.044024    0.050897
     0.051613    0.054816    0.056158    0.058498    0.058929    0.062885
     0.064465    0.065015    0.073934    0.075253    0.093039    0.095758
     0.097954    0.101416    0.101419    0.106022    0.106145    0.115915
     0.129089    0.159991    0.160000    0.160000    0.160003    0.163424
     0.168540    0.236168    0.238433    0.248047    0.249737    0.249952
     0.250000    0.250000    0.250068    0.255844    0.259340    0.269677
     0.282012    0.302616    0.304541    0.336206    0.345403    0.345967
     0.346047    0.346612    0.346642    0.347104    0.347231    0.347358
     0.347429    0.347764    0.347810    0.350630    0.351031    0.352602
     0.353193    0.395145    0.401393    0.561046    0.576255    1.006059
     1.011146

 Transition State Search - Taking P-RFO Step
 Searching for Lamda that Maximizes Along the Lowest mode
 Value Taken    Lamda =   0.00019707
 Searching for Lamda that Minimizes Along All other modes
 Value Taken    Lamda =  -0.00028985
 Step Taken.  Stepsize is  0.137397

                             Maximum     Tolerance    Cnvgd?
         Gradient           0.004478      0.000001      NO
         Displacement       0.051861      0.000001      NO
         Energy change     -0.000114      0.000000      NO


 New Cartesian Coordinates Obtained by Inverse Iteration

 Displacement from previous Coordinates is:  0.348477
 Adding empirical dispersion correction 
 ----------------------------------------------------------------
 Doing -D3(op) with
 s6 =   1.00000
 s8 =   0.78311
 a1 =   0.30000
 a2 =   4.25000
 n  =  10.00000
 -D3 energy without 3body term =     -0.0306908752 hartrees
 ----------------------------------------------------------------
             Standard Nuclear Orientation (Angstroms)
    I     Atom           X                Y                Z
 ----------------------------------------------------------------
    1      C       0.6706232403    -0.8448535942    -0.5971281226
    2      C       0.5418823746     0.7171690002    -0.7581988314
    3      C      -0.5076252482    -1.7159837290    -0.1866144171
    4      C      -0.8354701767     1.3424034296    -0.6106556168
    5      O      -1.6858749866    -1.0833559480    -0.1427014198
    6      O      -0.3760505195    -2.8959690683     0.0401797303
    7      O      -1.1275059404     1.6617369593     0.6625965736
    8      O      -1.5635999059     1.5774523926    -1.5449628421
    9      C      -2.4310683415     2.2200550878     0.8879770168
   10      C      -2.8323398298    -1.8799985615     0.2125505889
   11      C       1.7877456373    -0.9382317835     0.4879107450
   12      C       3.1554465151    -0.5691268571    -0.1176680946
   13      C       3.0053697196     0.9746347288    -0.2734407166
   14      C       1.5853606952     1.1916328354     0.2943186825
   15      O       1.4915387903     0.1905504535     1.3195253458
   16      H       1.0168787992    -1.2870066508    -1.5341000014
   17      H       0.8486702466     0.9881273071    -1.7690426850
   18      H      -2.5512397355     3.1557814950     0.3393260792
   19      H      -2.7278601327    -2.2556796232     1.2312903496
   20      H       1.7547672604    -1.8563805893     1.0673588354
   21      H       3.9479337963    -0.8187381001     0.5889778789
   22      H       3.3611132448    -1.0882989939    -1.0556643315
   23      H       3.7441872979     1.5117712036     0.3226928517
   24      H       3.0949429854     1.3125905300    -1.3077001438
   25      H       1.3879828205     2.1707531423     0.7210281907
   26      H      -3.2020627324     1.5171959366     0.5676869531
   27      H      -2.4913323076     2.3926586281     1.9603399303
   28      H      -2.9395892018    -2.7192961721    -0.4750681660
   29      H      -3.6842819248    -1.2086903288     0.1341961567
 ----------------------------------------------------------------
 Nuclear Repulsion Energy =  1117.7175632362 hartrees
 There are       57 alpha and       57 beta electrons
 Applying Cartesian multipole field
    Component          Value
    ---------          -----
     (2,0,0)        1.00000E-11
     (0,2,0)        2.00000E-11
     (0,0,2)       -3.00000E-11
 Nucleus-field energy     =     0.0000000274 hartrees
 Requested basis set is 6-311++G(d,p)
 There are 160 shells and 428 basis functions
 A cutoff of  1.0D-11 yielded  10627 shell pairs
 There are     77658 function pairs (     82947 Cartesian)
 Smallest overlap matrix eigenvalue = 1.24E-06

 Q-Chem warning in module /fs/scratch/osu6415/qchem-kaunlao-vdw/stvman/mkSTV.C, line 281:

[...]
    -0.00160525      0.00393579      0.00210748
    -0.42287167     -0.43019204     -0.16261652
    -0.03324366      0.09689097      0.42536404
     0.00860891      0.04319904      0.03887354
     0.03904999     -0.03240429     -0.00007341
vibration 69
     0.00013697     -0.00005324      0.00003331
     0.00010356      0.00008206     -0.00034570
    -0.00215012      0.00189461      0.00016413
    -0.00002644     -0.00010164      0.00028019
     0.00255754      0.00059743     -0.00066952
     0.00009593     -0.00092227      0.00014384
     0.00019985     -0.00003987     -0.00008952
    -0.00006301      0.00005835     -0.00009087
     0.00391354     -0.00213045      0.00088267
     0.02605466      0.03171367     -0.01534073
    -0.00002614     -0.00002881     -0.00004899
     0.00029510     -0.00019002     -0.00002477
     0.00035472      0.00037011     -0.00004762
    -0.00003122     -0.00001752     -0.00002678
     0.00002463      0.00001171      0.00002238
     0.00040742      0.00001379     -0.00044830
    -0.00144742     -0.00121573      0.00405391
    -0.00590091      0.05593718     -0.03856090
     0.10548592     -0.23446625      0.59288858
     0.00002605      0.00036011     -0.00017064
    -0.00280673      0.00123041     -0.00223829
    -0.00037005      0.00091578      0.00273177
    -0.00349430     -0.00214743     -0.00373189
    -0.00048703     -0.00212612      0.00434773
    -0.00000893      0.00015360      0.00006926
    -0.03939396     -0.04033112     -0.01517308
    -0.00334633      0.00980325      0.04288049
    -0.09185977     -0.44723377     -0.40199061
    -0.34230567      0.28825745     -0.00146541
vibration 70
     0.00198762     -0.00253951     -0.00587030
    -0.00293995     -0.00228134      0.00658347
     0.00003616     -0.00002107     -0.00014262
    -0.00002364      0.00000496      0.00021316
    -0.00000261     -0.00000155      0.00000081
    -0.00000024     -0.00001196      0.00002799
     0.00001553     -0.00001419     -0.00002928
     0.00002806     -0.00001934     -0.00003800
    -0.00016734      0.00001308     -0.00005100
    -0.00005304     -0.00008858      0.00003547
     0.00038090     -0.00131034      0.00040721
    -0.02952728      0.02161159      0.01835934
     0.03336275      0.03900218     -0.01717983
    -0.00002500     -0.00222002     -0.00107453
    -0.00000631     -0.00009910     -0.00000120
    -0.02305540      0.02905292      0.07153992
     0.03263740      0.02536792     -0.07966370
     0.00015415     -0.00151556      0.00104379
    -0.00023459      0.00053865     -0.00131791
    -0.00201405      0.01403261     -0.00563940
     0.28512130     -0.11152282      0.21897660
     0.05360124     -0.14686601     -0.43522330
    -0.31975912     -0.19130833     -0.34057724
    -0.06130589     -0.26533349      0.54319150
    -0.00459829      0.02662235      0.01252861
     0.00177144      0.00174774      0.00067706
     0.00006205     -0.00024329     -0.00118968
     0.00026238      0.00113989      0.00102440
     0.00071941     -0.00058084      0.00001376
vibration 71
    -0.00271148      0.00344237      0.00788581
    -0.00201120     -0.00168471      0.00442989
    -0.00012253      0.00006034      0.00021723
    -0.00004746      0.00000651      0.00009557
     0.00005408     -0.00001067     -0.00000231
     0.00004627      0.00002128     -0.00000722
     0.00004340     -0.00001810     -0.00000715
     0.00006118     -0.00003255      0.00001404
    -0.00038706      0.00012920     -0.00008625
    -0.00018211     -0.00027595      0.00016731
    -0.00118697      0.00231290     -0.00139046
     0.03755053     -0.03014855     -0.02634508
     0.02586221      0.03074348     -0.00984324
    -0.00027924     -0.00236498     -0.00143237
    -0.00006037      0.00000422      0.00020646
     0.03094978     -0.03863350     -0.09488969
     0.02236703      0.01739797     -0.05425745
     0.00049598     -0.00432290      0.00296552
    -0.00082948      0.00191365     -0.00478806
     0.00414296     -0.03510966      0.01598234
    -0.35926861      0.14146740     -0.27866894
    -0.07262480      0.20164858      0.58854985
    -0.25836620     -0.15456056     -0.27388616
    -0.04198779     -0.19327995      0.39120075
    -0.00647536      0.03342152      0.01674444
     0.00373334      0.00366898      0.00140421
     0.00022699     -0.00071522     -0.00319787
     0.00062575      0.00307776      0.00276531
     0.00216592     -0.00184558      0.00000803
vibration 72
     0.01850892     -0.02550435     -0.06141780
    -0.01569676     -0.01147191      0.03897091
     0.00041708     -0.00055249     -0.00094025
    -0.00003709     -0.00009461      0.00116490
    -0.00017633      0.00012350     -0.00005718
    -0.00003100      0.00014956      0.00016080
     0.00001290     -0.00008666     -0.00015568
     0.00001845      0.00008783     -0.00027968
     0.00014296     -0.00010318     -0.00006825
     0.00005950      0.00014375     -0.00001279
     0.00053706      0.00130996     -0.00133686
     0.01043977     -0.00481574      0.00488553
    -0.00591304     -0.00281124     -0.00760130
    -0.00003550      0.00014250     -0.00014312
    -0.00013135      0.00030606      0.00016487
    -0.22769760      0.29993186      0.73753895
     0.18676773      0.14084472     -0.46294198
    -0.00031278      0.00167497     -0.00102215
     0.00032374     -0.00035169      0.00095755
     0.00018117     -0.02006841      0.00867131
    -0.11894465      0.04777616     -0.08724652
    -0.00150453      0.00915202      0.03065738
     0.07169628      0.04418127      0.07195107
    -0.00308491     -0.01039245      0.01771340
    -0.00066327      0.00094260      0.00146255
    -0.00132834     -0.00116671     -0.00041751
    -0.00035322      0.00062010      0.00238974
    -0.00023314     -0.00176703     -0.00154677
    -0.00025852      0.00042131     -0.00000081
vibration 73
     0.01195767     -0.01637259     -0.03884292
     0.02250391      0.01761133     -0.05656668
     0.00016556     -0.00085265     -0.00033905
    -0.00065841      0.00060242     -0.00189468
    -0.00010221      0.00010720     -0.00005136
    -0.00003060      0.00021827      0.00003829
     0.00003833      0.00009545      0.00023566
     0.00025199     -0.00014861      0.00062481
    -0.00035828      0.00032165      0.00004826
    -0.00007344     -0.00006042      0.00030065
     0.00054001      0.00087793     -0.00118100
    -0.00164786     -0.00172852     -0.01024860
     0.01554751      0.00431068      0.02955874
     0.00124802     -0.00165839     -0.00088309
    -0.00015491      0.00001889      0.00044778
    -0.14598483      0.19147492      0.46794958
    -0.27303836     -0.20989520      0.67511137
     0.00087410     -0.00484562      0.00306724
    -0.00056613      0.00174049     -0.00417602
    -0.00026847     -0.01667082      0.00782803
     0.03335357     -0.01299685      0.02306706
    -0.01400449      0.03407727      0.09960043
    -0.20531747     -0.12611177     -0.20525500
     0.02103904      0.07584355     -0.14372084
    -0.00705800      0.02614154      0.01320091
     0.00272707      0.00239047      0.00080810
     0.00065333     -0.00116423     -0.00477154
     0.00015254     -0.00004350     -0.00011020
     0.00128961     -0.00089457     -0.00003692
vibration 74
    -0.00107341      0.00152746      0.00392037
    -0.01029653     -0.00800900      0.02562728
     0.00006293      0.00028785      0.00001657
     0.00013657     -0.00013856      0.00077699
    -0.00004111     -0.00002442      0.00000864
    -0.00001568     -0.00004994     -0.00000016
     0.00002513     -0.00006333     -0.00012346
    -0.00006072      0.00006713     -0.00024953
     0.00012308      0.00000561     -0.00011017
     0.00003521      0.00009440     -0.00011949
    -0.00032152     -0.00388845      0.00146400
    -0.03105034      0.00357773     -0.05689997
     0.01966907     -0.00202568      0.05776359
     0.00074572     -0.00194473     -0.00015848
    -0.00001484      0.00025068     -0.00021103
     0.01627971     -0.01889093     -0.04575544
     0.12286675      0.09397089     -0.30765994
    -0.00014179      0.00033173     -0.00010622
     0.00028697     -0.00075116      0.00182484
    -0.00133099      0.04498441     -0.02232266
     0.42580794     -0.17140020      0.30599827
    -0.05869528      0.13216635      0.37115066
    -0.29030650     -0.17854963     -0.29010305
     0.05544726      0.20437596     -0.39850243
    -0.00485186      0.01704998      0.00926055
    -0.00121052     -0.00109248     -0.00041023
    -0.00022772      0.00048176      0.00190033
    -0.00018623     -0.00063496     -0.00051962
    -0.00045361      0.00027967      0.00002041
vibration 75
     0.00240159     -0.00311023     -0.00718826
     0.00453257      0.00353588     -0.01111521
     0.00009748     -0.00008267      0.00000429
     0.00001791      0.00001826     -0.00034018
    -0.00006859      0.00000069      0.00000053
    -0.00003716     -0.00000370      0.00002159
    -0.00006381      0.00005577      0.00009940
     0.00001459     -0.00002792      0.00011773
    -0.00002309     -0.00012329      0.00022994
     0.00012458      0.00014179      0.00040067
    -0.00017474     -0.00399946      0.00063059
    -0.02930303      0.00138854     -0.06084124
    -0.02265021     -0.00001881     -0.06010091
    -0.00088347      0.00250725      0.00003666
     0.00003997      0.00000234      0.00065168
    -0.02582347      0.03682482      0.08934044
    -0.05197321     -0.04142429      0.13460493
    -0.00015286      0.00163844     -0.00118574
    -0.00046435      0.00108149     -0.00259678
    -0.00167438      0.03761196     -0.01846560
     0.41644203     -0.17039564      0.29973074
    -0.06606675      0.15509803      0.42708485
     0.32654283      0.20389543      0.32850373
    -0.05398847     -0.20369075      0.39049217
     0.00549182     -0.02136186     -0.01102103
     0.00037629      0.00032824      0.00016304
     0.00009782     -0.00043171     -0.00181366
    -0.00057042     -0.00298706     -0.00253533
    -0.00036245      0.00031811      0.00007039
vibration 76
     0.00006269     -0.00002215     -0.00004719
    -0.00005279     -0.00019685     -0.00001929
    -0.00019842      0.00005140      0.00004506
     0.00006129      0.00011030     -0.00014028
     0.00009740     -0.00000587     -0.00002877
     0.00005180     -0.00002873     -0.00000837
     0.00001051      0.00032031      0.00001008
     0.00004077      0.00015582      0.00004477
    -0.03432771     -0.08643708      0.01791950
     0.00085341     -0.00229288     -0.00105833
    -0.00000938      0.00004212     -0.00005372
     0.00002958     -0.00000887      0.00002564
     0.00007411     -0.00001244      0.00021545
    -0.00009807      0.00026307      0.00017895
     0.00000822      0.00002951     -0.00000818
    -0.00006564      0.00019193      0.00044994
    -0.00035887     -0.00003576      0.00065910
    -0.06795708      0.56354214     -0.40780490
    -0.00008736      0.00024399     -0.00159560
    -0.00001277     -0.00058293      0.00030878
    -0.00030077      0.00017803     -0.00025551
     0.00000352     -0.00002875     -0.00009679
    -0.00108846     -0.00064876     -0.00104569
     0.00024008      0.00084616     -0.00166478
     0.00106699     -0.00342437     -0.00181633
     0.48085911      0.47896347      0.20162905
    -0.00584752     -0.01953063     -0.00630432
     0.00360551      0.01558539      0.01409816
    -0.01323864      0.01101352      0.00008932
vibration 77
     0.00000297     -0.00013578     -0.00041660
     0.00008876      0.00007165     -0.00020148
     0.00009700     -0.00003470      0.00016948
    -0.00004180     -0.00001171     -0.00018856
     0.00006282      0.00005692      0.00038107
     0.00007912      0.00005965      0.00009781
    -0.00002192     -0.00000416      0.00006759
     0.00005367      0.00000632      0.00007398
     0.00053858      0.00120904      0.00025940
    -0.02138589     -0.01923150     -0.09072083
    -0.00001583     -0.00001719     -0.00000602
    -0.00008977     -0.00002172     -0.00029439
    -0.00007121      0.00002749     -0.00024392
    -0.00000060      0.00002360     -0.00001961
    -0.00000767     -0.00000194      0.00003012
    -0.00047783      0.00108443      0.00245510
    -0.00107680     -0.00082718      0.00257271
     0.00067265     -0.00589806      0.00440748
     0.11774601     -0.26727130      0.63365286
     0.00005590     -0.00003713      0.00000000
     0.00141327     -0.00060113      0.00104393
    -0.00038993      0.00089228      0.00251850
     0.00113106      0.00070286      0.00112355
    -0.00028054     -0.00100659      0.00194439
     0.00002264     -0.00002560      0.00000454
    -0.00768840     -0.00760865     -0.00332464
     0.00049305     -0.00063302     -0.00439346
     0.09821472      0.53219539      0.45611679
     0.03611633     -0.03705941     -0.01704208
vibration 78
     0.00002687      0.00000253     -0.00007028
     0.00012184      0.00011178     -0.00014417
    -0.00006526     -0.00007971      0.00004212
    -0.00108637      0.00041671     -0.00053937
     0.00000690      0.00001219      0.00001430
    -0.00000558      0.00002440     -0.00001189
     0.00000405      0.00001698      0.00036329
     0.00042062     -0.00013113      0.00032296
    -0.01292576     -0.01369980     -0.09221786
     0.00320466     -0.00460190     -0.00032823
     0.00009799     -0.00430774      0.00223081
     0.00022012     -0.00002298      0.00014538
    -0.00014924     -0.00000369     -0.00021630
     0.00072302     -0.00258329     -0.00152292
     0.00000772     -0.00001943      0.00001699
    -0.00017934      0.00032740      0.00093874
    -0.00107074     -0.00086552      0.00260829
     0.02019794     -0.25208397      0.15594411
    -0.00169615      0.00379011     -0.01237145
    -0.00115467      0.04989142     -0.02575566
    -0.00259814      0.00094239     -0.00168402
    -0.00006418     -0.00008072     -0.00000824
     0.00206837      0.00114268      0.00185210
    -0.00008607     -0.00045364      0.00082239
    -0.00846939      0.03042100      0.01689107
     0.20631644      0.21389274      0.06573001
    -0.06731708      0.19886125      0.87072744
     0.00406507      0.01712790      0.01622601
    -0.03982654      0.03353430     -0.00030486
vibration 79
     0.00016240     -0.00018874     -0.00121050
    -0.00011044      0.00084129     -0.00077231
     0.00013770     -0.00104522      0.00043243
     0.00006672     -0.00011921     -0.00033857
     0.00000703      0.00012315     -0.00003584
    -0.00033320      0.00045636     -0.00023136
     0.00015845      0.00004917      0.00008170
    -0.00002567      0.00002815      0.00004648
     0.00056851      0.00071981      0.00591351
    -0.00169801      0.00228392     -0.00006491
     0.00182732     -0.07052835      0.03678072
     0.00463331     -0.00071442      0.00350373
    -0.00059141      0.00052778     -0.00107941
     0.00734642     -0.02613878     -0.01532944
     0.00009135     -0.00027083     -0.00023747
    -0.00257373      0.00482973      0.01387522
    -0.00320692     -0.00312443      0.00757326
    -0.00122465      0.01614014     -0.01008310
     0.00128144     -0.00252356      0.00756417
    -0.01917973      0.81612813     -0.42186967
    -0.05487042      0.02011417     -0.03629330
     0.00033553     -0.00393641     -0.00696654
     0.00963867      0.00535599      0.00807208
     0.00012039     -0.00182768      0.00360077
    -0.08860464      0.31521548      0.17555537
    -0.01049633     -0.01130411     -0.00323752
     0.00432822     -0.01290553     -0.05629368
    -0.00172370     -0.00730629     -0.00697099
     0.02083558     -0.01743604      0.00002129
vibration 80
     0.00002870      0.00098258      0.00160136
     0.00025220     -0.00011620      0.00113390
     0.00031364      0.00087323     -0.00035024
     0.00010267     -0.00044297     -0.00079578
    -0.00001469     -0.00015005      0.00006575
     0.00003435     -0.00039374      0.00013341
     0.00029068      0.00013932      0.00026065
    -0.00009212      0.00011625      0.00011297
    -0.00090663     -0.00103689     -0.00086713
    -0.02146854      0.02925752     -0.00103675
    -0.00084631      0.02826085     -0.01380430
    -0.00297749      0.00129160     -0.00077625
    -0.00399351     -0.00216586     -0.00183388
     0.01707400     -0.06301190     -0.03479609
    -0.00001272     -0.00031231      0.00035654
     0.00388188     -0.00619275     -0.01580012
     0.00254921      0.00175640     -0.00898547
    -0.00006853      0.00072329     -0.00090937
     0.01499588     -0.03428640      0.10145767
     0.00726233     -0.31141647      0.16139334
     0.02686792     -0.00967579      0.01819865
     0.00139669     -0.00116345     -0.00629995
     0.03842853      0.02146076      0.03494916
     0.00323284      0.00387594     -0.01090829
    -0.20221263      0.71833714      0.40188173
     0.01129464      0.01078595      0.00417963
    -0.00073266      0.00161967      0.00800647
    -0.02308021     -0.09309247     -0.08911063
     0.26081976     -0.22047410      0.00069650
vibration 81
    -0.00002836     -0.00043615     -0.00057270
    -0.00008771      0.00000477     -0.00048500
     0.00049618      0.00079931     -0.00028229
    -0.00024862      0.00030188      0.00034865
     0.00018415     -0.00027489      0.00004113
    -0.00014149     -0.00038471      0.00008508
    -0.00008117     -0.00007930     -0.00012745
     0.00011733     -0.00008029     -0.00001696
    -0.00171309     -0.00248055     -0.00533850
    -0.05161722      0.07004150     -0.00247910
     0.00029597     -0.00981132      0.00474039
     0.00113674     -0.00053496      0.00023221
     0.00170274      0.00091028      0.00078038
    -0.00738268      0.02723810      0.01504968
     0.00000047      0.00011518     -0.00014545
    -0.00145490      0.00207324      0.00560471
    -0.00113221     -0.00086065      0.00401266
     0.00040137     -0.00638174      0.00314728
     0.03603308     -0.08157792      0.24195226
    -0.00232818      0.10700865     -0.05539547
    -0.00994858      0.00355180     -0.00675746
    -0.00057004      0.00059096      0.00280985
    -0.01647500     -0.00923039     -0.01499665
    -0.00142017     -0.00177357      0.00484625
     0.08745891     -0.31096402     -0.17395965
     0.02435568      0.02472717      0.00892775
    -0.00398815      0.01119345      0.05081631
    -0.05492577     -0.22217691     -0.21283240
     0.62673242     -0.52938028      0.00161539
[INT]
    3.613563
    1.016323
    3.361164
    0.868538
    1.954205
    1.475232
    0.315522
    0.379395
    0.321098
    2.556957
    2.131595
    1.126322
   12.270749
    8.235842
    6.551390
    2.793597
   10.916212
   24.358053
    6.009796
    0.673117
   11.690971
    4.303192
   15.152585
    6.467298
   18.712065
   11.028498
    3.308352
    1.527984
   10.519005
    2.158955
   29.499914
   10.555035
   13.430155
   13.303525
   40.044791
   27.724258
    1.809339
   47.271429
   27.046959
   60.029057
    1.606872
    2.022952
   10.324996
    5.065587
    3.415187
    3.404546
   15.085162
   58.892268
   54.464465
  192.533758
   73.237316
  251.820913
   21.933478
    6.506963
   22.879963
    1.969689
   17.624199
    9.088216
   25.214050
    8.519085
    5.449804
    1.584713
   11.956856
    9.390593
    8.914334
  285.461155
  293.654186
   31.860349
   34.583250
   23.946949
   30.746186
    8.048169
    5.985115
    2.109791
   38.344726
   22.485631
   14.111230
   14.322694
   13.150619
    4.264634
   15.117240

======= END OF MOLDEN-FORMATTED INPUT FILE =======


        *************************************************************
        *                                                           *
        *  Thank you very much for using Q-Chem.  Have a nice day.  *
        *                                                           *
        *************************************************************


