mFile = /opt/software/qchem/qchem-5.0.1//bin/mpi/machines
Process 0 of 1 is on vega03.cac.cornell.edu - thread support 0
initial socket setup ...start
initial socket setup ...done 
now start server 0 ... 
vega03 10.84.3
Q-Chem Developer Version! Running on 10.84.3.*
                  Welcome to Q-Chem
     A Quantum Leap Into The Future Of Chemistry


 Q-Chem 5.0, Q-Chem, Inc., Pleasanton, CA (2017)

 Yihan Shao,  Zhengting Gan,  E. Epifanovsky,  A. T. B. Gilbert,  M. Wormit,  
 J. Kussmann,  A. W. Lange,  A. Behn,  Jia Deng,  Xintian Feng,  D. Ghosh,  
 M. Goldey,  P. R. Horn,  L. D. Jacobson,  I. Kaliman,  T. Kus,  A. Landau,  
 Jie Liu,  E. I. Proynov,  R. M. Richard,  R. P. Steele,  E. J. Sundstrom,  
 H. L. Woodcock III,  P. M. Zimmerman,  D. Zuev,  B. Albrecht,  E. Alguire,  
 S. A. Baeppler,  Z. Benda,  Y. A. Bernard,  E. J. Berquist,  K. B. Bravaya,  
 D. Casanova,  Chun-Min Chang,  Yunqing Chen,  A. Chien,  K. D. Closser,  
 M. P. Coons,  S. Dasgupta,  M. Diedenhofen,  Hainam Do,  R. G. Edgar,  
 Po-Tung Fang,  S. Fatehi,  Qingguo Feng,  Qinghui Ge,  A. Ghysels,  
 J. Gomes,  J. Gonthier,  A. Gunina,  M. W. D. Hanson-Heine,  
 P. H. P. Harbach,  A. W. Hauser,  J. E. Herr,  E. G. Hohenstein,  
 Z. C. Holden,  Kerwin Hui,  T.-C. Jagau,  Hyunjun Ji,  B. Kaduk,  
 K. Khistyaev,  Jaehoon Kim,  P. Klunzinger,  K. Koh,  D. Kosenkov,  
 T. Kowalczyk,  C. M. Krauter,  A. Kunitsa,  Ka Un Lao,  A. Laurent,  
 K. V. Lawler,  Joonho Lee,  D. Lefrancois,  S. Lehtola,  D. S. Levine,  
 Yi-Pei Li,  You-Sheng Lin,  Fenglai Liu,  E. Livshits,  A. Luenser,  
 P. Manohar,  E. Mansoor,  S. F. Manzer,  Shan-Ping Mao,  Yuezhi Mao,  
 N. Mardirossian,  A. V. Marenich,  L. A. Martinez-Martinez,  S. A. Maurer,  
 N. J. Mayhall,  S. C. McKenzie,  J.-M. Mewes,  A. F. Morrison,  K. Nanda,  
 T. S. Nguyen-Beck,  R. Olivares-Amaya,  J. A. Parkhill,  T. M. Perrine,  
 F. Plasser,  S. Prager,  A. Prociuk,  D. R. Rehn,  F. Rob,  M. Schneider,  
 N. Sergueev,  S. M. Sharada,  S. Sharma,  D. W. Small,  T. Stauch,  
 T. Stein,  Yu-Chuan Su,  A. J. W. Thom,  T. Tsuchimochi,  L. Vogt,  
 O. Vydrov,  M. A. Watson,  J. Wenzel,  M. de Wergifosse,  T. A. Wesolowski,  
 A. White,  J. Witte,  A. Yamada,  Jun Yang,  K. Yao,  S. Yeganeh,  
 S. R. Yost,  Zhi-Qiang You,  A. Zech,  Igor Ying Zhang,  Xing Zhang,  
 Yan Zhao,  Ying Zhu,  B. R. Brooks,  G. K. L. Chan,  C. J. Cramer,  
 M. S. Gordon,  W. J. Hehre,  A. Klamt,  M. W. Schmidt,  C. D. Sherrill,  
 D. G. Truhlar,  A. Aspuru-Guzik,  R. Baer,  A. T. Bell,  N. A. Besley,  
 Jeng-Da Chai,  A. Dreuw,  B. D. Dunietz,  T. R. Furlani,  Chao-Ping Hsu,  
 Yousung Jung,  Jing Kong,  D. S. Lambrecht,  WanZhen Liang,  C. Ochsenfeld,  
 V. A. Rassolov,  L. V. Slipchenko,  J. E. Subotnik,  T. Van Voorhis,  
 J. M. Herbert,  A. I. Krylov,  P. M. W. Gill,  M. Head-Gordon

 Contributors to earlier versions of Q-Chem not listed above: 
 R. D. Adamson,  B. Austin,  J. Baker,  G. J. O. Beran,  K. Brandhorst,  
 S. T. Brown,  E. F. C. Byrd,  A. K. Chakraborty,  C.-L. Cheng,  
 Siu Hung Chien,  D. M. Chipman,  D. L. Crittenden,  H. Dachsel,  
 R. A. DiStasio Jr.,  R. J. Doerksen,  A. D. Dutoi,  L. Fusti-Molnar,  
 W. A. Goddard III,  A. Golubeva-Zadorozhnaya,  S. R. Gwaltney,  G. Hawkins,  
 A. Heyden,  S. Hirata,  G. Kedziora,  F. J. Keil,  C. Kelley,  Jihan Kim,  
 R. A. King,  R. Z. Khaliullin,  P. P. Korambath,  W. Kurlancheek,  
 A. M. Lee,  M. S. Lee,  S. V. Levchenko,  Ching Yeh Lin,  D. Liotard,  
 R. C. Lochan,  I. Lotan,  P. E. Maslen,  N. Nair,  D. P. O'Neill,  
 D. Neuhauser,  E. Neuscamman,  C. M. Oana,  R. Olson,  B. Peters,  
 R. Peverati,  P. A. Pieniazek,  Y. M. Rhee,  J. Ritchie,  M. A. Rohrdanz,  
 E. Rosta,  N. J. Russ,  H. F. Schaefer III,  N. E. Schultz,  N. Shenvi,  
 A. C. Simmonett,  A. Sodt,  D. Stuck,  K. S. Thanthiriwatte,  V. Vanovschi,  
 Tao Wang,  A. Warshel,  C. F. Williams,  Q. Wu,  X. Xu,  W. Zhang

 Please cite Q-Chem as follows:
 Y. Shao et al., Mol. Phys. 113, 184-215 (2015)
 DOI: 10.1080/00268976.2014.952696

 Q-Chem 5.0.1 for Intel X86 EM64T Linux

 Parts of Q-Chem use Armadillo 5.200.1 (Boston Tea Smuggler).
 http://arma.sourceforge.net/

 Q-Chem begins on Mon Apr  2 15:10:26 2018  

Host: vega03.cac.cornell.edu
0

     Scratch files written to /scratch/jj585/vdw/10n01_distance_7.000_01.save//
 Parallel job on  1  processors

Checking the input file for inconsistencies... 	...done.

--------------------------------------------------------------
User input:
--------------------------------------------------------------
$molecule
0  1
C        -0.49627000        -1.29404000        +6.90628000
C        -0.50892000        +0.10844000        +7.02810000
C        +0.79786000        -2.04810000        +6.87943000
C        +0.77660000        +0.87402000        +7.03915000
O        +1.58462000        -1.70210000        +7.92130000
O        +1.09519000        -2.89439000        +6.07229000
O        +1.58601000        +0.47267000        +6.03440000
O        +1.05852000        +1.76063000        +7.80795000
C        +2.88266000        +1.09087000        +5.97959000
C        +2.87133000        -2.34242000        +7.97792000
C        -1.69503000        -2.02650000        +6.84765000
C        -2.89135000        -1.31090000        +6.92032000
C        -2.90496000        +0.07221000        +7.04251000
C        -1.72344000        +0.81370000        +7.10127000
H        +2.78652000        +2.16955000        +5.84853000
H        +2.75595000        -3.42353000        +8.06872000
H        -3.85537000        +0.59291000        +7.09027000
H        +3.43815000        +0.89059000        +6.89773000
H        +3.38001000        +0.64235000        +5.12250000
H        +3.35912000        -1.93315000        +8.85967000
H        +3.44706000        -2.11968000        +7.07776000
H        -3.83075000        -1.85245000        +6.88329000
H        -1.74069000        +1.84130000        +7.19493000
H        -1.69061000        -3.05427000        +6.75442000
@C        -0.54444000        -0.68370000        -0.06689000
@C        -0.55709000        +0.71878000        +0.05493000
@C        +0.74969000        -1.43776000        -0.09374000
@C        +0.72843000        +1.48436000        +0.06598000
@O        +1.53645000        -1.09176000        +0.94813000
@O        +1.04702000        -2.28405000        -0.90088000
@O        +1.53784000        +1.08301000        -0.93877000
@O        +1.01035000        +2.37097000        +0.83478000
@C        +2.83449000        +1.70121000        -0.99358000
@C        +2.82316000        -1.73208000        +1.00475000
@C        -1.74320000        -1.41616000        -0.12552000
@C        -2.93952000        -0.70056000        -0.05285000
@C        -2.95313000        +0.68255000        +0.06934000
@C        -1.77161000        +1.42404000        +0.12810000
@H        +2.73835000        +2.77989000        -1.12464000
@H        +2.70778000        -2.81319000        +1.09555000
@H        -3.90354000        +1.20325000        +0.11710000
@H        +3.38998000        +1.50093000        -0.07544000
@H        +3.33184000        +1.25269000        -1.85067000
@H        +3.31095000        -1.32281000        +1.88650000
@H        +3.39889000        -1.50934000        +0.10459000
@H        -3.87892000        -1.24211000        -0.08988000
@H        -1.78886000        +2.45164000        +0.22176000
@H        -1.73878000        -2.44393000        -0.21875000
$end

$rem
JOBTYPE                   SP
METHOD                    B3LYP
DFT_D                     d3_op
BASIS                     6-311++G(d,p)
SYMMETRY                  False
THRESH                    12
SCF_CONVERGENCE           8
MAX_SUB_FILE_NUM          128
MEM_STATIC                400
MEM_TOTAL                 4000
$end
--------------------------------------------------------------
 Adding empirical dispersion correction 
 ----------------------------------------------------------------
 Doing -D3(op) with
 s6 =   1.00000
 s8 =   0.78311
 a1 =   0.30000
 a2 =   4.25000
 n  =  10.00000
 -D3 energy without 3body term =     -0.0247543049 hartrees
 ----------------------------------------------------------------
             Standard Nuclear Orientation (Angstroms)
    I     Atom           X                Y                Z
 ----------------------------------------------------------------
    1      C      -0.4962700000    -1.2940400000     6.9062800000
    2      C      -0.5089200000     0.1084400000     7.0281000000
    3      C       0.7978600000    -2.0481000000     6.8794300000
    4      C       0.7766000000     0.8740200000     7.0391500000
    5      O       1.5846200000    -1.7021000000     7.9213000000
    6      O       1.0951900000    -2.8943900000     6.0722900000
    7      O       1.5860100000     0.4726700000     6.0344000000
    8      O       1.0585200000     1.7606300000     7.8079500000
    9      C       2.8826600000     1.0908700000     5.9795900000
   10      C       2.8713300000    -2.3424200000     7.9779200000
   11      C      -1.6950300000    -2.0265000000     6.8476500000
   12      C      -2.8913500000    -1.3109000000     6.9203200000
   13      C      -2.9049600000     0.0722100000     7.0425100000
   14      C      -1.7234400000     0.8137000000     7.1012700000
   15      H       2.7865200000     2.1695500000     5.8485300000
   16      H       2.7559500000    -3.4235300000     8.0687200000
   17      H      -3.8553700000     0.5929100000     7.0902700000
   18      H       3.4381500000     0.8905900000     6.8977300000
   19      H       3.3800100000     0.6423500000     5.1225000000
   20      H       3.3591200000    -1.9331500000     8.8596700000
   21      H       3.4470600000    -2.1196800000     7.0777600000
   22      H      -3.8307500000    -1.8524500000     6.8832900000
   23      H      -1.7406900000     1.8413000000     7.1949300000
   24      H      -1.6906100000    -3.0542700000     6.7544200000
   25      GH     -0.5444400000    -0.6837000000    -0.0668900000
   26      GH     -0.5570900000     0.7187800000     0.0549300000
   27      GH      0.7496900000    -1.4377600000    -0.0937400000
   28      GH      0.7284300000     1.4843600000     0.0659800000
   29      GH      1.5364500000    -1.0917600000     0.9481300000
   30      GH      1.0470200000    -2.2840500000    -0.9008800000
   31      GH      1.5378400000     1.0830100000    -0.9387700000
   32      GH      1.0103500000     2.3709700000     0.8347800000
   33      GH      2.8344900000     1.7012100000    -0.9935800000
   34      GH      2.8231600000    -1.7320800000     1.0047500000
   35      GH     -1.7432000000    -1.4161600000    -0.1255200000
   36      GH     -2.9395200000    -0.7005600000    -0.0528500000
   37      GH     -2.9531300000     0.6825500000     0.0693400000
   38      GH     -1.7716100000     1.4240400000     0.1281000000
   39      GH      2.7383500000     2.7798900000    -1.1246400000
   40      GH      2.7077800000    -2.8131900000     1.0955500000
   41      GH     -3.9035400000     1.2032500000     0.1171000000
   42      GH      3.3899800000     1.5009300000    -0.0754400000
   43      GH      3.3318400000     1.2526900000    -1.8506700000
   44      GH      3.3109500000    -1.3228100000     1.8865000000
   45      GH      3.3988900000    -1.5093400000     0.1045900000
   46      GH     -3.8789200000    -1.2421100000    -0.0898800000
   47      GH     -1.7888600000     2.4516400000     0.2217600000
   48      GH     -1.7387800000    -2.4439300000    -0.2187500000
 ----------------------------------------------------------------
 Nuclear Repulsion Energy =   900.9237854012 hartrees
 There are       51 alpha and       51 beta electrons
 Requested basis set is 6-311++G(d,p)
 There are 268 shells and 756 basis functions

 Total QAlloc Memory Limit   4000 MB
 Mega-Array Size       392 MB
 MEM_STATIC part       400 MB
 A cutoff of  1.0D-12 yielded  23429 shell pairs
 There are    187046 function pairs (    198812 Cartesian)
 
 -------------------------------------------------------
 OpenMP Integral Computing Module                       
 Release: version 1.0, May 2013, Q-Chem Inc. Pittsburgh 
 -------------------------------------------------------
 Integral Job Info:
 Integral job number is                      11
 Integral operator is                         1
 short-range coefficients                     0
 long-range coefficients              100000000
 Omega coefficients                           0
 if combine SR and LR in K                    0
 Integral screening is                        0
 Integral computing path is                   2
 max size of driver memory is            800000
 size of driver memory is                593474
 size of scratch memory is              2361544
 max col of scratch BK array               1296
 max len of scratch array in speh3          155
 max len of scratch index in speh4           18
 max int batch size is                      520
 min int batch size is                       52
 fixed nKL is                                52
 max L of basis functions is                  2
 order of int derivative is                   0
 number of shells is                        268
 number of basis is                         784
 number of cartesian basis is               784
 number of contracted shell pairs         23429
 number of primitive shell pairs          51672
 maxK2 (contraction) of shell pair           36
 max number of K2 of shell pair               1
 max number of CS2 of shell pair           4646
 max number of PS2 of shell pair           8682
 mem total for path MDJ                  363784
 -------------------------------------------------------
 Smallest overlap matrix eigenvalue = 3.89E-07
 Linear dependence detected in AO basis
 Number of orthogonalized atomic orbitals = 754
 Maximum deviation from orthogonality = 2.866E-10

 Scale SEOQF with 1.000000e-01/1.000000e-01/1.000000e-02

 Standard Electronic Orientation quadrupole field applied
 Nucleus-field energy     =    -0.0000000194 hartrees
 Guess from superposition of atomic densities
 Warning:  Energy on first SCF cycle will be non-variational

 Q-Chem warning in module /opt/software/qchem/qchem-5.0.1/libgen/Atomic_PolEc.C, line 58:

 No atomic polarizability available.


 Q-Chem warning in module /opt/software/qchem/qchem-5.0.1/libgen/Atomic_PolEc.C, line 73:

 No atomic polarizability available.


 Q-Chem warning in module /opt/software/qchem/qchem-5.0.1/libgen/Atomic_PolEc.C, line 58:

 No atomic polarizability available.


 Q-Chem warning in module /opt/software/qchem/qchem-5.0.1/libgen/Atomic_PolEc.C, line 73:

 No atomic polarizability available.


 Q-Chem warning in module /opt/software/qchem/qchem-5.0.1/libgen/Atomic_PolEc.C, line 58:

 No atomic polarizability available.


 Q-Chem warning in module /opt/software/qchem/qchem-5.0.1/libgen/Atomic_PolEc.C, line 73:

 No atomic polarizability available.


 Q-Chem warning in module /opt/software/qchem/qchem-5.0.1/libgen/Atomic_PolEc.C, line 58:

 No atomic polarizability available.


 Q-Chem warning in module /opt/software/qchem/qchem-5.0.1/libgen/Atomic_PolEc.C, line 73:

 No atomic polarizability available.


 Q-Chem warning in module /opt/software/qchem/qchem-5.0.1/libgen/Atomic_PolEc.C, line 58:

 No atomic polarizability available.


 Q-Chem warning in module /opt/software/qchem/qchem-5.0.1/libgen/Atomic_PolEc.C, line 73:

 No atomic polarizability available.


 Q-Chem warning in module /opt/software/qchem/qchem-5.0.1/libgen/Atomic_PolEc.C, line 58:

 No atomic polarizability available.


 Q-Chem warning in module /opt/software/qchem/qchem-5.0.1/libgen/Atomic_PolEc.C, line 73:

 No atomic polarizability available.


 Q-Chem warning in module /opt/software/qchem/qchem-5.0.1/libgen/Atomic_PolEc.C, line 58:

 No atomic polarizability available.


 Q-Chem warning in module /opt/software/qchem/qchem-5.0.1/libgen/Atomic_PolEc.C, line 73:

 No atomic polarizability available.


 Q-Chem warning in module /opt/software/qchem/qchem-5.0.1/libgen/Atomic_PolEc.C, line 58:

 No atomic polarizability available.


 Q-Chem warning in module /opt/software/qchem/qchem-5.0.1/libgen/Atomic_PolEc.C, line 73:

 No atomic polarizability available.


 Q-Chem warning in module /opt/software/qchem/qchem-5.0.1/libgen/Atomic_PolEc.C, line 58:

 No atomic polarizability available.


 Q-Chem warning in module /opt/software/qchem/qchem-5.0.1/libgen/Atomic_PolEc.C, line 73:

 No atomic polarizability available.


 Q-Chem warning in module /opt/software/qchem/qchem-5.0.1/libgen/Atomic_PolEc.C, line 58:

 No atomic polarizability available.


 Q-Chem warning in module /opt/software/qchem/qchem-5.0.1/libgen/Atomic_PolEc.C, line 73:

 No atomic polarizability available.


 Q-Chem warning in module /opt/software/qchem/qchem-5.0.1/libgen/Atomic_PolEc.C, line 58:

 No atomic polarizability available.


 Q-Chem warning in module /opt/software/qchem/qchem-5.0.1/libgen/Atomic_PolEc.C, line 73:

 No atomic polarizability available.


 Q-Chem warning in module /opt/software/qchem/qchem-5.0.1/libgen/Atomic_PolEc.C, line 58:

 No atomic polarizability available.


 Q-Chem warning in module /opt/software/qchem/qchem-5.0.1/libgen/Atomic_PolEc.C, line 73:

 No atomic polarizability available.


 Q-Chem warning in module /opt/software/qchem/qchem-5.0.1/libgen/Atomic_PolEc.C, line 58:

 No atomic polarizability available.


 Q-Chem warning in module /opt/software/qchem/qchem-5.0.1/libgen/Atomic_PolEc.C, line 73:

 No atomic polarizability available.


 Q-Chem warning in module /opt/software/qchem/qchem-5.0.1/libgen/Atomic_PolEc.C, line 58:

 No atomic polarizability available.


 Q-Chem warning in module /opt/software/qchem/qchem-5.0.1/libgen/Atomic_PolEc.C, line 73:

 No atomic polarizability available.


 Q-Chem warning in module /opt/software/qchem/qchem-5.0.1/libgen/Atomic_PolEc.C, line 58:

 No atomic polarizability available.


 Q-Chem warning in module /opt/software/qchem/qchem-5.0.1/libgen/Atomic_PolEc.C, line 73:

 No atomic polarizability available.


 Q-Chem warning in module /opt/software/qchem/qchem-5.0.1/libgen/Atomic_PolEc.C, line 58:

 No atomic polarizability available.


 Q-Chem warning in module /opt/software/qchem/qchem-5.0.1/libgen/Atomic_PolEc.C, line 73:

 No atomic polarizability available.


 Q-Chem warning in module /opt/software/qchem/qchem-5.0.1/libgen/Atomic_PolEc.C, line 58:

 No atomic polarizability available.


 Q-Chem warning in module /opt/software/qchem/qchem-5.0.1/libgen/Atomic_PolEc.C, line 73:

 No atomic polarizability available.


 Q-Chem warning in module /opt/software/qchem/qchem-5.0.1/libgen/Atomic_PolEc.C, line 58:

 No atomic polarizability available.


 Q-Chem warning in module /opt/software/qchem/qchem-5.0.1/libgen/Atomic_PolEc.C, line 73:

 No atomic polarizability available.


 Q-Chem warning in module /opt/software/qchem/qchem-5.0.1/libgen/Atomic_PolEc.C, line 58:

 No atomic polarizability available.


 Q-Chem warning in module /opt/software/qchem/qchem-5.0.1/libgen/Atomic_PolEc.C, line 73:

 No atomic polarizability available.


 Q-Chem warning in module /opt/software/qchem/qchem-5.0.1/libgen/Atomic_PolEc.C, line 58:

 No atomic polarizability available.


 Q-Chem warning in module /opt/software/qchem/qchem-5.0.1/libgen/Atomic_PolEc.C, line 73:

 No atomic polarizability available.


 Q-Chem warning in module /opt/software/qchem/qchem-5.0.1/libgen/Atomic_PolEc.C, line 58:

 No atomic polarizability available.


 Q-Chem warning in module /opt/software/qchem/qchem-5.0.1/libgen/Atomic_PolEc.C, line 73:

 No atomic polarizability available.


 Q-Chem warning in module /opt/software/qchem/qchem-5.0.1/libgen/Atomic_PolEc.C, line 58:

 No atomic polarizability available.


 Q-Chem warning in module /opt/software/qchem/qchem-5.0.1/libgen/Atomic_PolEc.C, line 73:

 No atomic polarizability available.


 Q-Chem warning in module /opt/software/qchem/qchem-5.0.1/libgen/Atomic_PolEc.C, line 58:

 No atomic polarizability available.


 Q-Chem warning in module /opt/software/qchem/qchem-5.0.1/libgen/Atomic_PolEc.C, line 73:

 No atomic polarizability available.


 Q-Chem warning in module /opt/software/qchem/qchem-5.0.1/libgen/Atomic_PolEc.C, line 58:

 No atomic polarizability available.


 Q-Chem warning in module /opt/software/qchem/qchem-5.0.1/libgen/Atomic_PolEc.C, line 73:

 No atomic polarizability available.

 A restricted hybrid HF-DFT SCF calculation will be
 performed using Pulay DIIS extrapolation
 Exchange:     0.2000 Hartree-Fock + 0.0800 Slater + 0.7200 B88
 Correlation:  0.1900 VWN1RPA + 0.8100 LYP
 Using SG-1 standard quadrature grid
 Dispersion:   Grimme D3
 SCF converges when DIIS error is below 1.0E-08
 using 2 threads for integral computing
 -------------------------------------------------------
 OpenMP Integral computing Module                
 Release: version 1.0, May 2013, Q-Chem Inc. Pittsburgh 
 -------------------------------------------------------
 -------------------------------------------------------
 OpenMP BLAS3 based DFT computing Module                
 Release: version 1.0, May 2013, Q-Chem Inc. Pittsburgh 
 -------------------------------------------------------
 ---------------------------------------
  Cycle       Energy         DIIS Error
 ---------------------------------------
    1    -691.1650647525      1.68E-02
    2    -687.9405012912      2.16E-03
    3    -687.4061538691      3.89E-03
    4    -688.1654766875      8.60E-04
    5    -688.2076272945      2.35E-04
    6    -688.2101805754      8.26E-05
    7    -688.2105379680      1.99E-05
    8    -688.2105589055      5.86E-06
    9    -688.2105609690      1.60E-06
   10    -688.2105610901      8.51E-07
   11    -688.2105611455      1.15E-07
   12    -688.2105611456      1.13E-07
   13    -688.2105611462      1.24E-08
   14    -688.2105611461      5.67E-09 Convergence criterion met
 ---------------------------------------
 SCF time:  CPU 1828.00 s  wall 922.60 s
 SCF   energy in the final basis set = -688.21056115
 Total energy in the final basis set = -688.21056115
 
 --------------------------------------------------------------
 
                    Orbital Energies (a.u.)
 --------------------------------------------------------------
 
 Alpha MOs
 -- Occupied --
-19.178 -19.178 -19.122 -19.122 -10.314 -10.314 -10.233 -10.233
-10.215 -10.214 -10.198 -10.198 -10.197 -10.197  -1.123  -1.117
 -1.033  -1.032  -0.887  -0.800  -0.787  -0.744  -0.733  -0.656
 -0.646  -0.596  -0.579  -0.555  -0.524  -0.516  -0.493  -0.492
 -0.485  -0.479  -0.472  -0.468  -0.440  -0.431  -0.416  -0.408
 -0.389  -0.387  -0.384  -0.369  -0.366  -0.324  -0.316  -0.302
 -0.297  -0.275  -0.272
 -- Virtual --
 -0.061  -0.046  -0.012  -0.006   0.003   0.005   0.013   0.016
  0.019   0.020   0.025   0.030   0.033   0.037   0.040   0.043
  0.049   0.050   0.053   0.054   0.058   0.062   0.065   0.068
  0.073   0.076   0.081   0.086   0.089   0.091   0.093   0.097
  0.098   0.100   0.104   0.105   0.107   0.110   0.113   0.115
  0.117   0.118   0.121   0.124   0.126   0.129   0.132   0.134
  0.135   0.136   0.137   0.140   0.143   0.145   0.149   0.151
  0.153   0.158   0.160   0.162   0.163   0.164   0.166   0.170
  0.173   0.173   0.174   0.178   0.179   0.183   0.187   0.189
  0.191   0.194   0.198   0.200   0.203   0.205   0.209   0.213
  0.216   0.216   0.219   0.222   0.223   0.223   0.227   0.230
  0.233   0.235   0.237   0.238   0.242   0.244   0.245   0.251
  0.253   0.256   0.260   0.266   0.268   0.270   0.272   0.274
  0.277   0.280   0.285   0.286   0.288   0.293   0.295   0.297
  0.298   0.301   0.303   0.305   0.307   0.313   0.317   0.319
  0.322   0.326   0.327   0.330   0.335   0.337   0.339   0.345
  0.347   0.352   0.352   0.356   0.359   0.363   0.365   0.373
  0.375   0.378   0.380   0.381   0.383   0.385   0.388   0.392
  0.393   0.394   0.397   0.401   0.406   0.411   0.416   0.422
  0.423   0.424   0.429   0.435   0.438   0.442   0.446   0.449
  0.460   0.464   0.466   0.475   0.489   0.496   0.500   0.506
  0.508   0.512   0.516   0.518   0.524   0.528   0.535   0.547
  0.552   0.555   0.561   0.565   0.568   0.571   0.578   0.584
  0.588   0.591   0.593   0.601   0.603   0.608   0.612   0.619
  0.625   0.627   0.631   0.633   0.639   0.644   0.646   0.652
  0.654   0.657   0.660   0.666   0.667   0.674   0.678   0.682
  0.689   0.690   0.694   0.699   0.702   0.707   0.720   0.723
  0.727   0.729   0.733   0.736   0.740   0.746   0.753   0.762
  0.769   0.771   0.773   0.783   0.786   0.790   0.807   0.809
  0.815   0.828   0.833   0.852   0.857   0.860   0.867   0.870
  0.876   0.884   0.888   0.900   0.917   0.921   0.932   0.942
  0.944   0.957   0.969   0.973   0.980   0.981   0.996   1.001
  1.007   1.011   1.017   1.019   1.023   1.037   1.043   1.050
  1.057   1.061   1.069   1.080   1.084   1.090   1.097   1.098
  1.103   1.115   1.120   1.123   1.134   1.136   1.141   1.145
  1.153   1.162   1.171   1.190   1.196   1.199   1.203   1.211
  1.221   1.227   1.230   1.244   1.251   1.265   1.278   1.285
  1.292   1.302   1.305   1.317   1.337   1.340   1.363   1.367
  1.375   1.383   1.391   1.393   1.406   1.429   1.444   1.452
  1.456   1.461   1.476   1.492   1.504   1.512   1.517   1.527
  1.530   1.541   1.548   1.553   1.559   1.564   1.569   1.571
  1.575   1.581   1.585   1.592   1.598   1.602   1.605   1.621
  1.627   1.644   1.644   1.673   1.678   1.704   1.708   1.712
  1.717   1.722   1.727   1.730   1.736   1.741   1.744   1.753
  1.756   1.761   1.775   1.781   1.787   1.799   1.801   1.806
  1.809   1.817   1.822   1.827   1.828   1.831   1.835   1.838
  1.854   1.868   1.886   1.889   1.894   1.895   1.901   1.913
  1.931   1.933   1.945   1.948   1.953   1.960   1.964   1.972
  1.986   1.990   1.993   2.001   2.002   2.007   2.008   2.020
  2.051   2.054   2.063   2.077   2.090   2.104   2.111   2.116
  2.118   2.130   2.133   2.142   2.146   2.157   2.177   2.179
  2.190   2.192   2.260   2.271   2.273   2.305   2.312   2.335
  2.338   2.345   2.349   2.358   2.372   2.379   2.383   2.393
  2.394   2.408   2.421   2.428   2.451   2.470   2.478   2.486
  2.491   2.496   2.503   2.504   2.507   2.508   2.513   2.525
  2.531   2.536   2.551   2.586   2.587   2.597   2.604   2.620
  2.625   2.627   2.637   2.641   2.644   2.655   2.661   2.676
  2.683   2.685   2.691   2.702   2.711   2.718   2.721   2.728
  2.732   2.739   2.756   2.758   2.770   2.775   2.778   2.789
  2.807   2.822   2.836   2.839   2.853   2.861   2.865   2.871
  2.888   2.893   2.894   2.895   2.897   2.910   2.924   2.944
  2.944   2.958   2.969   2.993   3.002   3.027   3.029   3.040
  3.042   3.049   3.052   3.059   3.068   3.072   3.081   3.104
  3.106   3.109   3.138   3.158   3.167   3.187   3.211   3.213
  3.224   3.229   3.236   3.240   3.248   3.276   3.282   3.288
  3.293   3.321   3.335   3.350   3.352   3.358   3.366   3.376
  3.382   3.407   3.421   3.422   3.432   3.467   3.493   3.504
  3.521   3.524   3.531   3.536   3.543   3.556   3.573   3.587
  3.589   3.594   3.612   3.633   3.653   3.654   3.663   3.719
  3.775   3.779   3.797   3.813   3.819   3.853   3.883   3.906
  3.918   3.947   4.020   4.027   4.032   4.062   4.080   4.088
  4.107   4.141   4.165   4.245   4.262   4.322   4.331   4.529
  4.559   4.566   4.574   4.678   4.704   4.731   4.787   4.800
  4.806   4.824   4.847   4.848   4.889   4.904   4.968   4.972
  4.982   4.985   5.031   5.049   5.088   5.130   5.173   5.188
  5.192   5.197   5.230   5.245   5.312   5.330   5.383   5.414
  5.517   5.569   5.588   5.613   5.621   5.700   5.732   5.864
  5.886   6.115   6.130   7.041   7.131   7.146   7.243   7.250
  7.354   7.364   7.407   7.691   7.701   7.779   7.785   7.787
  7.797   7.809   7.816   7.820   7.847   7.865   7.869   7.947
  7.970   7.994   8.003   8.041   8.054   8.254   8.352   8.599
  8.954   9.709   9.959   9.985  10.015  10.029  10.188  10.218
 10.249  10.262  10.319  13.524  13.562  13.600  13.670  13.696
 13.701  13.829  13.870  14.136  14.157  14.268  14.284  18.503
 18.533  18.651  18.705  23.609  23.838  23.852  23.922  23.926
 23.932  23.985  24.051  24.080  24.175  49.881  49.912  50.008
 50.022  69.810  69.966  69.993  70.003  70.044  70.075  70.078
 70.092  70.104  70.128 139.797 139.869 139.914 139.951
 --------------------------------------------------------------
 
          Ground-State Mulliken Net Atomic Charges

     Atom                 Charge (a.u.)
  ----------------------------------------
      1 C                     1.010533
      2 C                     0.817284
      3 C                    -0.990090
      4 C                    -0.761453
      5 O                     0.038544
      6 O                    -0.135949
      7 O                     0.054259
      8 O                    -0.193769
      9 C                    -0.276295
     10 C                    -0.229136
     11 C                    -0.347485
     12 C                    -0.141667
     13 C                    -0.152377
     14 C                    -0.420350
     15 H                     0.183440
     16 H                     0.173150
     17 H                     0.178473
     18 H                     0.180781
     19 H                     0.139099
     20 H                     0.167342
     21 H                     0.175248
     22 H                     0.178694
     23 H                     0.177369
     24 H                     0.170722
     25 GH                    0.002400
     26 GH                   -0.001189
     27 GH                    0.000674
     28 GH                    0.000214
     29 GH                    0.000209
     30 GH                   -0.000006
     31 GH                    0.000008
     32 GH                    0.000078
     33 GH                   -0.000028
     34 GH                   -0.001639
     35 GH                   -0.001501
     36 GH                    0.000563
     37 GH                   -0.000945
     38 GH                    0.000416
     39 GH                    0.000003
     40 GH                   -0.000661
     41 GH                   -0.000091
     42 GH                    0.000134
     43 GH                   -0.000006
     44 GH                    0.005140
     45 GH                    0.000007
     46 GH                   -0.000081
     47 GH                   -0.000033
     48 GH                   -0.000031
  ----------------------------------------
  Sum of atomic charges =     0.000000

 -----------------------------------------------------------------
                    Cartesian Multipole Moments
 -----------------------------------------------------------------
    Charge (ESU x 10^10)
                 0.0000
    Dipole Moment (Debye)
         X      -0.0446      Y      -0.1152      Z       0.0648
       Tot       0.1395
    Quadrupole Moments (Debye-Ang)
        XX     -61.2958     XY      -0.0334     YY     -84.1750
        XZ      -0.1959     YZ     -10.5660     ZZ     -86.1581
    Octopole Moments (Debye-Ang^2)
       XXX     -37.7322    XXY      36.9573    XYY     -31.4311
       YYY     149.7263    XXZ    -426.6974    XYZ     -19.2725
       YYZ    -574.8772    XZZ     -10.7125    YZZ     -88.6442
       ZZZ   -1810.4784
    Hexadecapole Moments (Debye-Ang^3)
      XXXX   -1733.5681   XXXY      25.3134   XXYY    -496.9069
      XYYY      56.9394   YYYY   -1393.7067   XXXZ    -261.3684
      XXYZ     233.6562   XYYZ    -194.7595   YYYZ     991.9655
      XXZZ   -3348.3626   XYZZ    -259.7544   YYZZ   -4225.0033
      XZZZ    -207.2770   YZZZ    -337.2569   ZZZZ  -25578.2484
 -----------------------------------------------------------------
Archival summary:
1\1\vega03.cac.cornell.edu\SP\ProcedureUnspecified\BasisUnspecified\41010h24\jj585\MonApr215:25:532018MonApr215:25:532018\0\\#,ProcedureUnspecified,BasisUnspecified,\\0,1\O\C,1,1.3512\O,2,1.2069,1,123.501\C,1,1.43752,2,116.164,3,4.8931,0\H,4,1.08772,1,105.376,2,179.706,0\H,4,1.09086,1,110.507,2,-60.681,0\H,4,1.09163,1,110.367,2,60.0909,0\C,2,1.49626,1,110.928,3,178.057,0\C,8,1.40634,2,119.012,1,-130.615,0\H,9,1.032,8,121.232,2,-2.14291,0\C,9,1.39616,8,117.536,2,177.857,0\H,11,1.08475,9,118.991,8,-179.6,0\C,11,1.38856,9,121.629,8,0.183585,0\H,13,1.08495,11,119.453,9,179.671,0\C,13,1.3959,11,121.575,9,-0.129654,0\H,15,1.032,13,121.26,11,-179.84,0\C,15,1.40604,13,117.481,11,0.160349,0\C,17,1.49803,15,118.266,13,177.84,0\O,18,1.20668,17,125.302,15,50.5403,0\O,18,1.35063,17,111.128,15,-126.75,0\C,20,1.43835,18,115.94,17,-178.519,0\H,21,1.08762,20,105.403,18,179.104,0\H,21,1.09103,20,110.475,18,-61.3232,0\H,21,1.0915,20,110.399,18,59.3962,0\Gh,5,3.7866,4,151.529,1,16.7603,0\Gh,25,1.08762,5,153.676,4,19.737,0\Gh,26,1.09103,25,110.661,5,-108.087,0\Gh,26,1.0915,25,110.808,5,130.799,0\Gh,26,1.43835,25,105.403,5,11.3627,0\Gh,29,1.35063,26,115.94,25,179.104,0\Gh,30,1.20668,29,123.512,26,4.13325,0\Gh,30,1.49803,29,111.128,26,-178.519,0\Gh,32,1.40604,30,118.266,29,-126.75,0\Gh,33,1.032,32,121.26,30,-2.16035,0\Gh,33,1.3959,32,117.481,30,177.84,0\Gh,35,1.08495,33,118.972,32,-179.641,0\Gh,35,1.38856,33,121.575,32,0.160349,0\Gh,37,1.08475,35,119.38,33,179.653,0\Gh,37,1.39616,35,121.629,33,-0.129654,0\Gh,39,1.032,37,121.232,35,-179.817,0\Gh,39,1.40634,37,117.536,35,0.183585,0\Gh,41,1.49626,39,119.012,37,177.857,0\Gh,42,1.2069,41,125.54,39,47.3939,0\Gh,42,1.3512,41,110.928,39,-130.615,0\Gh,44,1.43752,42,116.164,41,-177.05,0\Gh,45,1.08772,44,105.376,42,179.706,0\Gh,45,1.09086,44,110.507,42,-60.681,0\Gh,45,1.09163,44,110.367,42,60.0909,0\\\@

 Total job time:  926.37s(wall), 1832.28s(cpu) 
 Mon Apr  2 15:25:53 2018

        *************************************************************
        *                                                           *
        *  Thank you very much for using Q-Chem.  Have a nice day.  *
        *                                                           *
        *************************************************************


0 sent ACK to 0 
now end server 0 ... 
