mFile = /opt/software/qchem/qchem-5.0.1//bin/mpi/machines
Process 0 of 1 is on vega03.cac.cornell.edu - thread support 0
initial socket setup ...start
initial socket setup ...done 
now start server 0 ... 
vega03 10.84.3
Q-Chem Developer Version! Running on 10.84.3.*
                  Welcome to Q-Chem
     A Quantum Leap Into The Future Of Chemistry


 Q-Chem 5.0, Q-Chem, Inc., Pleasanton, CA (2017)

 Yihan Shao,  Zhengting Gan,  E. Epifanovsky,  A. T. B. Gilbert,  M. Wormit,  
 J. Kussmann,  A. W. Lange,  A. Behn,  Jia Deng,  Xintian Feng,  D. Ghosh,  
 M. Goldey,  P. R. Horn,  L. D. Jacobson,  I. Kaliman,  T. Kus,  A. Landau,  
 Jie Liu,  E. I. Proynov,  R. M. Richard,  R. P. Steele,  E. J. Sundstrom,  
 H. L. Woodcock III,  P. M. Zimmerman,  D. Zuev,  B. Albrecht,  E. Alguire,  
 S. A. Baeppler,  Z. Benda,  Y. A. Bernard,  E. J. Berquist,  K. B. Bravaya,  
 D. Casanova,  Chun-Min Chang,  Yunqing Chen,  A. Chien,  K. D. Closser,  
 M. P. Coons,  S. Dasgupta,  M. Diedenhofen,  Hainam Do,  R. G. Edgar,  
 Po-Tung Fang,  S. Fatehi,  Qingguo Feng,  Qinghui Ge,  A. Ghysels,  
 J. Gomes,  J. Gonthier,  A. Gunina,  M. W. D. Hanson-Heine,  
 P. H. P. Harbach,  A. W. Hauser,  J. E. Herr,  E. G. Hohenstein,  
 Z. C. Holden,  Kerwin Hui,  T.-C. Jagau,  Hyunjun Ji,  B. Kaduk,  
 K. Khistyaev,  Jaehoon Kim,  P. Klunzinger,  K. Koh,  D. Kosenkov,  
 T. Kowalczyk,  C. M. Krauter,  A. Kunitsa,  Ka Un Lao,  A. Laurent,  
 K. V. Lawler,  Joonho Lee,  D. Lefrancois,  S. Lehtola,  D. S. Levine,  
 Yi-Pei Li,  You-Sheng Lin,  Fenglai Liu,  E. Livshits,  A. Luenser,  
 P. Manohar,  E. Mansoor,  S. F. Manzer,  Shan-Ping Mao,  Yuezhi Mao,  
 N. Mardirossian,  A. V. Marenich,  L. A. Martinez-Martinez,  S. A. Maurer,  
 N. J. Mayhall,  S. C. McKenzie,  J.-M. Mewes,  A. F. Morrison,  K. Nanda,  
 T. S. Nguyen-Beck,  R. Olivares-Amaya,  J. A. Parkhill,  T. M. Perrine,  
 F. Plasser,  S. Prager,  A. Prociuk,  D. R. Rehn,  F. Rob,  M. Schneider,  
 N. Sergueev,  S. M. Sharada,  S. Sharma,  D. W. Small,  T. Stauch,  
 T. Stein,  Yu-Chuan Su,  A. J. W. Thom,  T. Tsuchimochi,  L. Vogt,  
 O. Vydrov,  M. A. Watson,  J. Wenzel,  M. de Wergifosse,  T. A. Wesolowski,  
 A. White,  J. Witte,  A. Yamada,  Jun Yang,  K. Yao,  S. Yeganeh,  
 S. R. Yost,  Zhi-Qiang You,  A. Zech,  Igor Ying Zhang,  Xing Zhang,  
 Yan Zhao,  Ying Zhu,  B. R. Brooks,  G. K. L. Chan,  C. J. Cramer,  
 M. S. Gordon,  W. J. Hehre,  A. Klamt,  M. W. Schmidt,  C. D. Sherrill,  
 D. G. Truhlar,  A. Aspuru-Guzik,  R. Baer,  A. T. Bell,  N. A. Besley,  
 Jeng-Da Chai,  A. Dreuw,  B. D. Dunietz,  T. R. Furlani,  Chao-Ping Hsu,  
 Yousung Jung,  Jing Kong,  D. S. Lambrecht,  WanZhen Liang,  C. Ochsenfeld,  
 V. A. Rassolov,  L. V. Slipchenko,  J. E. Subotnik,  T. Van Voorhis,  
 J. M. Herbert,  A. I. Krylov,  P. M. W. Gill,  M. Head-Gordon

 Contributors to earlier versions of Q-Chem not listed above: 
 R. D. Adamson,  B. Austin,  J. Baker,  G. J. O. Beran,  K. Brandhorst,  
 S. T. Brown,  E. F. C. Byrd,  A. K. Chakraborty,  C.-L. Cheng,  
 Siu Hung Chien,  D. M. Chipman,  D. L. Crittenden,  H. Dachsel,  
 R. A. DiStasio Jr.,  R. J. Doerksen,  A. D. Dutoi,  L. Fusti-Molnar,  
 W. A. Goddard III,  A. Golubeva-Zadorozhnaya,  S. R. Gwaltney,  G. Hawkins,  
 A. Heyden,  S. Hirata,  G. Kedziora,  F. J. Keil,  C. Kelley,  Jihan Kim,  
 R. A. King,  R. Z. Khaliullin,  P. P. Korambath,  W. Kurlancheek,  
 A. M. Lee,  M. S. Lee,  S. V. Levchenko,  Ching Yeh Lin,  D. Liotard,  
 R. C. Lochan,  I. Lotan,  P. E. Maslen,  N. Nair,  D. P. O'Neill,  
 D. Neuhauser,  E. Neuscamman,  C. M. Oana,  R. Olson,  B. Peters,  
 R. Peverati,  P. A. Pieniazek,  Y. M. Rhee,  J. Ritchie,  M. A. Rohrdanz,  
 E. Rosta,  N. J. Russ,  H. F. Schaefer III,  N. E. Schultz,  N. Shenvi,  
 A. C. Simmonett,  A. Sodt,  D. Stuck,  K. S. Thanthiriwatte,  V. Vanovschi,  
 Tao Wang,  A. Warshel,  C. F. Williams,  Q. Wu,  X. Xu,  W. Zhang

 Please cite Q-Chem as follows:
 Y. Shao et al., Mol. Phys. 113, 184-215 (2015)
 DOI: 10.1080/00268976.2014.952696

 Q-Chem 5.0.1 for Intel X86 EM64T Linux

 Parts of Q-Chem use Armadillo 5.200.1 (Boston Tea Smuggler).
 http://arma.sourceforge.net/

 Q-Chem begins on Mon Apr  2 16:18:11 2018  

Host: vega03.cac.cornell.edu
0

     Scratch files written to /scratch/jj585/vdw/11n01_distance_7.000_10.save//
 Parallel job on  1  processors

Checking the input file for inconsistencies... 	...done.

--------------------------------------------------------------
User input:
--------------------------------------------------------------
$molecule
0  1
C        -0.54444000        -0.68370000        -0.06689000
C        -0.55709000        +0.71878000        +0.05493000
C        +0.74969000        -1.43776000        -0.09374000
C        +0.72843000        +1.48436000        +0.06598000
O        +1.53645000        -1.09176000        +0.94813000
O        +1.04702000        -2.28405000        -0.90088000
O        +1.53784000        +1.08301000        -0.93877000
O        +1.01035000        +2.37097000        +0.83478000
C        +2.83449000        +1.70121000        -0.99358000
C        +2.82316000        -1.73208000        +1.00475000
C        -1.74320000        -1.41616000        -0.12552000
C        -2.93952000        -0.70056000        -0.05285000
C        -2.95313000        +0.68255000        +0.06934000
C        -1.77161000        +1.42404000        +0.12810000
H        +2.73835000        +2.77989000        -1.12464000
H        +2.70778000        -2.81319000        +1.09555000
H        -3.90354000        +1.20325000        +0.11710000
H        +3.38998000        +1.50093000        -0.07544000
H        +3.33184000        +1.25269000        -1.85067000
H        +3.31095000        -1.32281000        +1.88650000
H        +3.39889000        -1.50934000        +0.10459000
H        -3.87892000        -1.24211000        -0.08988000
C        -1.83960000        +2.92746000        +0.24839000
H        -1.24214000        +3.42352000        -0.52065000
H        -1.45503000        +3.26427000        +1.21284000
H        -2.87211000        +3.26623000        +0.14638000
H        -1.73878000        -2.44393000        -0.21875000
@C        -0.49627000        -1.29404000        +6.90628000
@C        -0.50892000        +0.10844000        +7.02810000
@C        +0.79786000        -2.04810000        +6.87943000
@C        +0.77660000        +0.87402000        +7.03915000
@O        +1.58462000        -1.70210000        +7.92130000
@O        +1.09519000        -2.89439000        +6.07229000
@O        +1.58601000        +0.47267000        +6.03440000
@O        +1.05852000        +1.76063000        +7.80795000
@C        +2.88266000        +1.09087000        +5.97959000
@C        +2.87133000        -2.34242000        +7.97792000
@C        -1.69503000        -2.02650000        +6.84765000
@C        -2.89135000        -1.31090000        +6.92032000
@C        -2.90496000        +0.07221000        +7.04251000
@C        -1.72344000        +0.81370000        +7.10127000
@H        +2.78652000        +2.16955000        +5.84853000
@H        +2.75595000        -3.42353000        +8.06872000
@H        -3.85537000        +0.59291000        +7.09027000
@H        +3.43815000        +0.89059000        +6.89773000
@H        +3.38001000        +0.64235000        +5.12250000
@H        +3.35912000        -1.93315000        +8.85967000
@H        +3.44706000        -2.11968000        +7.07776000
@H        -3.83075000        -1.85245000        +6.88329000
@C        -1.79143000        +2.31712000        +7.22156000
@H        -1.19397000        +2.81318000        +6.45252000
@H        -1.40686000        +2.65393000        +8.18601000
@H        -2.82394000        +2.65589000        +7.11955000
@H        -1.69061000        -3.05427000        +6.75442000
$end

$rem
JOBTYPE                   SP
METHOD                    B3LYP
DFT_D                     d3_op
BASIS                     6-311++G(d,p)
SYMMETRY                  False
THRESH                    12
SCF_CONVERGENCE           8
MAX_SUB_FILE_NUM          128
MEM_STATIC                400
MEM_TOTAL                 4000
$end
--------------------------------------------------------------
 Adding empirical dispersion correction 
 ----------------------------------------------------------------
 Doing -D3(op) with
 s6 =   1.00000
 s8 =   0.78311
 a1 =   0.30000
 a2 =   4.25000
 n  =  10.00000
 -D3 energy without 3body term =     -0.0291368363 hartrees
 ----------------------------------------------------------------
             Standard Nuclear Orientation (Angstroms)
    I     Atom           X                Y                Z
 ----------------------------------------------------------------
    1      C      -0.5444400000    -0.6837000000    -0.0668900000
    2      C      -0.5570900000     0.7187800000     0.0549300000
    3      C       0.7496900000    -1.4377600000    -0.0937400000
    4      C       0.7284300000     1.4843600000     0.0659800000
    5      O       1.5364500000    -1.0917600000     0.9481300000
    6      O       1.0470200000    -2.2840500000    -0.9008800000
    7      O       1.5378400000     1.0830100000    -0.9387700000
    8      O       1.0103500000     2.3709700000     0.8347800000
    9      C       2.8344900000     1.7012100000    -0.9935800000
   10      C       2.8231600000    -1.7320800000     1.0047500000
   11      C      -1.7432000000    -1.4161600000    -0.1255200000
   12      C      -2.9395200000    -0.7005600000    -0.0528500000
   13      C      -2.9531300000     0.6825500000     0.0693400000
   14      C      -1.7716100000     1.4240400000     0.1281000000
   15      H       2.7383500000     2.7798900000    -1.1246400000
   16      H       2.7077800000    -2.8131900000     1.0955500000
   17      H      -3.9035400000     1.2032500000     0.1171000000
   18      H       3.3899800000     1.5009300000    -0.0754400000
   19      H       3.3318400000     1.2526900000    -1.8506700000
   20      H       3.3109500000    -1.3228100000     1.8865000000
   21      H       3.3988900000    -1.5093400000     0.1045900000
   22      H      -3.8789200000    -1.2421100000    -0.0898800000
   23      C      -1.8396000000     2.9274600000     0.2483900000
   24      H      -1.2421400000     3.4235200000    -0.5206500000
   25      H      -1.4550300000     3.2642700000     1.2128400000
   26      H      -2.8721100000     3.2662300000     0.1463800000
   27      H      -1.7387800000    -2.4439300000    -0.2187500000
   28      GH     -0.4962700000    -1.2940400000     6.9062800000
   29      GH     -0.5089200000     0.1084400000     7.0281000000
   30      GH      0.7978600000    -2.0481000000     6.8794300000
   31      GH      0.7766000000     0.8740200000     7.0391500000
   32      GH      1.5846200000    -1.7021000000     7.9213000000
   33      GH      1.0951900000    -2.8943900000     6.0722900000
   34      GH      1.5860100000     0.4726700000     6.0344000000
   35      GH      1.0585200000     1.7606300000     7.8079500000
   36      GH      2.8826600000     1.0908700000     5.9795900000
   37      GH      2.8713300000    -2.3424200000     7.9779200000
   38      GH     -1.6950300000    -2.0265000000     6.8476500000
   39      GH     -2.8913500000    -1.3109000000     6.9203200000
   40      GH     -2.9049600000     0.0722100000     7.0425100000
   41      GH     -1.7234400000     0.8137000000     7.1012700000
   42      GH      2.7865200000     2.1695500000     5.8485300000
   43      GH      2.7559500000    -3.4235300000     8.0687200000
   44      GH     -3.8553700000     0.5929100000     7.0902700000
   45      GH      3.4381500000     0.8905900000     6.8977300000
   46      GH      3.3800100000     0.6423500000     5.1225000000
   47      GH      3.3591200000    -1.9331500000     8.8596700000
   48      GH      3.4470600000    -2.1196800000     7.0777600000
   49      GH     -3.8307500000    -1.8524500000     6.8832900000
   50      GH     -1.7914300000     2.3171200000     7.2215600000
   51      GH     -1.1939700000     2.8131800000     6.4525200000
   52      GH     -1.4068600000     2.6539300000     8.1860100000
   53      GH     -2.8239400000     2.6558900000     7.1195500000
   54      GH     -1.6906100000    -3.0542700000     6.7544200000
 ----------------------------------------------------------------
 Nuclear Repulsion Energy =  1020.8908232511 hartrees
 There are       55 alpha and       55 beta electrons
 Requested basis set is 6-311++G(d,p)
 There are 300 shells and 828 basis functions

 Total QAlloc Memory Limit   4000 MB
 Mega-Array Size       392 MB
 MEM_STATIC part       400 MB
 A cutoff of  1.0D-12 yielded  29067 shell pairs
 There are    221218 function pairs (    234801 Cartesian)
 
 -------------------------------------------------------
 OpenMP Integral Computing Module                       
 Release: version 1.0, May 2013, Q-Chem Inc. Pittsburgh 
 -------------------------------------------------------
 Integral Job Info:
 Integral job number is                      11
 Integral operator is                         1
 short-range coefficients                     0
 long-range coefficients              100000000
 Omega coefficients                           0
 if combine SR and LR in K                    0
 Integral screening is                        0
 Integral computing path is                   2
 max size of driver memory is            800000
 size of driver memory is                593474
 size of scratch memory is              2361544
 max col of scratch BK array               1296
 max len of scratch array in speh3          155
 max len of scratch index in speh4           18
 max int batch size is                      520
 min int batch size is                       52
 fixed nKL is                                52
 max L of basis functions is                  2
 order of int derivative is                   0
 number of shells is                        300
 number of basis is                         858
 number of cartesian basis is               858
 number of contracted shell pairs         29067
 number of primitive shell pairs          62850
 maxK2 (contraction) of shell pair           36
 max number of K2 of shell pair               1
 max number of CS2 of shell pair           5942
 max number of PS2 of shell pair           9876
 mem total for path MDJ                  415992
 -------------------------------------------------------
 Smallest overlap matrix eigenvalue = 1.10E-07
 Linear dependence detected in AO basis
 Number of orthogonalized atomic orbitals = 823
 Maximum deviation from orthogonality = 3.153E-10

 Scale SEOQF with 1.000000e-01/1.000000e-01/1.000000e-02

 Standard Electronic Orientation quadrupole field applied
 Nucleus-field energy     =     0.0000000375 hartrees
 Guess from superposition of atomic densities
 Warning:  Energy on first SCF cycle will be non-variational

 Q-Chem warning in module /opt/software/qchem/qchem-5.0.1/libgen/Atomic_PolEc.C, line 58:

 No atomic polarizability available.


 Q-Chem warning in module /opt/software/qchem/qchem-5.0.1/libgen/Atomic_PolEc.C, line 73:

 No atomic polarizability available.


 Q-Chem warning in module /opt/software/qchem/qchem-5.0.1/libgen/Atomic_PolEc.C, line 58:

 No atomic polarizability available.


 Q-Chem warning in module /opt/software/qchem/qchem-5.0.1/libgen/Atomic_PolEc.C, line 73:

 No atomic polarizability available.


 Q-Chem warning in module /opt/software/qchem/qchem-5.0.1/libgen/Atomic_PolEc.C, line 58:

 No atomic polarizability available.


 Q-Chem warning in module /opt/software/qchem/qchem-5.0.1/libgen/Atomic_PolEc.C, line 73:

 No atomic polarizability available.


 Q-Chem warning in module /opt/software/qchem/qchem-5.0.1/libgen/Atomic_PolEc.C, line 58:

 No atomic polarizability available.


 Q-Chem warning in module /opt/software/qchem/qchem-5.0.1/libgen/Atomic_PolEc.C, line 73:

 No atomic polarizability available.


 Q-Chem warning in module /opt/software/qchem/qchem-5.0.1/libgen/Atomic_PolEc.C, line 58:

 No atomic polarizability available.


 Q-Chem warning in module /opt/software/qchem/qchem-5.0.1/libgen/Atomic_PolEc.C, line 73:

 No atomic polarizability available.


 Q-Chem warning in module /opt/software/qchem/qchem-5.0.1/libgen/Atomic_PolEc.C, line 58:

 No atomic polarizability available.


 Q-Chem warning in module /opt/software/qchem/qchem-5.0.1/libgen/Atomic_PolEc.C, line 73:

 No atomic polarizability available.


 Q-Chem warning in module /opt/software/qchem/qchem-5.0.1/libgen/Atomic_PolEc.C, line 58:

 No atomic polarizability available.


 Q-Chem warning in module /opt/software/qchem/qchem-5.0.1/libgen/Atomic_PolEc.C, line 73:

 No atomic polarizability available.


 Q-Chem warning in module /opt/software/qchem/qchem-5.0.1/libgen/Atomic_PolEc.C, line 58:

 No atomic polarizability available.


 Q-Chem warning in module /opt/software/qchem/qchem-5.0.1/libgen/Atomic_PolEc.C, line 73:

 No atomic polarizability available.


 Q-Chem warning in module /opt/software/qchem/qchem-5.0.1/libgen/Atomic_PolEc.C, line 58:

 No atomic polarizability available.


 Q-Chem warning in module /opt/software/qchem/qchem-5.0.1/libgen/Atomic_PolEc.C, line 73:

 No atomic polarizability available.


 Q-Chem warning in module /opt/software/qchem/qchem-5.0.1/libgen/Atomic_PolEc.C, line 58:

 No atomic polarizability available.


 Q-Chem warning in module /opt/software/qchem/qchem-5.0.1/libgen/Atomic_PolEc.C, line 73:

 No atomic polarizability available.


 Q-Chem warning in module /opt/software/qchem/qchem-5.0.1/libgen/Atomic_PolEc.C, line 58:

 No atomic polarizability available.


 Q-Chem warning in module /opt/software/qchem/qchem-5.0.1/libgen/Atomic_PolEc.C, line 73:

 No atomic polarizability available.


 Q-Chem warning in module /opt/software/qchem/qchem-5.0.1/libgen/Atomic_PolEc.C, line 58:

 No atomic polarizability available.


 Q-Chem warning in module /opt/software/qchem/qchem-5.0.1/libgen/Atomic_PolEc.C, line 73:

 No atomic polarizability available.


 Q-Chem warning in module /opt/software/qchem/qchem-5.0.1/libgen/Atomic_PolEc.C, line 58:

 No atomic polarizability available.


 Q-Chem warning in module /opt/software/qchem/qchem-5.0.1/libgen/Atomic_PolEc.C, line 73:

 No atomic polarizability available.


 Q-Chem warning in module /opt/software/qchem/qchem-5.0.1/libgen/Atomic_PolEc.C, line 58:

 No atomic polarizability available.


 Q-Chem warning in module /opt/software/qchem/qchem-5.0.1/libgen/Atomic_PolEc.C, line 73:

 No atomic polarizability available.


 Q-Chem warning in module /opt/software/qchem/qchem-5.0.1/libgen/Atomic_PolEc.C, line 58:

 No atomic polarizability available.


 Q-Chem warning in module /opt/software/qchem/qchem-5.0.1/libgen/Atomic_PolEc.C, line 73:

 No atomic polarizability available.


 Q-Chem warning in module /opt/software/qchem/qchem-5.0.1/libgen/Atomic_PolEc.C, line 58:

 No atomic polarizability available.


 Q-Chem warning in module /opt/software/qchem/qchem-5.0.1/libgen/Atomic_PolEc.C, line 73:

 No atomic polarizability available.


 Q-Chem warning in module /opt/software/qchem/qchem-5.0.1/libgen/Atomic_PolEc.C, line 58:

 No atomic polarizability available.


 Q-Chem warning in module /opt/software/qchem/qchem-5.0.1/libgen/Atomic_PolEc.C, line 73:

 No atomic polarizability available.


 Q-Chem warning in module /opt/software/qchem/qchem-5.0.1/libgen/Atomic_PolEc.C, line 58:

 No atomic polarizability available.


 Q-Chem warning in module /opt/software/qchem/qchem-5.0.1/libgen/Atomic_PolEc.C, line 73:

 No atomic polarizability available.


 Q-Chem warning in module /opt/software/qchem/qchem-5.0.1/libgen/Atomic_PolEc.C, line 58:

 No atomic polarizability available.


 Q-Chem warning in module /opt/software/qchem/qchem-5.0.1/libgen/Atomic_PolEc.C, line 73:

 No atomic polarizability available.


 Q-Chem warning in module /opt/software/qchem/qchem-5.0.1/libgen/Atomic_PolEc.C, line 58:

 No atomic polarizability available.


 Q-Chem warning in module /opt/software/qchem/qchem-5.0.1/libgen/Atomic_PolEc.C, line 73:

 No atomic polarizability available.


 Q-Chem warning in module /opt/software/qchem/qchem-5.0.1/libgen/Atomic_PolEc.C, line 58:

 No atomic polarizability available.


 Q-Chem warning in module /opt/software/qchem/qchem-5.0.1/libgen/Atomic_PolEc.C, line 73:

 No atomic polarizability available.


 Q-Chem warning in module /opt/software/qchem/qchem-5.0.1/libgen/Atomic_PolEc.C, line 58:

 No atomic polarizability available.


 Q-Chem warning in module /opt/software/qchem/qchem-5.0.1/libgen/Atomic_PolEc.C, line 73:

 No atomic polarizability available.


 Q-Chem warning in module /opt/software/qchem/qchem-5.0.1/libgen/Atomic_PolEc.C, line 58:

 No atomic polarizability available.


 Q-Chem warning in module /opt/software/qchem/qchem-5.0.1/libgen/Atomic_PolEc.C, line 73:

 No atomic polarizability available.


 Q-Chem warning in module /opt/software/qchem/qchem-5.0.1/libgen/Atomic_PolEc.C, line 58:

 No atomic polarizability available.


 Q-Chem warning in module /opt/software/qchem/qchem-5.0.1/libgen/Atomic_PolEc.C, line 73:

 No atomic polarizability available.


 Q-Chem warning in module /opt/software/qchem/qchem-5.0.1/libgen/Atomic_PolEc.C, line 58:

 No atomic polarizability available.


 Q-Chem warning in module /opt/software/qchem/qchem-5.0.1/libgen/Atomic_PolEc.C, line 73:

 No atomic polarizability available.


 Q-Chem warning in module /opt/software/qchem/qchem-5.0.1/libgen/Atomic_PolEc.C, line 58:

 No atomic polarizability available.


 Q-Chem warning in module /opt/software/qchem/qchem-5.0.1/libgen/Atomic_PolEc.C, line 73:

 No atomic polarizability available.


 Q-Chem warning in module /opt/software/qchem/qchem-5.0.1/libgen/Atomic_PolEc.C, line 58:

 No atomic polarizability available.


 Q-Chem warning in module /opt/software/qchem/qchem-5.0.1/libgen/Atomic_PolEc.C, line 73:

 No atomic polarizability available.

 A restricted hybrid HF-DFT SCF calculation will be
 performed using Pulay DIIS extrapolation
 Exchange:     0.2000 Hartree-Fock + 0.0800 Slater + 0.7200 B88
 Correlation:  0.1900 VWN1RPA + 0.8100 LYP
 Using SG-1 standard quadrature grid
 Dispersion:   Grimme D3
 SCF converges when DIIS error is below 1.0E-08
 using 2 threads for integral computing
 -------------------------------------------------------
 OpenMP Integral computing Module                
 Release: version 1.0, May 2013, Q-Chem Inc. Pittsburgh 
 -------------------------------------------------------
 -------------------------------------------------------
 OpenMP BLAS3 based DFT computing Module                
 Release: version 1.0, May 2013, Q-Chem Inc. Pittsburgh 
 -------------------------------------------------------
 ---------------------------------------
  Cycle       Energy         DIIS Error
 ---------------------------------------
    1    -730.6790295491      1.59E-02
    2    -727.2448167885      2.05E-03
    3    -726.7183756269      3.59E-03
    4    -727.4909835557      8.54E-04
    5    -727.5410075705      2.09E-04
    6    -727.5432881434      8.48E-05
    7    -727.5437358655      1.68E-05
    8    -727.5437526926      5.94E-06
    9    -727.5437551204      1.85E-06
   10    -727.5437553142      8.28E-07
   11    -727.5437553594      2.26E-07
   12    -727.5437553625      9.54E-08
   13    -727.5437553631      2.36E-08
   14    -727.5437553631      5.50E-09 Convergence criterion met
 ---------------------------------------
 SCF time:  CPU 2482.21 s  wall 1258.01 s
 SCF   energy in the final basis set = -727.54375536
 Total energy in the final basis set = -727.54375536
 
 --------------------------------------------------------------
 
                    Orbital Energies (a.u.)
 --------------------------------------------------------------
 
 Alpha MOs
 -- Occupied --
-19.178 -19.177 -19.121 -19.119 -10.313 -10.312 -10.233 -10.232
-10.211 -10.208 -10.207 -10.193 -10.191 -10.190 -10.174  -1.122
 -1.115  -1.033  -1.030  -0.886  -0.801  -0.795  -0.747  -0.731
 -0.704  -0.655  -0.627  -0.581  -0.575  -0.550  -0.521  -0.514
 -0.492  -0.490  -0.483  -0.478  -0.472  -0.447  -0.435  -0.432
 -0.429  -0.412  -0.407  -0.396  -0.384  -0.378  -0.371  -0.365
 -0.364  -0.322  -0.314  -0.296  -0.294  -0.269  -0.264
 -- Virtual --
 -0.059  -0.039  -0.012  -0.006   0.002   0.007   0.010   0.016
  0.018   0.021   0.024   0.028   0.032   0.034   0.036   0.041
  0.043   0.049   0.052   0.052   0.053   0.058   0.062   0.065
  0.069   0.072   0.075   0.078   0.080   0.084   0.085   0.087
  0.088   0.093   0.098   0.100   0.104   0.105   0.107   0.108
  0.111   0.112   0.115   0.116   0.119   0.121   0.122   0.127
  0.129   0.130   0.132   0.134   0.136   0.138   0.139   0.142
  0.144   0.146   0.147   0.150   0.152   0.153   0.158   0.161
  0.162   0.163   0.166   0.171   0.171   0.173   0.174   0.178
  0.179   0.181   0.183   0.186   0.186   0.188   0.191   0.192
  0.195   0.198   0.199   0.203   0.207   0.212   0.213   0.214
  0.215   0.219   0.223   0.224   0.227   0.228   0.230   0.234
  0.236   0.237   0.239   0.242   0.243   0.245   0.251   0.253
  0.257   0.260   0.264   0.266   0.266   0.268   0.270   0.275
  0.276   0.281   0.283   0.285   0.287   0.289   0.292   0.294
  0.296   0.300   0.302   0.305   0.308   0.310   0.312   0.314
  0.315   0.319   0.324   0.325   0.330   0.332   0.335   0.338
  0.343   0.345   0.346   0.351   0.357   0.359   0.360   0.361
  0.365   0.367   0.370   0.376   0.377   0.381   0.382   0.386
  0.389   0.389   0.391   0.395   0.396   0.399   0.403   0.403
  0.406   0.412   0.415   0.417   0.424   0.427   0.429   0.434
  0.436   0.438   0.444   0.449   0.455   0.459   0.462   0.472
  0.473   0.483   0.485   0.494   0.496   0.499   0.511   0.513
  0.515   0.519   0.521   0.527   0.537   0.539   0.549   0.550
  0.555   0.557   0.563   0.567   0.577   0.578   0.580   0.586
  0.590   0.591   0.595   0.602   0.603   0.605   0.608   0.616
  0.621   0.626   0.630   0.632   0.641   0.641   0.647   0.648
  0.650   0.655   0.659   0.663   0.664   0.669   0.672   0.676
  0.678   0.680   0.684   0.686   0.694   0.696   0.697   0.703
  0.706   0.713   0.720   0.725   0.727   0.733   0.737   0.743
  0.748   0.751   0.754   0.762   0.763   0.770   0.774   0.779
  0.789   0.790   0.797   0.801   0.811   0.820   0.830   0.834
  0.845   0.852   0.862   0.863   0.872   0.872   0.881   0.900
  0.907   0.913   0.920   0.931   0.936   0.944   0.951   0.956
  0.959   0.971   0.979   0.980   0.993   0.999   1.002   1.010
  1.020   1.025   1.029   1.038   1.041   1.047   1.052   1.054
  1.064   1.067   1.075   1.083   1.086   1.093   1.099   1.102
  1.107   1.116   1.118   1.124   1.137   1.140   1.144   1.150
  1.156   1.163   1.168   1.192   1.198   1.205   1.207   1.208
  1.217   1.230   1.234   1.236   1.248   1.253   1.277   1.291
  1.291   1.302   1.311   1.317   1.321   1.327   1.337   1.350
  1.369   1.379   1.384   1.385   1.391   1.400   1.404   1.416
  1.428   1.434   1.446   1.454   1.463   1.467   1.477   1.482
  1.488   1.513   1.515   1.517   1.527   1.535   1.538   1.545
  1.554   1.557   1.568   1.571   1.577   1.579   1.586   1.589
  1.591   1.596   1.599   1.604   1.607   1.621   1.625   1.630
  1.637   1.652   1.666   1.684   1.696   1.699   1.708   1.711
  1.720   1.727   1.730   1.736   1.741   1.749   1.755   1.757
  1.763   1.767   1.773   1.781   1.787   1.791   1.795   1.802
  1.806   1.809   1.812   1.819   1.822   1.831   1.834   1.842
  1.852   1.853   1.856   1.868   1.873   1.881   1.883   1.887
  1.901   1.911   1.916   1.920   1.928   1.932   1.946   1.951
  1.953   1.965   1.973   1.988   1.994   1.996   2.000   2.008
  2.017   2.019   2.029   2.034   2.055   2.057   2.074   2.089
  2.093   2.095   2.104   2.117   2.122   2.124   2.125   2.142
  2.152   2.152   2.156   2.161   2.176   2.186   2.187   2.196
  2.220   2.228   2.238   2.245   2.273   2.284   2.304   2.323
  2.333   2.339   2.340   2.350   2.361   2.366   2.376   2.382
  2.391   2.402   2.407   2.414   2.440   2.442   2.445   2.452
  2.470   2.479   2.488   2.491   2.502   2.503   2.508   2.511
  2.516   2.526   2.536   2.539   2.540   2.545   2.566   2.569
  2.581   2.588   2.591   2.601   2.603   2.613   2.620   2.634
  2.642   2.652   2.655   2.660   2.676   2.680   2.685   2.693
  2.695   2.710   2.711   2.715   2.729   2.732   2.738   2.744
  2.748   2.764   2.768   2.770   2.783   2.787   2.791   2.791
  2.822   2.826   2.841   2.852   2.857   2.872   2.876   2.881
  2.888   2.898   2.903   2.907   2.912   2.923   2.925   2.946
  2.948   2.958   2.959   2.979   3.001   3.016   3.027   3.031
  3.038   3.043   3.052   3.052   3.055   3.069   3.076   3.095
  3.103   3.113   3.115   3.122   3.143   3.174   3.183   3.194
  3.207   3.216   3.222   3.223   3.233   3.237   3.248   3.253
  3.256   3.269   3.279   3.313   3.317   3.328   3.337   3.346
  3.365   3.379   3.385   3.391   3.404   3.407   3.426   3.441
  3.454   3.474   3.497   3.504   3.509   3.515   3.532   3.538
  3.543   3.554   3.557   3.558   3.582   3.591   3.611   3.625
  3.639   3.644   3.662   3.674   3.694   3.734   3.736   3.777
  3.783   3.794   3.824   3.827   3.853   3.856   3.867   3.919
  3.922   3.933   4.030   4.032   4.042   4.056   4.068   4.109
  4.149   4.154   4.155   4.225   4.270   4.329   4.359   4.371
  4.530   4.559   4.564   4.574   4.680   4.705   4.731   4.786
  4.789   4.799   4.810   4.840   4.845   4.853   4.857   4.891
  4.903   4.919   4.967   4.974   4.986   5.024   5.040   5.081
  5.100   5.146   5.173   5.199   5.200   5.235   5.268   5.310
  5.333   5.389   5.419   5.443   5.567   5.592   5.616   5.625
  5.700   5.715   5.869   5.897   6.121   6.132   7.047   7.142
  7.154   7.251   7.273   7.364   7.371   7.423   7.610   7.699
  7.710   7.783   7.787   7.792   7.793   7.811   7.815   7.822
  7.848   7.863   7.882   7.883   7.943   7.950   7.975   8.026
  8.055   8.066   8.088   8.346   8.493   8.621   8.992   9.692
  9.964   9.984   9.986  10.011  10.039  10.194  10.215  10.252
 10.266  10.321  13.531  13.577  13.608  13.669  13.706  13.716
 13.834  13.876  14.136  14.159  14.272  14.289  18.516  18.545
 18.660  18.721  23.580  23.846  23.856  23.925  23.931  23.931
 23.938  23.989  24.055  24.078  24.172  49.884  49.915  50.013
 50.029  69.784  69.962  69.978  70.000  70.008  70.055  70.074
 70.078  70.096  70.111  70.131 139.804 139.867 139.904 139.918
 --------------------------------------------------------------
 
          Ground-State Mulliken Net Atomic Charges

     Atom                 Charge (a.u.)
  ----------------------------------------
      1 C                     0.435077
      2 C                     1.486111
      3 C                    -0.501392
      4 C                    -1.174499
      5 O                     0.071137
      6 O                    -0.184972
      7 O                     0.044513
      8 O                    -0.115032
      9 C                    -0.220558
     10 C                    -0.265919
     11 C                    -0.564092
     12 C                    -0.146869
     13 C                    -0.472412
     14 C                     0.152071
     15 H                     0.169285
     16 H                     0.182236
     17 H                     0.129925
     18 H                     0.178043
     19 H                     0.168614
     20 H                     0.138973
     21 H                     0.178153
     22 H                     0.184743
     23 C                    -0.562007
     24 H                     0.172993
     25 H                     0.190292
     26 H                     0.148068
     27 H                     0.173376
     28 GH                    0.002649
     29 GH                    0.002639
     30 GH                   -0.002837
     31 GH                    0.000496
     32 GH                    0.000008
     33 GH                    0.000157
     34 GH                    0.000118
     35 GH                   -0.000008
     36 GH                   -0.000014
     37 GH                   -0.000039
     38 GH                   -0.001715
     39 GH                    0.000054
     40 GH                   -0.000429
     41 GH                   -0.001120
     42 GH                   -0.000771
     43 GH                    0.000004
     44 GH                   -0.000228
     45 GH                    0.000033
     46 GH                    0.004576
     47 GH                   -0.000007
     48 GH                    0.000120
     49 GH                   -0.000029
     50 GH                    0.000343
     51 GH                    0.000198
     52 GH                    0.000011
     53 GH                    0.000016
     54 GH                   -0.000082
  ----------------------------------------
  Sum of atomic charges =     0.000000

 -----------------------------------------------------------------
                    Cartesian Multipole Moments
 -----------------------------------------------------------------
    Charge (ESU x 10^10)
                 0.0000
    Dipole Moment (Debye)
         X       0.0064      Y       0.4772      Z       0.1991
       Tot       0.5171
    Quadrupole Moments (Debye-Ang)
        XX     -68.7290     XY      -0.6917     YY     -89.6829
        XZ      -0.0632     YZ      -9.3217     ZZ     -93.2913
    Octopole Moments (Debye-Ang^2)
       XXX       9.2081    XXY     -20.4724    XYY     -16.1738
       YYY     -61.8764    XXZ      -1.1834    XYZ     -18.8092
       YYZ      -0.3644    XZZ       6.0895    YZZ     -18.8790
       ZZZ      -3.0686
    Hexadecapole Moments (Debye-Ang^3)
      XXXX   -1886.6136   XXXY     113.8787   XXYY    -564.0702
      XYYY     111.9820   YYYY   -1605.7352   XXXZ      11.6755
      XXYZ     -27.1847   XYYZ       3.2782   YYYZ     -53.6872
      XXZZ    -407.0133   XYZZ      38.5275   YYZZ    -331.8845
      XZZZ      12.0420   YZZZ       2.4903   ZZZZ    -319.2254
 -----------------------------------------------------------------
Archival summary:
1\1\vega03.cac.cornell.edu\SP\ProcedureUnspecified\BasisUnspecified\41112h27\jj585\MonApr216:39:122018MonApr216:39:122018\0\\#,ProcedureUnspecified,BasisUnspecified,\\0,1\O\C,1,1.3512\O,2,1.2069,1,123.501\C,1,1.43752,2,116.164,3,4.8931,0\H,4,1.08772,1,105.376,2,179.706,0\H,4,1.09086,1,110.507,2,-60.681,0\H,4,1.09163,1,110.367,2,60.0909,0\C,2,1.49626,1,110.928,3,178.057,0\C,8,1.40634,2,119.012,1,-130.615,0\C,9,1.39616,8,117.536,2,177.857,0\H,10,1.08475,9,118.991,8,-179.6,0\C,10,1.38856,9,121.629,8,0.183585,0\H,12,1.08495,10,119.453,9,179.671,0\C,12,1.3959,10,121.575,9,-0.129654,0\H,14,1.032,12,121.26,10,-179.84,0\C,14,1.40604,12,117.481,10,0.160349,0\C,16,1.49803,14,118.266,12,177.84,0\O,17,1.20668,16,125.302,14,50.5403,0\O,17,1.35063,16,111.128,14,-126.75,0\C,19,1.43835,17,115.94,16,-178.519,0\H,20,1.08762,19,105.403,17,179.104,0\H,20,1.09103,19,110.475,17,-61.3232,0\H,20,1.0915,19,110.399,17,59.3962,0\C,9,1.50976,8,122.848,2,-1.37569,0\H,24,1.09144,9,110.135,8,171.975,0\H,24,1.09156,9,111.21,8,-67.4939,0\H,24,1.09291,9,111.796,8,51.7903,0\Gh,21,3.7866,20,153.676,19,11.3627,0\Gh,28,1.08772,21,151.529,20,19.737,0\Gh,29,1.09086,28,110.694,21,-102.73,0\Gh,29,1.09163,28,110.757,21,136.116,0\Gh,29,1.43752,28,105.376,21,16.7603,0\Gh,32,1.3512,29,116.164,28,179.706,0\Gh,33,1.2069,32,123.501,29,4.8931,0\Gh,33,1.49626,32,110.928,29,-177.05,0\Gh,35,1.40634,33,119.012,32,-130.615,0\Gh,36,1.39616,35,117.536,33,177.857,0\Gh,37,1.08475,36,118.991,35,-179.6,0\Gh,37,1.38856,36,121.629,35,0.183585,0\Gh,39,1.08495,37,119.453,36,179.671,0\Gh,39,1.3959,37,121.575,36,-0.129654,0\Gh,41,1.032,39,121.26,37,-179.84,0\Gh,41,1.40604,39,117.481,37,0.160349,0\Gh,43,1.49803,41,118.266,39,177.84,0\Gh,44,1.20668,43,125.302,41,50.5403,0\Gh,44,1.35063,43,111.128,41,-126.75,0\Gh,46,1.43835,44,115.94,43,-178.519,0\Gh,47,1.08762,46,105.403,44,179.104,0\Gh,47,1.09103,46,110.475,44,-61.3232,0\Gh,47,1.0915,46,110.399,44,59.3962,0\Gh,36,1.50976,35,122.848,33,-1.37569,0\Gh,51,1.09144,36,110.135,35,171.975,0\Gh,51,1.09156,36,111.21,35,-67.4939,0\Gh,51,1.09291,36,111.796,35,51.7903,0\\\@

 Total job time:  1261.55s(wall), 2486.21s(cpu) 
 Mon Apr  2 16:39:12 2018

        *************************************************************
        *                                                           *
        *  Thank you very much for using Q-Chem.  Have a nice day.  *
        *                                                           *
        *************************************************************


0 sent ACK to 0 
now end server 0 ... 
