mFile = /opt/software/qchem/qchem-5.0.1//bin/mpi/machines
Process 0 of 1 is on vega03.cac.cornell.edu - thread support 0
initial socket setup ...start
initial socket setup ...done 
now start server 0 ... 
vega03 10.84.3
Q-Chem Developer Version! Running on 10.84.3.*
                  Welcome to Q-Chem
     A Quantum Leap Into The Future Of Chemistry


 Q-Chem 5.0, Q-Chem, Inc., Pleasanton, CA (2017)

 Yihan Shao,  Zhengting Gan,  E. Epifanovsky,  A. T. B. Gilbert,  M. Wormit,  
 J. Kussmann,  A. W. Lange,  A. Behn,  Jia Deng,  Xintian Feng,  D. Ghosh,  
 M. Goldey,  P. R. Horn,  L. D. Jacobson,  I. Kaliman,  T. Kus,  A. Landau,  
 Jie Liu,  E. I. Proynov,  R. M. Richard,  R. P. Steele,  E. J. Sundstrom,  
 H. L. Woodcock III,  P. M. Zimmerman,  D. Zuev,  B. Albrecht,  E. Alguire,  
 S. A. Baeppler,  Z. Benda,  Y. A. Bernard,  E. J. Berquist,  K. B. Bravaya,  
 D. Casanova,  Chun-Min Chang,  Yunqing Chen,  A. Chien,  K. D. Closser,  
 M. P. Coons,  S. Dasgupta,  M. Diedenhofen,  Hainam Do,  R. G. Edgar,  
 Po-Tung Fang,  S. Fatehi,  Qingguo Feng,  Qinghui Ge,  A. Ghysels,  
 J. Gomes,  J. Gonthier,  A. Gunina,  M. W. D. Hanson-Heine,  
 P. H. P. Harbach,  A. W. Hauser,  J. E. Herr,  E. G. Hohenstein,  
 Z. C. Holden,  Kerwin Hui,  T.-C. Jagau,  Hyunjun Ji,  B. Kaduk,  
 K. Khistyaev,  Jaehoon Kim,  P. Klunzinger,  K. Koh,  D. Kosenkov,  
 T. Kowalczyk,  C. M. Krauter,  A. Kunitsa,  Ka Un Lao,  A. Laurent,  
 K. V. Lawler,  Joonho Lee,  D. Lefrancois,  S. Lehtola,  D. S. Levine,  
 Yi-Pei Li,  You-Sheng Lin,  Fenglai Liu,  E. Livshits,  A. Luenser,  
 P. Manohar,  E. Mansoor,  S. F. Manzer,  Shan-Ping Mao,  Yuezhi Mao,  
 N. Mardirossian,  A. V. Marenich,  L. A. Martinez-Martinez,  S. A. Maurer,  
 N. J. Mayhall,  S. C. McKenzie,  J.-M. Mewes,  A. F. Morrison,  K. Nanda,  
 T. S. Nguyen-Beck,  R. Olivares-Amaya,  J. A. Parkhill,  T. M. Perrine,  
 F. Plasser,  S. Prager,  A. Prociuk,  D. R. Rehn,  F. Rob,  M. Schneider,  
 N. Sergueev,  S. M. Sharada,  S. Sharma,  D. W. Small,  T. Stauch,  
 T. Stein,  Yu-Chuan Su,  A. J. W. Thom,  T. Tsuchimochi,  L. Vogt,  
 O. Vydrov,  M. A. Watson,  J. Wenzel,  M. de Wergifosse,  T. A. Wesolowski,  
 A. White,  J. Witte,  A. Yamada,  Jun Yang,  K. Yao,  S. Yeganeh,  
 S. R. Yost,  Zhi-Qiang You,  A. Zech,  Igor Ying Zhang,  Xing Zhang,  
 Yan Zhao,  Ying Zhu,  B. R. Brooks,  G. K. L. Chan,  C. J. Cramer,  
 M. S. Gordon,  W. J. Hehre,  A. Klamt,  M. W. Schmidt,  C. D. Sherrill,  
 D. G. Truhlar,  A. Aspuru-Guzik,  R. Baer,  A. T. Bell,  N. A. Besley,  
 Jeng-Da Chai,  A. Dreuw,  B. D. Dunietz,  T. R. Furlani,  Chao-Ping Hsu,  
 Yousung Jung,  Jing Kong,  D. S. Lambrecht,  WanZhen Liang,  C. Ochsenfeld,  
 V. A. Rassolov,  L. V. Slipchenko,  J. E. Subotnik,  T. Van Voorhis,  
 J. M. Herbert,  A. I. Krylov,  P. M. W. Gill,  M. Head-Gordon

 Contributors to earlier versions of Q-Chem not listed above: 
 R. D. Adamson,  B. Austin,  J. Baker,  G. J. O. Beran,  K. Brandhorst,  
 S. T. Brown,  E. F. C. Byrd,  A. K. Chakraborty,  C.-L. Cheng,  
 Siu Hung Chien,  D. M. Chipman,  D. L. Crittenden,  H. Dachsel,  
 R. A. DiStasio Jr.,  R. J. Doerksen,  A. D. Dutoi,  L. Fusti-Molnar,  
 W. A. Goddard III,  A. Golubeva-Zadorozhnaya,  S. R. Gwaltney,  G. Hawkins,  
 A. Heyden,  S. Hirata,  G. Kedziora,  F. J. Keil,  C. Kelley,  Jihan Kim,  
 R. A. King,  R. Z. Khaliullin,  P. P. Korambath,  W. Kurlancheek,  
 A. M. Lee,  M. S. Lee,  S. V. Levchenko,  Ching Yeh Lin,  D. Liotard,  
 R. C. Lochan,  I. Lotan,  P. E. Maslen,  N. Nair,  D. P. O'Neill,  
 D. Neuhauser,  E. Neuscamman,  C. M. Oana,  R. Olson,  B. Peters,  
 R. Peverati,  P. A. Pieniazek,  Y. M. Rhee,  J. Ritchie,  M. A. Rohrdanz,  
 E. Rosta,  N. J. Russ,  H. F. Schaefer III,  N. E. Schultz,  N. Shenvi,  
 A. C. Simmonett,  A. Sodt,  D. Stuck,  K. S. Thanthiriwatte,  V. Vanovschi,  
 Tao Wang,  A. Warshel,  C. F. Williams,  Q. Wu,  X. Xu,  W. Zhang

 Please cite Q-Chem as follows:
 Y. Shao et al., Mol. Phys. 113, 184-215 (2015)
 DOI: 10.1080/00268976.2014.952696

 Q-Chem 5.0.1 for Intel X86 EM64T Linux

 Parts of Q-Chem use Armadillo 5.200.1 (Boston Tea Smuggler).
 http://arma.sourceforge.net/

 Q-Chem begins on Mon Apr 16 23:35:30 2018  

Host: vega03.cac.cornell.edu
0

     Scratch files written to /scratch/jj585/vdw/0100_distance_5.900_01.save//
 Parallel job on  1  processors

Checking the input file for inconsistencies... 	...done.

--------------------------------------------------------------
User input:
--------------------------------------------------------------
$molecule
0  1
C        +4.48943000        +3.14792000        +4.07625000
C        +4.89299000        +1.68951000        +4.48901000
C        +5.59681000        +3.50278000        +3.05539000
C        +6.89743000        +3.82004000        +3.81885000
C        +7.31009000        +2.39655000        +4.29330000
C        +6.21096000        +1.51005000        +3.64292000
O        +5.89513000        +2.23967000        +2.44654000
H        +7.63907000        +4.24086000        +3.13835000
H        +6.74909000        +4.52792000        +4.63681000
H        +8.28855000        +2.11298000        +3.90191000
H        +7.34032000        +2.29042000        +5.37958000
H        +5.29943000        +4.30247000        +2.40966000
C        +6.62123000        +0.09037000        +3.32218000
H        +7.52416000        +0.10109000        +2.74815000
H        +5.84624000        -0.38628000        +2.75907000
H        +6.78360000        -0.44825000        +4.23236000
H        +3.52000000        +3.17115000        +3.62395000
H        +4.42225000        +3.82921000        +4.89858000
H        +5.08366000        +1.61399000        +5.53917000
H        +4.14149000        +0.94948000        +4.30873000
@C        +0.22270000        +1.04488000        +0.58595000
@C        +0.62626000        -0.41353000        +0.99871000
@C        +1.33008000        +1.39974000        -0.43491000
@C        +2.63070000        +1.71700000        +0.32855000
@C        +3.04336000        +0.29351000        +0.80300000
@C        +1.94423000        -0.59299000        +0.15262000
@O        +1.62840000        +0.13663000        -1.04376000
@H        +3.37234000        +2.13782000        -0.35195000
@H        +2.48236000        +2.42488000        +1.14651000
@H        +4.02182000        +0.00994000        +0.41161000
@H        +3.07359000        +0.18738000        +1.88928000
@H        +1.03270000        +2.19943000        -1.08064000
@C        +2.35450000        -2.01267000        -0.16812000
@H        +3.25743000        -2.00195000        -0.74215000
@H        +1.57951000        -2.48932000        -0.73123000
@H        +2.51687000        -2.55129000        +0.74206000
@H        -0.74673000        +1.06811000        +0.13365000
@H        +0.15552000        +1.72617000        +1.40828000
@H        +0.81693000        -0.48905000        +2.04887000
@H        -0.12524000        -1.15356000        +0.81843000
$end

$rem
JOBTYPE                   SP
METHOD                    B3LYP
DFT_D                     d3_op
BASIS                     6-311++G(d,p)
SYMMETRY                  False
THRESH                    12
SCF_CONVERGENCE           8
MAX_SUB_FILE_NUM          128
MEM_STATIC                400
MEM_TOTAL                 4000
$end
--------------------------------------------------------------
 Adding empirical dispersion correction 
 ----------------------------------------------------------------
 Doing -D3(op) with
 s6 =   1.00000
 s8 =   0.78311
 a1 =   0.30000
 a2 =   4.25000
 n  =  10.00000
 -D3 energy without 3body term =     -0.0174576512 hartrees
 ----------------------------------------------------------------
             Standard Nuclear Orientation (Angstroms)
    I     Atom           X                Y                Z
 ----------------------------------------------------------------
    1      C       4.4894300000     3.1479200000     4.0762500000
    2      C       4.8929900000     1.6895100000     4.4890100000
    3      C       5.5968100000     3.5027800000     3.0553900000
    4      C       6.8974300000     3.8200400000     3.8188500000
    5      C       7.3100900000     2.3965500000     4.2933000000
    6      C       6.2109600000     1.5100500000     3.6429200000
    7      O       5.8951300000     2.2396700000     2.4465400000
    8      H       7.6390700000     4.2408600000     3.1383500000
    9      H       6.7490900000     4.5279200000     4.6368100000
   10      H       8.2885500000     2.1129800000     3.9019100000
   11      H       7.3403200000     2.2904200000     5.3795800000
   12      H       5.2994300000     4.3024700000     2.4096600000
   13      C       6.6212300000     0.0903700000     3.3221800000
   14      H       7.5241600000     0.1010900000     2.7481500000
   15      H       5.8462400000    -0.3862800000     2.7590700000
   16      H       6.7836000000    -0.4482500000     4.2323600000
   17      H       3.5200000000     3.1711500000     3.6239500000
   18      H       4.4222500000     3.8292100000     4.8985800000
   19      H       5.0836600000     1.6139900000     5.5391700000
   20      H       4.1414900000     0.9494800000     4.3087300000
   21      GH      0.2227000000     1.0448800000     0.5859500000
   22      GH      0.6262600000    -0.4135300000     0.9987100000
   23      GH      1.3300800000     1.3997400000    -0.4349100000
   24      GH      2.6307000000     1.7170000000     0.3285500000
   25      GH      3.0433600000     0.2935100000     0.8030000000
   26      GH      1.9442300000    -0.5929900000     0.1526200000
   27      GH      1.6284000000     0.1366300000    -1.0437600000
   28      GH      3.3723400000     2.1378200000    -0.3519500000
   29      GH      2.4823600000     2.4248800000     1.1465100000
   30      GH      4.0218200000     0.0099400000     0.4116100000
   31      GH      3.0735900000     0.1873800000     1.8892800000
   32      GH      1.0327000000     2.1994300000    -1.0806400000
   33      GH      2.3545000000    -2.0126700000    -0.1681200000
   34      GH      3.2574300000    -2.0019500000    -0.7421500000
   35      GH      1.5795100000    -2.4893200000    -0.7312300000
   36      GH      2.5168700000    -2.5512900000     0.7420600000
   37      GH     -0.7467300000     1.0681100000     0.1336500000
   38      GH      0.1555200000     1.7261700000     1.4082800000
   39      GH      0.8169300000    -0.4890500000     2.0488700000
   40      GH     -0.1252400000    -1.1535600000     0.8184300000
 ----------------------------------------------------------------
 Nuclear Repulsion Energy =   415.4951797453 hartrees
 There are       31 alpha and       31 beta electrons
 Requested basis set is 6-311++G(d,p)
 There are 216 shells and 520 basis functions

 Total QAlloc Memory Limit   4000 MB
 Mega-Array Size       392 MB
 MEM_STATIC part       400 MB
 A cutoff of  1.0D-12 yielded  18648 shell pairs
 There are    106069 function pairs (    112067 Cartesian)
 
 -------------------------------------------------------
 OpenMP Integral Computing Module                       
 Release: version 1.0, May 2013, Q-Chem Inc. Pittsburgh 
 -------------------------------------------------------
 Integral Job Info:
 Integral job number is                      11
 Integral operator is                         1
 short-range coefficients                     0
 long-range coefficients              100000000
 Omega coefficients                           0
 if combine SR and LR in K                    0
 Integral screening is                        0
 Integral computing path is                   2
 max size of driver memory is            800000
 size of driver memory is                593474
 size of scratch memory is              2361544
 max col of scratch BK array               1296
 max len of scratch array in speh3          155
 max len of scratch index in speh4           18
 max int batch size is                      520
 min int batch size is                       52
 fixed nKL is                                52
 max L of basis functions is                  2
 order of int derivative is                   0
 number of shells is                        216
 number of basis is                         536
 number of cartesian basis is               536
 number of contracted shell pairs         18648
 number of primitive shell pairs          39369
 maxK2 (contraction) of shell pair           36
 max number of K2 of shell pair               1
 max number of CS2 of shell pair           3449
 max number of PS2 of shell pair           5802
 mem total for path MDJ                  148050
 -------------------------------------------------------
 Smallest overlap matrix eigenvalue = 1.32E-06

 Scale SEOQF with 1.000000e-02/1.000000e-01/1.000000e-02

 Standard Electronic Orientation quadrupole field applied
 Nucleus-field energy     =     0.0000000290 hartrees
 Guess from superposition of atomic densities
 Warning:  Energy on first SCF cycle will be non-variational

 Q-Chem warning in module /opt/software/qchem/qchem-5.0.1/libgen/Atomic_PolEc.C, line 58:

 No atomic polarizability available.


 Q-Chem warning in module /opt/software/qchem/qchem-5.0.1/libgen/Atomic_PolEc.C, line 73:

 No atomic polarizability available.


 Q-Chem warning in module /opt/software/qchem/qchem-5.0.1/libgen/Atomic_PolEc.C, line 58:

 No atomic polarizability available.


 Q-Chem warning in module /opt/software/qchem/qchem-5.0.1/libgen/Atomic_PolEc.C, line 73:

 No atomic polarizability available.


 Q-Chem warning in module /opt/software/qchem/qchem-5.0.1/libgen/Atomic_PolEc.C, line 58:

 No atomic polarizability available.


 Q-Chem warning in module /opt/software/qchem/qchem-5.0.1/libgen/Atomic_PolEc.C, line 73:

 No atomic polarizability available.


 Q-Chem warning in module /opt/software/qchem/qchem-5.0.1/libgen/Atomic_PolEc.C, line 58:

 No atomic polarizability available.


 Q-Chem warning in module /opt/software/qchem/qchem-5.0.1/libgen/Atomic_PolEc.C, line 73:

 No atomic polarizability available.


 Q-Chem warning in module /opt/software/qchem/qchem-5.0.1/libgen/Atomic_PolEc.C, line 58:

 No atomic polarizability available.


 Q-Chem warning in module /opt/software/qchem/qchem-5.0.1/libgen/Atomic_PolEc.C, line 73:

 No atomic polarizability available.


 Q-Chem warning in module /opt/software/qchem/qchem-5.0.1/libgen/Atomic_PolEc.C, line 58:

 No atomic polarizability available.


 Q-Chem warning in module /opt/software/qchem/qchem-5.0.1/libgen/Atomic_PolEc.C, line 73:

 No atomic polarizability available.


 Q-Chem warning in module /opt/software/qchem/qchem-5.0.1/libgen/Atomic_PolEc.C, line 58:

 No atomic polarizability available.


 Q-Chem warning in module /opt/software/qchem/qchem-5.0.1/libgen/Atomic_PolEc.C, line 73:

 No atomic polarizability available.


 Q-Chem warning in module /opt/software/qchem/qchem-5.0.1/libgen/Atomic_PolEc.C, line 58:

 No atomic polarizability available.


 Q-Chem warning in module /opt/software/qchem/qchem-5.0.1/libgen/Atomic_PolEc.C, line 73:

 No atomic polarizability available.


 Q-Chem warning in module /opt/software/qchem/qchem-5.0.1/libgen/Atomic_PolEc.C, line 58:

 No atomic polarizability available.


 Q-Chem warning in module /opt/software/qchem/qchem-5.0.1/libgen/Atomic_PolEc.C, line 73:

 No atomic polarizability available.


 Q-Chem warning in module /opt/software/qchem/qchem-5.0.1/libgen/Atomic_PolEc.C, line 58:

 No atomic polarizability available.


 Q-Chem warning in module /opt/software/qchem/qchem-5.0.1/libgen/Atomic_PolEc.C, line 73:

 No atomic polarizability available.


 Q-Chem warning in module /opt/software/qchem/qchem-5.0.1/libgen/Atomic_PolEc.C, line 58:

 No atomic polarizability available.


 Q-Chem warning in module /opt/software/qchem/qchem-5.0.1/libgen/Atomic_PolEc.C, line 73:

 No atomic polarizability available.


 Q-Chem warning in module /opt/software/qchem/qchem-5.0.1/libgen/Atomic_PolEc.C, line 58:

 No atomic polarizability available.


 Q-Chem warning in module /opt/software/qchem/qchem-5.0.1/libgen/Atomic_PolEc.C, line 73:

 No atomic polarizability available.


 Q-Chem warning in module /opt/software/qchem/qchem-5.0.1/libgen/Atomic_PolEc.C, line 58:

 No atomic polarizability available.


 Q-Chem warning in module /opt/software/qchem/qchem-5.0.1/libgen/Atomic_PolEc.C, line 73:

 No atomic polarizability available.


 Q-Chem warning in module /opt/software/qchem/qchem-5.0.1/libgen/Atomic_PolEc.C, line 58:

 No atomic polarizability available.


 Q-Chem warning in module /opt/software/qchem/qchem-5.0.1/libgen/Atomic_PolEc.C, line 73:

 No atomic polarizability available.


 Q-Chem warning in module /opt/software/qchem/qchem-5.0.1/libgen/Atomic_PolEc.C, line 58:

 No atomic polarizability available.


 Q-Chem warning in module /opt/software/qchem/qchem-5.0.1/libgen/Atomic_PolEc.C, line 73:

 No atomic polarizability available.


 Q-Chem warning in module /opt/software/qchem/qchem-5.0.1/libgen/Atomic_PolEc.C, line 58:

 No atomic polarizability available.


 Q-Chem warning in module /opt/software/qchem/qchem-5.0.1/libgen/Atomic_PolEc.C, line 73:

 No atomic polarizability available.


 Q-Chem warning in module /opt/software/qchem/qchem-5.0.1/libgen/Atomic_PolEc.C, line 58:

 No atomic polarizability available.


 Q-Chem warning in module /opt/software/qchem/qchem-5.0.1/libgen/Atomic_PolEc.C, line 73:

 No atomic polarizability available.


 Q-Chem warning in module /opt/software/qchem/qchem-5.0.1/libgen/Atomic_PolEc.C, line 58:

 No atomic polarizability available.


 Q-Chem warning in module /opt/software/qchem/qchem-5.0.1/libgen/Atomic_PolEc.C, line 73:

 No atomic polarizability available.


 Q-Chem warning in module /opt/software/qchem/qchem-5.0.1/libgen/Atomic_PolEc.C, line 58:

 No atomic polarizability available.


 Q-Chem warning in module /opt/software/qchem/qchem-5.0.1/libgen/Atomic_PolEc.C, line 73:

 No atomic polarizability available.


 Q-Chem warning in module /opt/software/qchem/qchem-5.0.1/libgen/Atomic_PolEc.C, line 58:

 No atomic polarizability available.


 Q-Chem warning in module /opt/software/qchem/qchem-5.0.1/libgen/Atomic_PolEc.C, line 73:

 No atomic polarizability available.

 A restricted hybrid HF-DFT SCF calculation will be
 performed using Pulay DIIS extrapolation
 Exchange:     0.2000 Hartree-Fock + 0.0800 Slater + 0.7200 B88
 Correlation:  0.1900 VWN1RPA + 0.8100 LYP
 Using SG-1 standard quadrature grid
 Dispersion:   Grimme D3
 SCF converges when DIIS error is below 1.0E-08
 using 4 threads for integral computing
 -------------------------------------------------------
 OpenMP Integral computing Module                
 Release: version 1.0, May 2013, Q-Chem Inc. Pittsburgh 
 -------------------------------------------------------
 -------------------------------------------------------
 OpenMP BLAS3 based DFT computing Module                
 Release: version 1.0, May 2013, Q-Chem Inc. Pittsburgh 
 -------------------------------------------------------
 ---------------------------------------
  Cycle       Energy         DIIS Error
 ---------------------------------------
    1    -350.9522315462      1.91E-02
    2    -349.1119747588      2.32E-03
    3    -349.0358489197      2.80E-03
    4    -349.2917914390      4.08E-04
    5    -349.2955569703      1.60E-04
    6    -349.2961636007      4.47E-05
    7    -349.2962065646      1.68E-05
    8    -349.2962146333      1.58E-06
    9    -349.2962147030      7.37E-07
   10    -349.2962147200      1.38E-07
   11    -349.2962147206      2.82E-08
   12    -349.2962147206      1.05E-08
   13    -349.2962147206      2.61E-09 Convergence criterion met
 ---------------------------------------
 SCF time:  CPU 771.83 s  wall 193.98 s
 SCF   energy in the final basis set = -349.29621472
 Total energy in the final basis set = -349.29621472
 
 --------------------------------------------------------------
 
                    Orbital Energies (a.u.)
 --------------------------------------------------------------
 
 Alpha MOs
 -- Occupied --
-19.119 -10.225 -10.216 -10.166 -10.166 -10.163 -10.162 -10.154
 -1.049  -0.798  -0.775  -0.748  -0.684  -0.615  -0.575  -0.556
 -0.503  -0.482  -0.465  -0.441  -0.418  -0.405  -0.392  -0.377
 -0.360  -0.348  -0.344  -0.336  -0.316  -0.301  -0.262
 -- Virtual --
 -0.010   0.003   0.008   0.012   0.026   0.027   0.029   0.033
  0.038   0.042   0.047   0.051   0.059   0.061   0.065   0.068
  0.071   0.077   0.080   0.082   0.085   0.090   0.095   0.097
  0.102   0.107   0.109   0.113   0.117   0.119   0.122   0.122
  0.124   0.129   0.132   0.136   0.140   0.142   0.143   0.147
  0.149   0.151   0.153   0.158   0.161   0.167   0.168   0.170
  0.170   0.172   0.175   0.178   0.182   0.185   0.187   0.189
  0.191   0.197   0.200   0.201   0.206   0.209   0.212   0.214
  0.221   0.222   0.223   0.228   0.230   0.235   0.238   0.241
  0.245   0.246   0.248   0.251   0.256   0.258   0.262   0.264
  0.266   0.274   0.278   0.286   0.293   0.295   0.300   0.303
  0.309   0.315   0.323   0.330   0.331   0.341   0.345   0.352
  0.359   0.360   0.364   0.368   0.373   0.379   0.382   0.388
  0.390   0.395   0.400   0.407   0.411   0.414   0.421   0.427
  0.431   0.442   0.448   0.455   0.457   0.464   0.469   0.481
  0.486   0.491   0.503   0.507   0.519   0.529   0.539   0.543
  0.551   0.563   0.569   0.571   0.575   0.584   0.591   0.598
  0.607   0.616   0.621   0.626   0.632   0.640   0.645   0.649
  0.662   0.666   0.668   0.670   0.676   0.682   0.686   0.689
  0.694   0.703   0.708   0.716   0.723   0.731   0.736   0.742
  0.753   0.757   0.764   0.765   0.778   0.781   0.783   0.785
  0.795   0.799   0.801   0.811   0.822   0.836   0.848   0.861
  0.868   0.881   0.898   0.911   0.922   0.936   0.947   0.958
  0.995   1.001   1.009   1.019   1.030   1.048   1.061   1.079
  1.092   1.129   1.133   1.144   1.161   1.177   1.187   1.196
  1.203   1.209   1.229   1.231   1.243   1.258   1.263   1.268
  1.286   1.302   1.343   1.346   1.362   1.385   1.434   1.459
  1.467   1.476   1.494   1.503   1.513   1.517   1.526   1.530
  1.541   1.559   1.569   1.583   1.591   1.592   1.598   1.608
  1.621   1.632   1.646   1.655   1.669   1.679   1.682   1.692
  1.701   1.704   1.712   1.718   1.735   1.739   1.752   1.759
  1.765   1.777   1.781   1.791   1.793   1.802   1.802   1.810
  1.821   1.838   1.846   1.850   1.858   1.865   1.874   1.891
  1.902   1.905   1.913   1.918   1.923   1.932   1.934   1.951
  1.966   1.976   1.982   1.994   2.002   2.004   2.023   2.031
  2.041   2.044   2.066   2.096   2.104   2.110   2.121   2.133
  2.144   2.151   2.157   2.177   2.194   2.211   2.224   2.234
  2.246   2.249   2.271   2.284   2.297   2.320   2.341   2.344
  2.364   2.371   2.386   2.396   2.403   2.424   2.447   2.455
  2.461   2.463   2.474   2.479   2.491   2.493   2.511   2.518
  2.522   2.532   2.544   2.545   2.553   2.560   2.566   2.589
  2.603   2.624   2.630   2.642   2.649   2.658   2.677   2.684
  2.698   2.726   2.735   2.740   2.746   2.766   2.777   2.778
  2.794   2.799   2.815   2.820   2.838   2.843   2.862   2.869
  2.879   2.905   2.911   2.928   2.935   2.947   2.956   2.975
  2.977   2.999   3.015   3.033   3.043   3.053   3.067   3.088
  3.109   3.122   3.147   3.150   3.185   3.192   3.204   3.244
  3.258   3.273   3.278   3.302   3.316   3.326   3.329   3.345
  3.392   3.411   3.481   3.489   3.521   3.551   3.562   3.570
  3.590   3.594   3.614   3.621   3.652   3.673   3.691   3.696
  3.749   3.786   3.827   3.863   3.877   3.889   3.891   3.931
  3.948   3.974   3.978   4.035   4.055   4.061   4.100   4.141
  4.187   4.198   4.268   4.436   4.485   4.589   4.649   4.706
  4.810   4.835   4.858   4.875   4.897   4.915   4.926   4.987
  5.011   5.068   5.118   5.167   5.224   5.384   5.523   5.661
  5.739   7.369   7.413   7.493   7.531   7.602   7.631   7.677
  7.679   7.726   7.816   7.842   7.938   7.978   7.998   8.178
  8.311   8.326   8.407   8.455   8.697   8.774   9.907   9.919
  9.994  10.047  10.053  10.066  10.132  13.601  13.910  14.041
 18.662  23.795  23.852  23.953  23.992  24.012  24.028  24.067
 49.973  69.836  69.884  69.946  69.953  70.017  70.072  70.123
139.673
 --------------------------------------------------------------
 
          Ground-State Mulliken Net Atomic Charges

     Atom                 Charge (a.u.)
  ----------------------------------------
      1 C                    -0.417593
      2 C                    -0.374457
      3 C                     0.205495
      4 C                    -0.664725
      5 C                    -0.416215
      6 C                     0.276037
      7 O                    -0.053565
      8 H                     0.164927
      9 H                     0.126689
     10 H                     0.152361
     11 H                     0.140623
     12 H                     0.232086
     13 C                    -0.355176
     14 H                     0.153739
     15 H                     0.143560
     16 H                     0.137918
     17 H                     0.125419
     18 H                     0.151135
     19 H                     0.147799
     20 H                     0.159427
     21 GH                   -0.001359
     22 GH                    0.001931
     23 GH                   -0.012509
     24 GH                    0.016808
     25 GH                   -0.024099
     26 GH                   -0.013462
     27 GH                    0.000107
     28 GH                    0.002737
     29 GH                   -0.003627
     30 GH                    0.006717
     31 GH                   -0.009635
     32 GH                   -0.000300
     33 GH                   -0.001023
     34 GH                   -0.000467
     35 GH                   -0.000011
     36 GH                    0.000868
     37 GH                   -0.000047
     38 GH                    0.000807
     39 GH                    0.001054
     40 GH                    0.000025
  ----------------------------------------
  Sum of atomic charges =    -0.000000

 -----------------------------------------------------------------
                    Cartesian Multipole Moments
 -----------------------------------------------------------------
    Charge (ESU x 10^10)
                -0.0000
    Dipole Moment (Debye)
         X      -0.0066      Y       0.4044      Z       1.6168
       Tot       1.6666
    Quadrupole Moments (Debye-Ang)
        XX     -49.8426     XY       1.6377     YY     -45.9135
        XZ       9.4165     YZ       4.1347     ZZ     -41.3732
    Octopole Moments (Debye-Ang^2)
       XXX    -897.3295    XXY    -108.7807    XYY    -280.9177
       YYY    -318.5501    XXZ    -131.4053    XYZ      21.7085
       YYZ    -168.4286    XZZ    -250.0111    YZZ     -94.4632
       ZZZ    -517.9050
    Hexadecapole Moments (Debye-Ang^3)
      XXXX  -11156.4171   XXXY   -2024.5601   XXYY   -2133.6895
      XYYY   -1911.4239   YYYY   -2003.1077   XXXZ   -3027.9424
      XXYZ    -318.0169   XYYZ   -1025.5103   YYYZ   -1201.1011
      XXZZ   -2309.7523   XYZZ    -572.1884   YYZZ   -1007.2810
      XZZZ   -3103.9990   YZZZ   -1190.5763   ZZZZ   -4166.8503
 -----------------------------------------------------------------
Archival summary:
1\1\vega03.cac.cornell.edu\SP\ProcedureUnspecified\BasisUnspecified\1712h20\jj585\MonApr1623:38:452018MonApr1623:38:452018\0\\#,ProcedureUnspecified,BasisUnspecified,\\0,1\O\C,1,1.43358\H,2,1.07,1,117.389\C,1,1.43646,2,98.0224,3,-179.253,0\C,4,1.51218,1,111.091,2,-178.393,0\H,5,1.07,4,109.471,1,-56.0506,0\H,5,1.07,4,109.472,1,-176.051,0\H,5,1.07,4,109.471,1,63.9491,0\C,2,1.54115,1,102.483,3,-123.548,0\H,9,1.09096,2,110.128,1,81.1589,0\H,9,1.09186,2,112.95,1,-157.962,0\C,2,1.54738,1,103.124,3,123.327,0\H,12,1.07,2,113.95,1,155.255,0\H,12,1.07,2,111.379,1,-86.5463,0\C,4,1.55466,1,102.371,2,-54.4128,0\H,15,1.09132,4,109.614,1,-87.4148,0\H,15,1.09187,4,112.355,1,152.676,0\C,12,1.5685,2,101.696,1,32.1918,0\H,18,1.07,12,111.7,2,120.458,0\H,18,1.07,12,114.71,2,-121.541,0\Gh,20,2.75226,18,127.744,12,62.689,0\Gh,21,1.09187,20,149.138,18,0.607246,0\Gh,22,1.09132,21,107.862,20,62.6977,0\Gh,22,1.55466,21,112.355,20,-176.381,0\Gh,24,1.43646,22,102.371,21,152.676,0\Gh,25,1.43358,24,98.0224,22,-54.4128,0\Gh,26,1.07,25,117.389,24,-179.253,0\Gh,24,1.51218,22,115.611,21,-86.4144,0\Gh,28,1.07,24,109.471,22,-172.124,0\Gh,28,1.07,24,109.472,22,67.8758,0\Gh,28,1.07,24,109.471,22,-52.1243,0\Gh,26,1.54115,25,102.483,24,57.1986,0\Gh,32,1.09096,26,110.128,25,81.1589,0\Gh,32,1.09186,26,112.95,25,-157.962,0\Gh,26,1.54738,25,103.124,24,-55.9256,0\Gh,35,1.07,26,113.95,25,155.255,0\Gh,35,1.07,26,111.379,25,-86.5463,0\Gh,35,1.5685,26,101.696,25,32.1918,0\Gh,38,1.07,35,111.7,26,120.458,0\Gh,38,1.07,35,114.71,26,-121.541,0\\\@

 Total job time:  194.97s(wall), 774.36s(cpu) 
 Mon Apr 16 23:38:45 2018

        *************************************************************
        *                                                           *
        *  Thank you very much for using Q-Chem.  Have a nice day.  *
        *                                                           *
        *************************************************************


0 sent ACK to 0 
now end server 0 ... 
