mFile = /opt/software/qchem/qchem-5.0.1//bin/mpi/machines
Process 0 of 1 is on vega03.cac.cornell.edu - thread support 0
initial socket setup ...start
initial socket setup ...done 
now start server 0 ... 
vega03 10.84.3
Q-Chem Developer Version! Running on 10.84.3.*
                  Welcome to Q-Chem
     A Quantum Leap Into The Future Of Chemistry


 Q-Chem 5.0, Q-Chem, Inc., Pleasanton, CA (2017)

 Yihan Shao,  Zhengting Gan,  E. Epifanovsky,  A. T. B. Gilbert,  M. Wormit,  
 J. Kussmann,  A. W. Lange,  A. Behn,  Jia Deng,  Xintian Feng,  D. Ghosh,  
 M. Goldey,  P. R. Horn,  L. D. Jacobson,  I. Kaliman,  T. Kus,  A. Landau,  
 Jie Liu,  E. I. Proynov,  R. M. Richard,  R. P. Steele,  E. J. Sundstrom,  
 H. L. Woodcock III,  P. M. Zimmerman,  D. Zuev,  B. Albrecht,  E. Alguire,  
 S. A. Baeppler,  Z. Benda,  Y. A. Bernard,  E. J. Berquist,  K. B. Bravaya,  
 D. Casanova,  Chun-Min Chang,  Yunqing Chen,  A. Chien,  K. D. Closser,  
 M. P. Coons,  S. Dasgupta,  M. Diedenhofen,  Hainam Do,  R. G. Edgar,  
 Po-Tung Fang,  S. Fatehi,  Qingguo Feng,  Qinghui Ge,  A. Ghysels,  
 J. Gomes,  J. Gonthier,  A. Gunina,  M. W. D. Hanson-Heine,  
 P. H. P. Harbach,  A. W. Hauser,  J. E. Herr,  E. G. Hohenstein,  
 Z. C. Holden,  Kerwin Hui,  T.-C. Jagau,  Hyunjun Ji,  B. Kaduk,  
 K. Khistyaev,  Jaehoon Kim,  P. Klunzinger,  K. Koh,  D. Kosenkov,  
 T. Kowalczyk,  C. M. Krauter,  A. Kunitsa,  Ka Un Lao,  A. Laurent,  
 K. V. Lawler,  Joonho Lee,  D. Lefrancois,  S. Lehtola,  D. S. Levine,  
 Yi-Pei Li,  You-Sheng Lin,  Fenglai Liu,  E. Livshits,  A. Luenser,  
 P. Manohar,  E. Mansoor,  S. F. Manzer,  Shan-Ping Mao,  Yuezhi Mao,  
 N. Mardirossian,  A. V. Marenich,  L. A. Martinez-Martinez,  S. A. Maurer,  
 N. J. Mayhall,  S. C. McKenzie,  J.-M. Mewes,  A. F. Morrison,  K. Nanda,  
 T. S. Nguyen-Beck,  R. Olivares-Amaya,  J. A. Parkhill,  T. M. Perrine,  
 F. Plasser,  S. Prager,  A. Prociuk,  D. R. Rehn,  F. Rob,  M. Schneider,  
 N. Sergueev,  S. M. Sharada,  S. Sharma,  D. W. Small,  T. Stauch,  
 T. Stein,  Yu-Chuan Su,  A. J. W. Thom,  T. Tsuchimochi,  L. Vogt,  
 O. Vydrov,  M. A. Watson,  J. Wenzel,  M. de Wergifosse,  T. A. Wesolowski,  
 A. White,  J. Witte,  A. Yamada,  Jun Yang,  K. Yao,  S. Yeganeh,  
 S. R. Yost,  Zhi-Qiang You,  A. Zech,  Igor Ying Zhang,  Xing Zhang,  
 Yan Zhao,  Ying Zhu,  B. R. Brooks,  G. K. L. Chan,  C. J. Cramer,  
 M. S. Gordon,  W. J. Hehre,  A. Klamt,  M. W. Schmidt,  C. D. Sherrill,  
 D. G. Truhlar,  A. Aspuru-Guzik,  R. Baer,  A. T. Bell,  N. A. Besley,  
 Jeng-Da Chai,  A. Dreuw,  B. D. Dunietz,  T. R. Furlani,  Chao-Ping Hsu,  
 Yousung Jung,  Jing Kong,  D. S. Lambrecht,  WanZhen Liang,  C. Ochsenfeld,  
 V. A. Rassolov,  L. V. Slipchenko,  J. E. Subotnik,  T. Van Voorhis,  
 J. M. Herbert,  A. I. Krylov,  P. M. W. Gill,  M. Head-Gordon

 Contributors to earlier versions of Q-Chem not listed above: 
 R. D. Adamson,  B. Austin,  J. Baker,  G. J. O. Beran,  K. Brandhorst,  
 S. T. Brown,  E. F. C. Byrd,  A. K. Chakraborty,  C.-L. Cheng,  
 Siu Hung Chien,  D. M. Chipman,  D. L. Crittenden,  H. Dachsel,  
 R. A. DiStasio Jr.,  R. J. Doerksen,  A. D. Dutoi,  L. Fusti-Molnar,  
 W. A. Goddard III,  A. Golubeva-Zadorozhnaya,  S. R. Gwaltney,  G. Hawkins,  
 A. Heyden,  S. Hirata,  G. Kedziora,  F. J. Keil,  C. Kelley,  Jihan Kim,  
 R. A. King,  R. Z. Khaliullin,  P. P. Korambath,  W. Kurlancheek,  
 A. M. Lee,  M. S. Lee,  S. V. Levchenko,  Ching Yeh Lin,  D. Liotard,  
 R. C. Lochan,  I. Lotan,  P. E. Maslen,  N. Nair,  D. P. O'Neill,  
 D. Neuhauser,  E. Neuscamman,  C. M. Oana,  R. Olson,  B. Peters,  
 R. Peverati,  P. A. Pieniazek,  Y. M. Rhee,  J. Ritchie,  M. A. Rohrdanz,  
 E. Rosta,  N. J. Russ,  H. F. Schaefer III,  N. E. Schultz,  N. Shenvi,  
 A. C. Simmonett,  A. Sodt,  D. Stuck,  K. S. Thanthiriwatte,  V. Vanovschi,  
 Tao Wang,  A. Warshel,  C. F. Williams,  Q. Wu,  X. Xu,  W. Zhang

 Please cite Q-Chem as follows:
 Y. Shao et al., Mol. Phys. 113, 184-215 (2015)
 DOI: 10.1080/00268976.2014.952696

 Q-Chem 5.0.1 for Intel X86 EM64T Linux

 Parts of Q-Chem use Armadillo 5.200.1 (Boston Tea Smuggler).
 http://arma.sourceforge.net/

 Q-Chem begins on Mon Apr 16 23:23:30 2018  

Host: vega03.cac.cornell.edu
0

     Scratch files written to /scratch/jj585/vdw/0100_distance_4.600_01.save//
 Parallel job on  1  processors

Checking the input file for inconsistencies... 	...done.

--------------------------------------------------------------
User input:
--------------------------------------------------------------
$molecule
0  1
C        +3.54931000        +2.68454000        +3.30720000
C        +3.95287000        +1.22613000        +3.71996000
C        +4.65669000        +3.03940000        +2.28634000
C        +5.95731000        +3.35666000        +3.04980000
C        +6.36997000        +1.93317000        +3.52425000
C        +5.27084000        +1.04667000        +2.87387000
O        +4.95501000        +1.77629000        +1.67749000
H        +6.69895000        +3.77748000        +2.36930000
H        +5.80897000        +4.06454000        +3.86776000
H        +7.34843000        +1.64960000        +3.13286000
H        +6.40020000        +1.82704000        +4.61053000
H        +4.35931000        +3.83909000        +1.64061000
C        +5.68111000        -0.37301000        +2.55313000
H        +6.58404000        -0.36229000        +1.97910000
H        +4.90612000        -0.84966000        +1.99002000
H        +5.84348000        -0.91163000        +3.46331000
H        +2.57988000        +2.70777000        +2.85490000
H        +3.48213000        +3.36583000        +4.12953000
H        +4.14354000        +1.15061000        +4.77012000
H        +3.20137000        +0.48610000        +3.53968000
@C        +0.22270000        +1.04488000        +0.58595000
@C        +0.62626000        -0.41353000        +0.99871000
@C        +1.33008000        +1.39974000        -0.43491000
@C        +2.63070000        +1.71700000        +0.32855000
@C        +3.04336000        +0.29351000        +0.80300000
@C        +1.94423000        -0.59299000        +0.15262000
@O        +1.62840000        +0.13663000        -1.04376000
@H        +3.37234000        +2.13782000        -0.35195000
@H        +2.48236000        +2.42488000        +1.14651000
@H        +4.02182000        +0.00994000        +0.41161000
@H        +3.07359000        +0.18738000        +1.88928000
@H        +1.03270000        +2.19943000        -1.08064000
@C        +2.35450000        -2.01267000        -0.16812000
@H        +3.25743000        -2.00195000        -0.74215000
@H        +1.57951000        -2.48932000        -0.73123000
@H        +2.51687000        -2.55129000        +0.74206000
@H        -0.74673000        +1.06811000        +0.13365000
@H        +0.15552000        +1.72617000        +1.40828000
@H        +0.81693000        -0.48905000        +2.04887000
@H        -0.12524000        -1.15356000        +0.81843000
$end

$rem
JOBTYPE                   SP
METHOD                    B3LYP
DFT_D                     d3_op
BASIS                     6-311++G(d,p)
SYMMETRY                  False
THRESH                    12
SCF_CONVERGENCE           8
MAX_SUB_FILE_NUM          128
MEM_STATIC                400
MEM_TOTAL                 4000
$end
--------------------------------------------------------------
 Adding empirical dispersion correction 
 ----------------------------------------------------------------
 Doing -D3(op) with
 s6 =   1.00000
 s8 =   0.78311
 a1 =   0.30000
 a2 =   4.25000
 n  =  10.00000
 -D3 energy without 3body term =     -0.0174576512 hartrees
 ----------------------------------------------------------------
             Standard Nuclear Orientation (Angstroms)
    I     Atom           X                Y                Z
 ----------------------------------------------------------------
    1      C       3.5493100000     2.6845400000     3.3072000000
    2      C       3.9528700000     1.2261300000     3.7199600000
    3      C       4.6566900000     3.0394000000     2.2863400000
    4      C       5.9573100000     3.3566600000     3.0498000000
    5      C       6.3699700000     1.9331700000     3.5242500000
    6      C       5.2708400000     1.0466700000     2.8738700000
    7      O       4.9550100000     1.7762900000     1.6774900000
    8      H       6.6989500000     3.7774800000     2.3693000000
    9      H       5.8089700000     4.0645400000     3.8677600000
   10      H       7.3484300000     1.6496000000     3.1328600000
   11      H       6.4002000000     1.8270400000     4.6105300000
   12      H       4.3593100000     3.8390900000     1.6406100000
   13      C       5.6811100000    -0.3730100000     2.5531300000
   14      H       6.5840400000    -0.3622900000     1.9791000000
   15      H       4.9061200000    -0.8496600000     1.9900200000
   16      H       5.8434800000    -0.9116300000     3.4633100000
   17      H       2.5798800000     2.7077700000     2.8549000000
   18      H       3.4821300000     3.3658300000     4.1295300000
   19      H       4.1435400000     1.1506100000     4.7701200000
   20      H       3.2013700000     0.4861000000     3.5396800000
   21      GH      0.2227000000     1.0448800000     0.5859500000
   22      GH      0.6262600000    -0.4135300000     0.9987100000
   23      GH      1.3300800000     1.3997400000    -0.4349100000
   24      GH      2.6307000000     1.7170000000     0.3285500000
   25      GH      3.0433600000     0.2935100000     0.8030000000
   26      GH      1.9442300000    -0.5929900000     0.1526200000
   27      GH      1.6284000000     0.1366300000    -1.0437600000
   28      GH      3.3723400000     2.1378200000    -0.3519500000
   29      GH      2.4823600000     2.4248800000     1.1465100000
   30      GH      4.0218200000     0.0099400000     0.4116100000
   31      GH      3.0735900000     0.1873800000     1.8892800000
   32      GH      1.0327000000     2.1994300000    -1.0806400000
   33      GH      2.3545000000    -2.0126700000    -0.1681200000
   34      GH      3.2574300000    -2.0019500000    -0.7421500000
   35      GH      1.5795100000    -2.4893200000    -0.7312300000
   36      GH      2.5168700000    -2.5512900000     0.7420600000
   37      GH     -0.7467300000     1.0681100000     0.1336500000
   38      GH      0.1555200000     1.7261700000     1.4082800000
   39      GH      0.8169300000    -0.4890500000     2.0488700000
   40      GH     -0.1252400000    -1.1535600000     0.8184300000
 ----------------------------------------------------------------
 Nuclear Repulsion Energy =   415.4951797453 hartrees
 There are       31 alpha and       31 beta electrons
 Requested basis set is 6-311++G(d,p)
 There are 216 shells and 520 basis functions

 Total QAlloc Memory Limit   4000 MB
 Mega-Array Size       392 MB
 MEM_STATIC part       400 MB
 A cutoff of  1.0D-12 yielded  19870 shell pairs
 There are    114565 function pairs (    121319 Cartesian)
 
 -------------------------------------------------------
 OpenMP Integral Computing Module                       
 Release: version 1.0, May 2013, Q-Chem Inc. Pittsburgh 
 -------------------------------------------------------
 Integral Job Info:
 Integral job number is                      11
 Integral operator is                         1
 short-range coefficients                     0
 long-range coefficients              100000000
 Omega coefficients                           0
 if combine SR and LR in K                    0
 Integral screening is                        0
 Integral computing path is                   2
 max size of driver memory is            800000
 size of driver memory is                593474
 size of scratch memory is              2361544
 max col of scratch BK array               1296
 max len of scratch array in speh3          155
 max len of scratch index in speh4           18
 max int batch size is                      520
 min int batch size is                       52
 fixed nKL is                                52
 max L of basis functions is                  2
 order of int derivative is                   0
 number of shells is                        216
 number of basis is                         536
 number of cartesian basis is               536
 number of contracted shell pairs         19870
 number of primitive shell pairs          42165
 maxK2 (contraction) of shell pair           36
 max number of K2 of shell pair               1
 max number of CS2 of shell pair           3562
 max number of PS2 of shell pair           6222
 mem total for path MDJ                  159450
 -------------------------------------------------------
 Smallest overlap matrix eigenvalue = 7.17E-07
 Linear dependence detected in AO basis
 Number of orthogonalized atomic orbitals = 519
 Maximum deviation from orthogonality = 1.288E-10

 Scale SEOQF with 1.000000e-02/1.000000e-01/1.000000e-01

 Standard Electronic Orientation quadrupole field applied
 Nucleus-field energy     =    -0.0000000320 hartrees
 Guess from superposition of atomic densities
 Warning:  Energy on first SCF cycle will be non-variational

 Q-Chem warning in module /opt/software/qchem/qchem-5.0.1/libgen/Atomic_PolEc.C, line 58:

 No atomic polarizability available.


 Q-Chem warning in module /opt/software/qchem/qchem-5.0.1/libgen/Atomic_PolEc.C, line 73:

 No atomic polarizability available.


 Q-Chem warning in module /opt/software/qchem/qchem-5.0.1/libgen/Atomic_PolEc.C, line 58:

 No atomic polarizability available.


 Q-Chem warning in module /opt/software/qchem/qchem-5.0.1/libgen/Atomic_PolEc.C, line 73:

 No atomic polarizability available.


 Q-Chem warning in module /opt/software/qchem/qchem-5.0.1/libgen/Atomic_PolEc.C, line 58:

 No atomic polarizability available.


 Q-Chem warning in module /opt/software/qchem/qchem-5.0.1/libgen/Atomic_PolEc.C, line 73:

 No atomic polarizability available.


 Q-Chem warning in module /opt/software/qchem/qchem-5.0.1/libgen/Atomic_PolEc.C, line 58:

 No atomic polarizability available.


 Q-Chem warning in module /opt/software/qchem/qchem-5.0.1/libgen/Atomic_PolEc.C, line 73:

 No atomic polarizability available.


 Q-Chem warning in module /opt/software/qchem/qchem-5.0.1/libgen/Atomic_PolEc.C, line 58:

 No atomic polarizability available.


 Q-Chem warning in module /opt/software/qchem/qchem-5.0.1/libgen/Atomic_PolEc.C, line 73:

 No atomic polarizability available.


 Q-Chem warning in module /opt/software/qchem/qchem-5.0.1/libgen/Atomic_PolEc.C, line 58:

 No atomic polarizability available.


 Q-Chem warning in module /opt/software/qchem/qchem-5.0.1/libgen/Atomic_PolEc.C, line 73:

 No atomic polarizability available.


 Q-Chem warning in module /opt/software/qchem/qchem-5.0.1/libgen/Atomic_PolEc.C, line 58:

 No atomic polarizability available.


 Q-Chem warning in module /opt/software/qchem/qchem-5.0.1/libgen/Atomic_PolEc.C, line 73:

 No atomic polarizability available.


 Q-Chem warning in module /opt/software/qchem/qchem-5.0.1/libgen/Atomic_PolEc.C, line 58:

 No atomic polarizability available.


 Q-Chem warning in module /opt/software/qchem/qchem-5.0.1/libgen/Atomic_PolEc.C, line 73:

 No atomic polarizability available.


 Q-Chem warning in module /opt/software/qchem/qchem-5.0.1/libgen/Atomic_PolEc.C, line 58:

 No atomic polarizability available.


 Q-Chem warning in module /opt/software/qchem/qchem-5.0.1/libgen/Atomic_PolEc.C, line 73:

 No atomic polarizability available.


 Q-Chem warning in module /opt/software/qchem/qchem-5.0.1/libgen/Atomic_PolEc.C, line 58:

 No atomic polarizability available.


 Q-Chem warning in module /opt/software/qchem/qchem-5.0.1/libgen/Atomic_PolEc.C, line 73:

 No atomic polarizability available.


 Q-Chem warning in module /opt/software/qchem/qchem-5.0.1/libgen/Atomic_PolEc.C, line 58:

 No atomic polarizability available.


 Q-Chem warning in module /opt/software/qchem/qchem-5.0.1/libgen/Atomic_PolEc.C, line 73:

 No atomic polarizability available.


 Q-Chem warning in module /opt/software/qchem/qchem-5.0.1/libgen/Atomic_PolEc.C, line 58:

 No atomic polarizability available.


 Q-Chem warning in module /opt/software/qchem/qchem-5.0.1/libgen/Atomic_PolEc.C, line 73:

 No atomic polarizability available.


 Q-Chem warning in module /opt/software/qchem/qchem-5.0.1/libgen/Atomic_PolEc.C, line 58:

 No atomic polarizability available.


 Q-Chem warning in module /opt/software/qchem/qchem-5.0.1/libgen/Atomic_PolEc.C, line 73:

 No atomic polarizability available.


 Q-Chem warning in module /opt/software/qchem/qchem-5.0.1/libgen/Atomic_PolEc.C, line 58:

 No atomic polarizability available.


 Q-Chem warning in module /opt/software/qchem/qchem-5.0.1/libgen/Atomic_PolEc.C, line 73:

 No atomic polarizability available.


 Q-Chem warning in module /opt/software/qchem/qchem-5.0.1/libgen/Atomic_PolEc.C, line 58:

 No atomic polarizability available.


 Q-Chem warning in module /opt/software/qchem/qchem-5.0.1/libgen/Atomic_PolEc.C, line 73:

 No atomic polarizability available.


 Q-Chem warning in module /opt/software/qchem/qchem-5.0.1/libgen/Atomic_PolEc.C, line 58:

 No atomic polarizability available.


 Q-Chem warning in module /opt/software/qchem/qchem-5.0.1/libgen/Atomic_PolEc.C, line 73:

 No atomic polarizability available.


 Q-Chem warning in module /opt/software/qchem/qchem-5.0.1/libgen/Atomic_PolEc.C, line 58:

 No atomic polarizability available.


 Q-Chem warning in module /opt/software/qchem/qchem-5.0.1/libgen/Atomic_PolEc.C, line 73:

 No atomic polarizability available.


 Q-Chem warning in module /opt/software/qchem/qchem-5.0.1/libgen/Atomic_PolEc.C, line 58:

 No atomic polarizability available.


 Q-Chem warning in module /opt/software/qchem/qchem-5.0.1/libgen/Atomic_PolEc.C, line 73:

 No atomic polarizability available.


 Q-Chem warning in module /opt/software/qchem/qchem-5.0.1/libgen/Atomic_PolEc.C, line 58:

 No atomic polarizability available.


 Q-Chem warning in module /opt/software/qchem/qchem-5.0.1/libgen/Atomic_PolEc.C, line 73:

 No atomic polarizability available.


 Q-Chem warning in module /opt/software/qchem/qchem-5.0.1/libgen/Atomic_PolEc.C, line 58:

 No atomic polarizability available.


 Q-Chem warning in module /opt/software/qchem/qchem-5.0.1/libgen/Atomic_PolEc.C, line 73:

 No atomic polarizability available.

 A restricted hybrid HF-DFT SCF calculation will be
 performed using Pulay DIIS extrapolation
 Exchange:     0.2000 Hartree-Fock + 0.0800 Slater + 0.7200 B88
 Correlation:  0.1900 VWN1RPA + 0.8100 LYP
 Using SG-1 standard quadrature grid
 Dispersion:   Grimme D3
 SCF converges when DIIS error is below 1.0E-08
 using 4 threads for integral computing
 -------------------------------------------------------
 OpenMP Integral computing Module                
 Release: version 1.0, May 2013, Q-Chem Inc. Pittsburgh 
 -------------------------------------------------------
 -------------------------------------------------------
 OpenMP BLAS3 based DFT computing Module                
 Release: version 1.0, May 2013, Q-Chem Inc. Pittsburgh 
 -------------------------------------------------------
 ---------------------------------------
  Cycle       Energy         DIIS Error
 ---------------------------------------
    1    -350.9521944389      1.91E-02
    2    -349.1125810157      2.32E-03
    3    -349.0361319187      2.80E-03
    4    -349.2924716783      4.09E-04
    5    -349.2962559422      1.60E-04
    6    -349.2968613284      4.49E-05
    7    -349.2969045825      1.69E-05
    8    -349.2969126774      1.59E-06
    9    -349.2969127478      7.42E-07
   10    -349.2969127650      1.39E-07
   11    -349.2969127656      2.84E-08
   12    -349.2969127656      1.06E-08
   13    -349.2969127656      2.62E-09 Convergence criterion met
 ---------------------------------------
 SCF time:  CPU 988.72 s  wall 248.61 s
 SCF   energy in the final basis set = -349.29691277
 Total energy in the final basis set = -349.29691277
 
 --------------------------------------------------------------
 
                    Orbital Energies (a.u.)
 --------------------------------------------------------------
 
 Alpha MOs
 -- Occupied --
-19.119 -10.225 -10.216 -10.166 -10.166 -10.163 -10.162 -10.154
 -1.049  -0.798  -0.775  -0.748  -0.684  -0.614  -0.575  -0.556
 -0.503  -0.482  -0.464  -0.440  -0.418  -0.405  -0.392  -0.377
 -0.360  -0.348  -0.344  -0.336  -0.316  -0.301  -0.262
 -- Virtual --
 -0.010   0.003   0.009   0.011   0.026   0.028   0.030   0.032
  0.038   0.046   0.051   0.053   0.060   0.061   0.066   0.068
  0.075   0.079   0.084   0.086   0.090   0.092   0.098   0.103
  0.106   0.109   0.114   0.116   0.117   0.120   0.123   0.126
  0.128   0.130   0.133   0.138   0.139   0.143   0.150   0.151
  0.153   0.154   0.158   0.163   0.166   0.167   0.169   0.175
  0.176   0.180   0.183   0.185   0.188   0.191   0.192   0.194
  0.197   0.203   0.206   0.211   0.213   0.215   0.218   0.222
  0.223   0.230   0.230   0.233   0.236   0.239   0.244   0.248
  0.249   0.252   0.257   0.259   0.262   0.269   0.271   0.273
  0.277   0.286   0.289   0.296   0.304   0.306   0.312   0.317
  0.324   0.332   0.336   0.340   0.349   0.352   0.357   0.357
  0.361   0.364   0.370   0.372   0.375   0.383   0.389   0.390
  0.397   0.402   0.411   0.414   0.420   0.421   0.434   0.438
  0.442   0.453   0.455   0.466   0.471   0.482   0.486   0.489
  0.492   0.506   0.518   0.527   0.537   0.540   0.561   0.563
  0.567   0.572   0.575   0.587   0.597   0.600   0.606   0.614
  0.621   0.631   0.636   0.642   0.655   0.658   0.661   0.665
  0.672   0.675   0.687   0.694   0.698   0.703   0.715   0.718
  0.724   0.726   0.730   0.738   0.740   0.752   0.757   0.764
  0.767   0.772   0.781   0.788   0.791   0.797   0.801   0.811
  0.820   0.823   0.833   0.849   0.860   0.867   0.872   0.872
  0.893   0.904   0.933   0.945   0.960   0.978   0.993   1.013
  1.014   1.027   1.036   1.040   1.063   1.075   1.099   1.106
  1.127   1.150   1.155   1.165   1.179   1.190   1.201   1.218
  1.236   1.251   1.254   1.262   1.277   1.289   1.300   1.323
  1.323   1.355   1.367   1.404   1.410   1.459   1.466   1.480
  1.493   1.506   1.520   1.523   1.531   1.538   1.547   1.557
  1.575   1.583   1.587   1.593   1.597   1.613   1.626   1.630
  1.649   1.655   1.669   1.676   1.684   1.706   1.711   1.718
  1.726   1.729   1.736   1.748   1.754   1.765   1.770   1.781
  1.801   1.803   1.808   1.813   1.818   1.825   1.835   1.845
  1.851   1.857   1.866   1.876   1.883   1.894   1.898   1.910
  1.916   1.920   1.926   1.938   1.954   1.962   1.976   1.994
  2.000   2.007   2.012   2.023   2.032   2.040   2.048   2.058
  2.085   2.096   2.106   2.115   2.121   2.136   2.156   2.166
  2.171   2.178   2.187   2.205   2.213   2.241   2.247   2.262
  2.266   2.291   2.301   2.308   2.327   2.353   2.368   2.371
  2.378   2.392   2.397   2.403   2.442   2.455   2.462   2.466
  2.470   2.476   2.491   2.498   2.507   2.510   2.527   2.538
  2.542   2.546   2.569   2.595   2.596   2.597   2.612   2.620
  2.632   2.648   2.654   2.664   2.685   2.705   2.708   2.727
  2.733   2.748   2.763   2.776   2.778   2.796   2.802   2.817
  2.820   2.824   2.843   2.853   2.877   2.885   2.887   2.903
  2.914   2.937   2.945   2.950   2.968   2.991   2.999   3.010
  3.026   3.038   3.054   3.059   3.088   3.105   3.112   3.117
  3.143   3.166   3.175   3.191   3.206   3.225   3.252   3.263
  3.276   3.293   3.317   3.327   3.336   3.349   3.351   3.398
  3.418   3.481   3.496   3.524   3.564   3.569   3.580   3.590
  3.605   3.611   3.630   3.661   3.694   3.711   3.734   3.751
  3.790   3.842   3.872   3.887   3.907   3.939   3.957   3.963
  3.981   3.998   4.044   4.071   4.112   4.123   4.148   4.193
  4.236   4.288   4.445   4.494   4.613   4.681   4.757   4.821
  4.859   4.869   4.901   4.911   4.931   4.959   5.003   5.017
  5.075   5.117   5.173   5.307   5.373   5.581   5.681   5.718
  7.377   7.476   7.517   7.536   7.624   7.635   7.678   7.684
  7.749   7.822   7.850   7.936   7.967   7.996   8.194   8.323
  8.344   8.405   8.453   8.713   8.779   9.900   9.950  10.001
 10.034  10.055  10.074  10.170  13.662  13.944  14.080  18.579
 23.812  23.862  23.962  24.004  24.032  24.064  24.080  50.034
 69.733  69.818  69.924  69.956  70.002  70.029  70.065 139.988
 --------------------------------------------------------------
 
          Ground-State Mulliken Net Atomic Charges

     Atom                 Charge (a.u.)
  ----------------------------------------
      1 C                    -0.362538
      2 C                    -0.467362
      3 C                     0.250667
      4 C                    -0.691760
      5 C                    -0.439355
      6 C                     0.360813
      7 O                     0.043186
      8 H                     0.160315
      9 H                     0.128848
     10 H                     0.157206
     11 H                     0.133740
     12 H                     0.229508
     13 C                    -0.432352
     14 H                     0.152931
     15 H                     0.111011
     16 H                     0.146685
     17 H                     0.121200
     18 H                     0.179910
     19 H                     0.172020
     20 H                     0.189465
     21 GH                   -0.007121
     22 GH                    0.000999
     23 GH                   -0.076311
     24 GH                    0.062386
     25 GH                   -0.019163
     26 GH                   -0.110496
     27 GH                   -0.001415
     28 GH                    0.006848
     29 GH                   -0.002458
     30 GH                    0.038125
     31 GH                   -0.063437
     32 GH                   -0.002047
     33 GH                    0.025120
     34 GH                   -0.002485
     35 GH                   -0.000217
     36 GH                    0.004679
     37 GH                   -0.000177
     38 GH                    0.002384
     39 GH                    0.000856
     40 GH                   -0.000208
  ----------------------------------------
  Sum of atomic charges =     0.000000

 -----------------------------------------------------------------
                    Cartesian Multipole Moments
 -----------------------------------------------------------------
    Charge (ESU x 10^10)
                 0.0000
    Dipole Moment (Debye)
         X      -0.0093      Y       0.3979      Z       1.6050
       Tot       1.6536
    Quadrupole Moments (Debye-Ang)
        XX     -49.8664     XY       1.2299     YY     -46.3368
        XZ       7.8585     YZ       3.0564     ZZ     -43.8903
    Octopole Moments (Debye-Ang^2)
       XXX    -757.0943    XXY     -88.5881    XYY    -239.1223
       YYY    -254.6204    XXZ    -109.5422    XYZ      13.1273
       YYZ    -136.3858    XZZ    -223.3313    YZZ     -80.2657
       ZZZ    -419.5749
    Hexadecapole Moments (Debye-Ang^3)
      XXXX   -8048.7462   XXXY   -1364.1204   XXYY   -1554.3912
      XYYY   -1281.2496   YYYY   -1472.6037   XXXZ   -2052.5940
      XXYZ    -219.0488   XYYZ    -698.4631   YYYZ    -768.9560
      XXZZ   -1678.6202   XYZZ    -406.5200   YYZZ    -691.5516
      XZZZ   -2115.6504   YZZZ    -770.7634   ZZZZ   -2722.8416
 -----------------------------------------------------------------
Archival summary:
1\1\vega03.cac.cornell.edu\SP\ProcedureUnspecified\BasisUnspecified\1712h20\jj585\MonApr1623:27:402018MonApr1623:27:402018\0\\#,ProcedureUnspecified,BasisUnspecified,\\0,1\O\C,1,1.43358\H,2,1.07,1,117.389\C,1,1.43646,2,98.0224,3,-179.253,0\C,4,1.51218,1,111.091,2,-178.393,0\H,5,1.07,4,109.471,1,-56.0506,0\H,5,1.07,4,109.472,1,-176.051,0\H,5,1.07,4,109.471,1,63.9491,0\C,2,1.54115,1,102.483,3,-123.548,0\H,9,1.09096,2,110.128,1,81.1589,0\H,9,1.09186,2,112.95,1,-157.962,0\C,2,1.54738,1,103.124,3,123.327,0\H,12,1.07,2,113.95,1,155.255,0\H,12,1.07,2,111.379,1,-86.5463,0\C,4,1.55466,1,102.371,2,-54.4128,0\H,15,1.09132,4,109.614,1,-87.4148,0\H,15,1.09187,4,112.355,1,152.676,0\C,12,1.5685,2,101.696,1,32.1918,0\H,18,1.07,12,111.7,2,120.458,0\H,18,1.07,12,114.71,2,-121.541,0\Gh,20,1.68208,18,109.968,12,72.5967,0\Gh,21,1.09187,20,163.943,18,-36.7417,0\Gh,22,1.09132,21,107.862,20,97.676,0\Gh,22,1.55466,21,112.355,20,-141.402,0\Gh,24,1.43646,22,102.371,21,152.676,0\Gh,25,1.43358,24,98.0224,22,-54.4128,0\Gh,26,1.07,25,117.389,24,-179.253,0\Gh,24,1.51218,22,115.611,21,-86.4144,0\Gh,28,1.07,24,109.471,22,-172.124,0\Gh,28,1.07,24,109.472,22,67.8758,0\Gh,28,1.07,24,109.471,22,-52.1243,0\Gh,26,1.54115,25,102.483,24,57.1986,0\Gh,32,1.09096,26,110.128,25,81.1589,0\Gh,32,1.09186,26,112.95,25,-157.962,0\Gh,26,1.54738,25,103.124,24,-55.9256,0\Gh,35,1.07,26,113.95,25,155.255,0\Gh,35,1.07,26,111.379,25,-86.5463,0\Gh,35,1.5685,26,101.696,25,32.1918,0\Gh,38,1.07,35,111.7,26,120.458,0\Gh,38,1.07,35,114.71,26,-121.541,0\\\@

 Total job time:  249.71s(wall), 991.56s(cpu) 
 Mon Apr 16 23:27:40 2018

        *************************************************************
        *                                                           *
        *  Thank you very much for using Q-Chem.  Have a nice day.  *
        *                                                           *
        *************************************************************


0 sent ACK to 0 
now end server 0 ... 
