mFile = /opt/software/qchem/qchem-5.0.1//bin/mpi/machines
Process 0 of 1 is on vega03.cac.cornell.edu - thread support 0
initial socket setup ...start
initial socket setup ...done 
now start server 0 ... 
vega03 10.84.3
Q-Chem Developer Version! Running on 10.84.3.*
                  Welcome to Q-Chem
     A Quantum Leap Into The Future Of Chemistry


 Q-Chem 5.0, Q-Chem, Inc., Pleasanton, CA (2017)

 Yihan Shao,  Zhengting Gan,  E. Epifanovsky,  A. T. B. Gilbert,  M. Wormit,  
 J. Kussmann,  A. W. Lange,  A. Behn,  Jia Deng,  Xintian Feng,  D. Ghosh,  
 M. Goldey,  P. R. Horn,  L. D. Jacobson,  I. Kaliman,  T. Kus,  A. Landau,  
 Jie Liu,  E. I. Proynov,  R. M. Richard,  R. P. Steele,  E. J. Sundstrom,  
 H. L. Woodcock III,  P. M. Zimmerman,  D. Zuev,  B. Albrecht,  E. Alguire,  
 S. A. Baeppler,  Z. Benda,  Y. A. Bernard,  E. J. Berquist,  K. B. Bravaya,  
 D. Casanova,  Chun-Min Chang,  Yunqing Chen,  A. Chien,  K. D. Closser,  
 M. P. Coons,  S. Dasgupta,  M. Diedenhofen,  Hainam Do,  R. G. Edgar,  
 Po-Tung Fang,  S. Fatehi,  Qingguo Feng,  Qinghui Ge,  A. Ghysels,  
 J. Gomes,  J. Gonthier,  A. Gunina,  M. W. D. Hanson-Heine,  
 P. H. P. Harbach,  A. W. Hauser,  J. E. Herr,  E. G. Hohenstein,  
 Z. C. Holden,  Kerwin Hui,  T.-C. Jagau,  Hyunjun Ji,  B. Kaduk,  
 K. Khistyaev,  Jaehoon Kim,  P. Klunzinger,  K. Koh,  D. Kosenkov,  
 T. Kowalczyk,  C. M. Krauter,  A. Kunitsa,  Ka Un Lao,  A. Laurent,  
 K. V. Lawler,  Joonho Lee,  D. Lefrancois,  S. Lehtola,  D. S. Levine,  
 Yi-Pei Li,  You-Sheng Lin,  Fenglai Liu,  E. Livshits,  A. Luenser,  
 P. Manohar,  E. Mansoor,  S. F. Manzer,  Shan-Ping Mao,  Yuezhi Mao,  
 N. Mardirossian,  A. V. Marenich,  L. A. Martinez-Martinez,  S. A. Maurer,  
 N. J. Mayhall,  S. C. McKenzie,  J.-M. Mewes,  A. F. Morrison,  K. Nanda,  
 T. S. Nguyen-Beck,  R. Olivares-Amaya,  J. A. Parkhill,  T. M. Perrine,  
 F. Plasser,  S. Prager,  A. Prociuk,  D. R. Rehn,  F. Rob,  M. Schneider,  
 N. Sergueev,  S. M. Sharada,  S. Sharma,  D. W. Small,  T. Stauch,  
 T. Stein,  Yu-Chuan Su,  A. J. W. Thom,  T. Tsuchimochi,  L. Vogt,  
 O. Vydrov,  M. A. Watson,  J. Wenzel,  M. de Wergifosse,  T. A. Wesolowski,  
 A. White,  J. Witte,  A. Yamada,  Jun Yang,  K. Yao,  S. Yeganeh,  
 S. R. Yost,  Zhi-Qiang You,  A. Zech,  Igor Ying Zhang,  Xing Zhang,  
 Yan Zhao,  Ying Zhu,  B. R. Brooks,  G. K. L. Chan,  C. J. Cramer,  
 M. S. Gordon,  W. J. Hehre,  A. Klamt,  M. W. Schmidt,  C. D. Sherrill,  
 D. G. Truhlar,  A. Aspuru-Guzik,  R. Baer,  A. T. Bell,  N. A. Besley,  
 Jeng-Da Chai,  A. Dreuw,  B. D. Dunietz,  T. R. Furlani,  Chao-Ping Hsu,  
 Yousung Jung,  Jing Kong,  D. S. Lambrecht,  WanZhen Liang,  C. Ochsenfeld,  
 V. A. Rassolov,  L. V. Slipchenko,  J. E. Subotnik,  T. Van Voorhis,  
 J. M. Herbert,  A. I. Krylov,  P. M. W. Gill,  M. Head-Gordon

 Contributors to earlier versions of Q-Chem not listed above: 
 R. D. Adamson,  B. Austin,  J. Baker,  G. J. O. Beran,  K. Brandhorst,  
 S. T. Brown,  E. F. C. Byrd,  A. K. Chakraborty,  C.-L. Cheng,  
 Siu Hung Chien,  D. M. Chipman,  D. L. Crittenden,  H. Dachsel,  
 R. A. DiStasio Jr.,  R. J. Doerksen,  A. D. Dutoi,  L. Fusti-Molnar,  
 W. A. Goddard III,  A. Golubeva-Zadorozhnaya,  S. R. Gwaltney,  G. Hawkins,  
 A. Heyden,  S. Hirata,  G. Kedziora,  F. J. Keil,  C. Kelley,  Jihan Kim,  
 R. A. King,  R. Z. Khaliullin,  P. P. Korambath,  W. Kurlancheek,  
 A. M. Lee,  M. S. Lee,  S. V. Levchenko,  Ching Yeh Lin,  D. Liotard,  
 R. C. Lochan,  I. Lotan,  P. E. Maslen,  N. Nair,  D. P. O'Neill,  
 D. Neuhauser,  E. Neuscamman,  C. M. Oana,  R. Olson,  B. Peters,  
 R. Peverati,  P. A. Pieniazek,  Y. M. Rhee,  J. Ritchie,  M. A. Rohrdanz,  
 E. Rosta,  N. J. Russ,  H. F. Schaefer III,  N. E. Schultz,  N. Shenvi,  
 A. C. Simmonett,  A. Sodt,  D. Stuck,  K. S. Thanthiriwatte,  V. Vanovschi,  
 Tao Wang,  A. Warshel,  C. F. Williams,  Q. Wu,  X. Xu,  W. Zhang

 Please cite Q-Chem as follows:
 Y. Shao et al., Mol. Phys. 113, 184-215 (2015)
 DOI: 10.1080/00268976.2014.952696

 Q-Chem 5.0.1 for Intel X86 EM64T Linux

 Parts of Q-Chem use Armadillo 5.200.1 (Boston Tea Smuggler).
 http://arma.sourceforge.net/

 Q-Chem begins on Mon Apr 16 23:57:45 2018  

Host: vega03.cac.cornell.edu
0

     Scratch files written to /scratch/jj585/vdw/0110_distance_4.600_10.save//
 Parallel job on  1  processors

Checking the input file for inconsistencies... 	...done.

--------------------------------------------------------------
User input:
--------------------------------------------------------------
$molecule
0  1
C        +0.22270000        +1.04488000        +0.58595000
C        +0.62626000        -0.41353000        +0.99871000
C        +1.33008000        +1.39974000        -0.43491000
C        +2.63070000        +1.71700000        +0.32855000
C        +3.04336000        +0.29351000        +0.80300000
C        +1.94423000        -0.59299000        +0.15262000
O        +1.62840000        +0.13663000        -1.04376000
H        +3.37234000        +2.13782000        -0.35195000
H        +2.48236000        +2.42488000        +1.14651000
H        +4.02182000        +0.00994000        +0.41161000
H        +3.07359000        +0.18738000        +1.88928000
C        +0.90028000        +2.39077000        -1.49430000
C        +2.35450000        -2.01267000        -0.16812000
H        +3.26311000        -2.00678000        -0.77366000
H        +2.54990000        -2.57059000        +0.75079000
H        +1.57335000        -2.52896000        -0.72872000
H        +1.71845000        +2.58186000        -2.15686000
H        +0.59919000        +3.30478000        -1.02650000
H        +0.07925000        +1.98653000        -2.04874000
H        +0.81693000        -0.48905000        +2.04887000
H        -0.12524000        -1.15356000        +0.81843000
H        -0.74673000        +1.06811000        +0.13365000
H        +0.15552000        +1.72617000        +1.40828000
@C        +3.67533000        +2.89030000        +3.00127000
@C        +4.07889000        +1.43189000        +3.41403000
@C        +4.78271000        +3.24516000        +1.98041000
@C        +6.08333000        +3.56242000        +2.74387000
@C        +6.49599000        +2.13893000        +3.21832000
@C        +5.39686000        +1.25243000        +2.56794000
@O        +5.08103000        +1.98205000        +1.37156000
@H        +6.82497000        +3.98324000        +2.06337000
@H        +5.93499000        +4.27030000        +3.56183000
@H        +7.47445000        +1.85536000        +2.82693000
@H        +6.52622000        +2.03280000        +4.30460000
@C        +4.35291000        +4.23619000        +0.92102000
@C        +5.80713000        -0.16725000        +2.24720000
@H        +6.71574000        -0.16136000        +1.64166000
@H        +6.00253000        -0.72517000        +3.16611000
@H        +5.02598000        -0.68354000        +1.68660000
@H        +5.17108000        +4.42728000        +0.25846000
@H        +4.05182000        +5.15020000        +1.38882000
@H        +3.53188000        +3.83195000        +0.36658000
@H        +4.26956000        +1.35637000        +4.46419000
@H        +3.32739000        +0.69186000        +3.23375000
@H        +2.70590000        +2.91353000        +2.54897000
@H        +3.60815000        +3.57159000        +3.82360000
$end

$rem
JOBTYPE                   SP
METHOD                    B3LYP
DFT_D                     d3_op
BASIS                     6-311++G(d,p)
SYMMETRY                  False
THRESH                    12
SCF_CONVERGENCE           8
MAX_SUB_FILE_NUM          128
MEM_STATIC                400
MEM_TOTAL                 4000
$end
--------------------------------------------------------------
 Adding empirical dispersion correction 
 ----------------------------------------------------------------
 Doing -D3(op) with
 s6 =   1.00000
 s8 =   0.78311
 a1 =   0.30000
 a2 =   4.25000
 n  =  10.00000
 -D3 energy without 3body term =     -0.0216033054 hartrees
 ----------------------------------------------------------------
             Standard Nuclear Orientation (Angstroms)
    I     Atom           X                Y                Z
 ----------------------------------------------------------------
    1      C       0.2227000000     1.0448800000     0.5859500000
    2      C       0.6262600000    -0.4135300000     0.9987100000
    3      C       1.3300800000     1.3997400000    -0.4349100000
    4      C       2.6307000000     1.7170000000     0.3285500000
    5      C       3.0433600000     0.2935100000     0.8030000000
    6      C       1.9442300000    -0.5929900000     0.1526200000
    7      O       1.6284000000     0.1366300000    -1.0437600000
    8      H       3.3723400000     2.1378200000    -0.3519500000
    9      H       2.4823600000     2.4248800000     1.1465100000
   10      H       4.0218200000     0.0099400000     0.4116100000
   11      H       3.0735900000     0.1873800000     1.8892800000
   12      C       0.9002800000     2.3907700000    -1.4943000000
   13      C       2.3545000000    -2.0126700000    -0.1681200000
   14      H       3.2631100000    -2.0067800000    -0.7736600000
   15      H       2.5499000000    -2.5705900000     0.7507900000
   16      H       1.5733500000    -2.5289600000    -0.7287200000
   17      H       1.7184500000     2.5818600000    -2.1568600000
   18      H       0.5991900000     3.3047800000    -1.0265000000
   19      H       0.0792500000     1.9865300000    -2.0487400000
   20      H       0.8169300000    -0.4890500000     2.0488700000
   21      H      -0.1252400000    -1.1535600000     0.8184300000
   22      H      -0.7467300000     1.0681100000     0.1336500000
   23      H       0.1555200000     1.7261700000     1.4082800000
   24      GH      3.6753300000     2.8903000000     3.0012700000
   25      GH      4.0788900000     1.4318900000     3.4140300000
   26      GH      4.7827100000     3.2451600000     1.9804100000
   27      GH      6.0833300000     3.5624200000     2.7438700000
   28      GH      6.4959900000     2.1389300000     3.2183200000
   29      GH      5.3968600000     1.2524300000     2.5679400000
   30      GH      5.0810300000     1.9820500000     1.3715600000
   31      GH      6.8249700000     3.9832400000     2.0633700000
   32      GH      5.9349900000     4.2703000000     3.5618300000
   33      GH      7.4744500000     1.8553600000     2.8269300000
   34      GH      6.5262200000     2.0328000000     4.3046000000
   35      GH      4.3529100000     4.2361900000     0.9210200000
   36      GH      5.8071300000    -0.1672500000     2.2472000000
   37      GH      6.7157400000    -0.1613600000     1.6416600000
   38      GH      6.0025300000    -0.7251700000     3.1661100000
   39      GH      5.0259800000    -0.6835400000     1.6866000000
   40      GH      5.1710800000     4.4272800000     0.2584600000
   41      GH      4.0518200000     5.1502000000     1.3888200000
   42      GH      3.5318800000     3.8319500000     0.3665800000
   43      GH      4.2695600000     1.3563700000     4.4641900000
   44      GH      3.3273900000     0.6918600000     3.2337500000
   45      GH      2.7059000000     2.9135300000     2.5489700000
   46      GH      3.6081500000     3.5715900000     3.8236000000
 ----------------------------------------------------------------
 Nuclear Repulsion Energy =   506.2703564319 hartrees
 There are       35 alpha and       35 beta electrons
 Requested basis set is 6-311++G(d,p)
 There are 248 shells and 592 basis functions

 Total QAlloc Memory Limit   4000 MB
 Mega-Array Size       392 MB
 MEM_STATIC part       400 MB
 A cutoff of  1.0D-12 yielded  25726 shell pairs
 There are    145611 function pairs (    154050 Cartesian)
 
 -------------------------------------------------------
 OpenMP Integral Computing Module                       
 Release: version 1.0, May 2013, Q-Chem Inc. Pittsburgh 
 -------------------------------------------------------
 Integral Job Info:
 Integral job number is                      11
 Integral operator is                         1
 short-range coefficients                     0
 long-range coefficients              100000000
 Omega coefficients                           0
 if combine SR and LR in K                    0
 Integral screening is                        0
 Integral computing path is                   2
 max size of driver memory is            800000
 size of driver memory is                593474
 size of scratch memory is              2361544
 max col of scratch BK array               1296
 max len of scratch array in speh3          155
 max len of scratch index in speh4           18
 max int batch size is                      520
 min int batch size is                       52
 fixed nKL is                                52
 max L of basis functions is                  2
 order of int derivative is                   0
 number of shells is                        248
 number of basis is                         610
 number of cartesian basis is               610
 number of contracted shell pairs         25726
 number of primitive shell pairs          53563
 maxK2 (contraction) of shell pair           36
 max number of K2 of shell pair               1
 max number of CS2 of shell pair           4667
 max number of PS2 of shell pair           8040
 mem total for path MDJ                  198666
 -------------------------------------------------------
 Smallest overlap matrix eigenvalue = 2.42E-07
 Linear dependence detected in AO basis
 Number of orthogonalized atomic orbitals = 590
 Maximum deviation from orthogonality = 1.396E-10

 Scale SEOQF with 1.000000e-02/1.000000e-02/1.000000e-01

 Standard Electronic Orientation quadrupole field applied
 Nucleus-field energy     =    -0.0000000044 hartrees
 Guess from superposition of atomic densities
 Warning:  Energy on first SCF cycle will be non-variational

 Q-Chem warning in module /opt/software/qchem/qchem-5.0.1/libgen/Atomic_PolEc.C, line 58:

 No atomic polarizability available.


 Q-Chem warning in module /opt/software/qchem/qchem-5.0.1/libgen/Atomic_PolEc.C, line 73:

 No atomic polarizability available.


 Q-Chem warning in module /opt/software/qchem/qchem-5.0.1/libgen/Atomic_PolEc.C, line 58:

 No atomic polarizability available.


 Q-Chem warning in module /opt/software/qchem/qchem-5.0.1/libgen/Atomic_PolEc.C, line 73:

 No atomic polarizability available.


 Q-Chem warning in module /opt/software/qchem/qchem-5.0.1/libgen/Atomic_PolEc.C, line 58:

 No atomic polarizability available.


 Q-Chem warning in module /opt/software/qchem/qchem-5.0.1/libgen/Atomic_PolEc.C, line 73:

 No atomic polarizability available.


 Q-Chem warning in module /opt/software/qchem/qchem-5.0.1/libgen/Atomic_PolEc.C, line 58:

 No atomic polarizability available.


 Q-Chem warning in module /opt/software/qchem/qchem-5.0.1/libgen/Atomic_PolEc.C, line 73:

 No atomic polarizability available.


 Q-Chem warning in module /opt/software/qchem/qchem-5.0.1/libgen/Atomic_PolEc.C, line 58:

 No atomic polarizability available.


 Q-Chem warning in module /opt/software/qchem/qchem-5.0.1/libgen/Atomic_PolEc.C, line 73:

 No atomic polarizability available.


 Q-Chem warning in module /opt/software/qchem/qchem-5.0.1/libgen/Atomic_PolEc.C, line 58:

 No atomic polarizability available.


 Q-Chem warning in module /opt/software/qchem/qchem-5.0.1/libgen/Atomic_PolEc.C, line 73:

 No atomic polarizability available.


 Q-Chem warning in module /opt/software/qchem/qchem-5.0.1/libgen/Atomic_PolEc.C, line 58:

 No atomic polarizability available.


 Q-Chem warning in module /opt/software/qchem/qchem-5.0.1/libgen/Atomic_PolEc.C, line 73:

 No atomic polarizability available.


 Q-Chem warning in module /opt/software/qchem/qchem-5.0.1/libgen/Atomic_PolEc.C, line 58:

 No atomic polarizability available.


 Q-Chem warning in module /opt/software/qchem/qchem-5.0.1/libgen/Atomic_PolEc.C, line 73:

 No atomic polarizability available.


 Q-Chem warning in module /opt/software/qchem/qchem-5.0.1/libgen/Atomic_PolEc.C, line 58:

 No atomic polarizability available.


 Q-Chem warning in module /opt/software/qchem/qchem-5.0.1/libgen/Atomic_PolEc.C, line 73:

 No atomic polarizability available.


 Q-Chem warning in module /opt/software/qchem/qchem-5.0.1/libgen/Atomic_PolEc.C, line 58:

 No atomic polarizability available.


 Q-Chem warning in module /opt/software/qchem/qchem-5.0.1/libgen/Atomic_PolEc.C, line 73:

 No atomic polarizability available.


 Q-Chem warning in module /opt/software/qchem/qchem-5.0.1/libgen/Atomic_PolEc.C, line 58:

 No atomic polarizability available.


 Q-Chem warning in module /opt/software/qchem/qchem-5.0.1/libgen/Atomic_PolEc.C, line 73:

 No atomic polarizability available.


 Q-Chem warning in module /opt/software/qchem/qchem-5.0.1/libgen/Atomic_PolEc.C, line 58:

 No atomic polarizability available.


 Q-Chem warning in module /opt/software/qchem/qchem-5.0.1/libgen/Atomic_PolEc.C, line 73:

 No atomic polarizability available.


 Q-Chem warning in module /opt/software/qchem/qchem-5.0.1/libgen/Atomic_PolEc.C, line 58:

 No atomic polarizability available.


 Q-Chem warning in module /opt/software/qchem/qchem-5.0.1/libgen/Atomic_PolEc.C, line 73:

 No atomic polarizability available.


 Q-Chem warning in module /opt/software/qchem/qchem-5.0.1/libgen/Atomic_PolEc.C, line 58:

 No atomic polarizability available.


 Q-Chem warning in module /opt/software/qchem/qchem-5.0.1/libgen/Atomic_PolEc.C, line 73:

 No atomic polarizability available.


 Q-Chem warning in module /opt/software/qchem/qchem-5.0.1/libgen/Atomic_PolEc.C, line 58:

 No atomic polarizability available.


 Q-Chem warning in module /opt/software/qchem/qchem-5.0.1/libgen/Atomic_PolEc.C, line 73:

 No atomic polarizability available.


 Q-Chem warning in module /opt/software/qchem/qchem-5.0.1/libgen/Atomic_PolEc.C, line 58:

 No atomic polarizability available.


 Q-Chem warning in module /opt/software/qchem/qchem-5.0.1/libgen/Atomic_PolEc.C, line 73:

 No atomic polarizability available.


 Q-Chem warning in module /opt/software/qchem/qchem-5.0.1/libgen/Atomic_PolEc.C, line 58:

 No atomic polarizability available.


 Q-Chem warning in module /opt/software/qchem/qchem-5.0.1/libgen/Atomic_PolEc.C, line 73:

 No atomic polarizability available.


 Q-Chem warning in module /opt/software/qchem/qchem-5.0.1/libgen/Atomic_PolEc.C, line 58:

 No atomic polarizability available.


 Q-Chem warning in module /opt/software/qchem/qchem-5.0.1/libgen/Atomic_PolEc.C, line 73:

 No atomic polarizability available.


 Q-Chem warning in module /opt/software/qchem/qchem-5.0.1/libgen/Atomic_PolEc.C, line 58:

 No atomic polarizability available.


 Q-Chem warning in module /opt/software/qchem/qchem-5.0.1/libgen/Atomic_PolEc.C, line 73:

 No atomic polarizability available.


 Q-Chem warning in module /opt/software/qchem/qchem-5.0.1/libgen/Atomic_PolEc.C, line 58:

 No atomic polarizability available.


 Q-Chem warning in module /opt/software/qchem/qchem-5.0.1/libgen/Atomic_PolEc.C, line 73:

 No atomic polarizability available.


 Q-Chem warning in module /opt/software/qchem/qchem-5.0.1/libgen/Atomic_PolEc.C, line 58:

 No atomic polarizability available.


 Q-Chem warning in module /opt/software/qchem/qchem-5.0.1/libgen/Atomic_PolEc.C, line 73:

 No atomic polarizability available.


 Q-Chem warning in module /opt/software/qchem/qchem-5.0.1/libgen/Atomic_PolEc.C, line 58:

 No atomic polarizability available.


 Q-Chem warning in module /opt/software/qchem/qchem-5.0.1/libgen/Atomic_PolEc.C, line 73:

 No atomic polarizability available.


 Q-Chem warning in module /opt/software/qchem/qchem-5.0.1/libgen/Atomic_PolEc.C, line 58:

 No atomic polarizability available.


 Q-Chem warning in module /opt/software/qchem/qchem-5.0.1/libgen/Atomic_PolEc.C, line 73:

 No atomic polarizability available.

 A restricted hybrid HF-DFT SCF calculation will be
 performed using Pulay DIIS extrapolation
 Exchange:     0.2000 Hartree-Fock + 0.0800 Slater + 0.7200 B88
 Correlation:  0.1900 VWN1RPA + 0.8100 LYP
 Using SG-1 standard quadrature grid
 Dispersion:   Grimme D3
 SCF converges when DIIS error is below 1.0E-08
 using 4 threads for integral computing
 -------------------------------------------------------
 OpenMP Integral computing Module                
 Release: version 1.0, May 2013, Q-Chem Inc. Pittsburgh 
 -------------------------------------------------------
 -------------------------------------------------------
 OpenMP BLAS3 based DFT computing Module                
 Release: version 1.0, May 2013, Q-Chem Inc. Pittsburgh 
 -------------------------------------------------------
 ---------------------------------------
  Cycle       Energy         DIIS Error
 ---------------------------------------
    1    -390.4762215688      1.79E-02
    2    -388.4109169413      2.25E-03
    3    -388.3324970578      2.63E-03
    4    -388.6277718613      4.08E-04
    5    -388.6327478863      1.46E-04
    6    -388.6333966782      3.95E-05
    7    -388.6334415447      1.44E-05
    8    -388.6334492296      1.35E-06
    9    -388.6334492989      5.59E-07
   10    -388.6334493109      1.47E-07
   11    -388.6334493118      1.60E-08
   12    -388.6334493118      6.98E-09 Convergence criterion met
 ---------------------------------------
 SCF time:  CPU 1378.54 s  wall 348.34 s
 SCF   energy in the final basis set = -388.63344931
 Total energy in the final basis set = -388.63344931
 
 --------------------------------------------------------------
 
                    Orbital Energies (a.u.)
 --------------------------------------------------------------
 
 Alpha MOs
 -- Occupied --
-19.115 -10.224 -10.221 -10.166 -10.165 -10.162 -10.161 -10.160
-10.151  -1.049  -0.799  -0.789  -0.748  -0.717  -0.652  -0.616
 -0.562  -0.555  -0.486  -0.474  -0.464  -0.444  -0.420  -0.410
 -0.406  -0.402  -0.384  -0.360  -0.346  -0.343  -0.340  -0.333
 -0.316  -0.299  -0.261
 -- Virtual --
 -0.011   0.001   0.008   0.010   0.022   0.027   0.028   0.031
  0.036   0.044   0.050   0.051   0.054   0.058   0.060   0.061
  0.066   0.067   0.075   0.079   0.081   0.082   0.090   0.091
  0.095   0.097   0.105   0.106   0.108   0.110   0.114   0.118
  0.119   0.120   0.125   0.128   0.130   0.135   0.138   0.143
  0.145   0.148   0.149   0.153   0.156   0.157   0.160   0.161
  0.162   0.164   0.166   0.167   0.169   0.170   0.173   0.178
  0.184   0.185   0.188   0.190   0.193   0.199   0.200   0.202
  0.207   0.208   0.210   0.211   0.213   0.217   0.220   0.222
  0.223   0.229   0.231   0.232   0.237   0.241   0.242   0.245
  0.251   0.253   0.256   0.258   0.264   0.270   0.270   0.271
  0.278   0.280   0.288   0.290   0.291   0.296   0.303   0.305
  0.311   0.314   0.317   0.322   0.326   0.336   0.337   0.341
  0.344   0.350   0.352   0.361   0.362   0.365   0.372   0.374
  0.378   0.381   0.384   0.390   0.397   0.401   0.409   0.413
  0.420   0.422   0.427   0.432   0.435   0.438   0.445   0.448
  0.452   0.460   0.466   0.471   0.476   0.479   0.480   0.494
  0.507   0.522   0.527   0.529   0.531   0.542   0.544   0.553
  0.555   0.565   0.568   0.572   0.575   0.581   0.585   0.593
  0.595   0.604   0.615   0.619   0.622   0.625   0.631   0.646
  0.653   0.660   0.666   0.672   0.677   0.680   0.683   0.686
  0.690   0.699   0.715   0.718   0.721   0.725   0.730   0.742
  0.745   0.753   0.756   0.761   0.765   0.767   0.777   0.779
  0.784   0.787   0.796   0.815   0.818   0.822   0.829   0.834
  0.844   0.844   0.850   0.855   0.867   0.870   0.892   0.905
  0.910   0.918   0.923   0.944   0.952   0.956   0.979   0.981
  0.993   1.018   1.031   1.046   1.051   1.060   1.066   1.075
  1.078   1.086   1.135   1.139   1.153   1.155   1.160   1.183
  1.199   1.213   1.219   1.223   1.246   1.269   1.272   1.283
  1.285   1.292   1.296   1.301   1.329   1.331   1.373   1.384
  1.396   1.454   1.463   1.467   1.472   1.478   1.489   1.494
  1.504   1.520   1.533   1.542   1.551   1.555   1.563   1.574
  1.581   1.588   1.590   1.597   1.599   1.609   1.621   1.632
  1.640   1.652   1.658   1.668   1.673   1.680   1.686   1.697
  1.708   1.711   1.715   1.728   1.738   1.741   1.748   1.751
  1.765   1.767   1.775   1.780   1.784   1.788   1.801   1.802
  1.816   1.823   1.830   1.854   1.858   1.860   1.877   1.880
  1.888   1.894   1.903   1.904   1.910   1.915   1.925   1.934
  1.939   1.950   1.962   1.969   1.989   1.995   1.998   2.004
  2.012   2.016   2.023   2.034   2.063   2.065   2.078   2.088
  2.104   2.106   2.110   2.117   2.132   2.143   2.163   2.166
  2.186   2.207   2.211   2.225   2.230   2.249   2.258   2.260
  2.270   2.275   2.288   2.303   2.310   2.317   2.328   2.349
  2.360   2.371   2.371   2.378   2.385   2.395   2.399   2.409
  2.437   2.438   2.451   2.458   2.468   2.484   2.490   2.495
  2.501   2.510   2.522   2.533   2.542   2.546   2.556   2.560
  2.569   2.578   2.581   2.598   2.606   2.616   2.619   2.637
  2.647   2.648   2.674   2.680   2.696   2.707   2.716   2.720
  2.727   2.735   2.743   2.752   2.774   2.777   2.786   2.796
  2.800   2.812   2.831   2.837   2.849   2.872   2.877   2.884
  2.903   2.907   2.924   2.933   2.936   2.957   2.983   3.001
  3.006   3.010   3.024   3.036   3.051   3.063   3.075   3.101
  3.113   3.124   3.133   3.155   3.178   3.186   3.193   3.215
  3.232   3.249   3.259   3.264   3.279   3.286   3.300   3.307
  3.340   3.359   3.379   3.396   3.409   3.452   3.461   3.488
  3.497   3.533   3.534   3.557   3.565   3.584   3.597   3.610
  3.621   3.655   3.661   3.694   3.697   3.717   3.719   3.764
  3.799   3.827   3.835   3.840   3.884   3.889   3.895   3.905
  3.920   3.943   3.984   4.008   4.035   4.078   4.105   4.115
  4.173   4.205   4.226   4.295   4.302   4.497   4.506   4.585
  4.659   4.711   4.727   4.807   4.833   4.853   4.874   4.886
  4.896   4.916   4.932   4.993   5.023   5.056   5.069   5.167
  5.237   5.346   5.527   5.697   5.714   7.388   7.426   7.505
  7.567   7.601   7.609   7.668   7.717   7.735   7.747   7.804
  7.820   7.833   7.875   7.991   8.012   8.154   8.193   8.297
  8.392   8.454   8.463   8.686   8.808   9.883   9.906   9.994
 10.016  10.042  10.048  10.056  10.131  13.729  13.975  14.102
 18.655  23.795  23.866  23.973  23.994  24.012  24.035  24.040
 24.071  49.996  69.782  69.795  69.898  69.904  69.935  69.967
 69.997  70.037 139.787
 --------------------------------------------------------------
 
          Ground-State Mulliken Net Atomic Charges

     Atom                 Charge (a.u.)
  ----------------------------------------
      1 C                    -0.402784
      2 C                    -0.427643
      3 C                    -0.177024
      4 C                    -0.268226
      5 C                    -0.196539
      6 C                    -0.216380
      7 O                     0.075575
      8 H                     0.205162
      9 H                     0.045971
     10 H                     0.195071
     11 H                     0.054772
     12 C                    -0.238821
     13 C                    -0.277857
     14 H                     0.149207
     15 H                     0.157641
     16 H                     0.166026
     17 H                     0.139479
     18 H                     0.153303
     19 H                     0.164449
     20 H                     0.132585
     21 H                     0.176573
     22 H                     0.162532
     23 H                     0.142315
     24 GH                    0.063538
     25 GH                    0.047341
     26 GH                   -0.055926
     27 GH                   -0.018603
     28 GH                   -0.012157
     29 GH                   -0.018235
     30 GH                    0.037436
     31 GH                   -0.000740
     32 GH                   -0.000043
     33 GH                   -0.000268
     34 GH                   -0.000144
     35 GH                   -0.006759
     36 GH                   -0.035770
     37 GH                    0.001419
     38 GH                   -0.001076
     39 GH                    0.030889
     40 GH                    0.000885
     41 GH                   -0.001239
     42 GH                    0.043867
     43 GH                    0.000753
     44 GH                    0.004477
     45 GH                    0.004124
     46 GH                    0.000845
  ----------------------------------------
  Sum of atomic charges =     0.000000

 -----------------------------------------------------------------
                    Cartesian Multipole Moments
 -----------------------------------------------------------------
    Charge (ESU x 10^10)
                -0.0000
    Dipole Moment (Debye)
         X      -0.0303      Y       0.4300      Z       1.5052
       Tot       1.5658
    Quadrupole Moments (Debye-Ang)
        XX     -56.4591     XY       0.1539     YY     -54.7990
        XZ       2.4109     YZ      -0.4808     ZZ     -59.0914
    Octopole Moments (Debye-Ang^2)
       XXX    -276.9644    XXY     -26.3819    XYY     -90.7390
       YYY     -74.6133    XXZ       1.7371    XYZ      -1.2978
       YYZ      -0.0033    XZZ     -96.4110    YZZ     -24.3398
       ZZZ       6.5635
    Hexadecapole Moments (Debye-Ang^3)
      XXXX   -1330.6775   XXXY     -66.2859   XXYY    -359.6237
      XYYY     -60.0930   YYYY    -828.1276   XXXZ     -23.4783
      XXYZ      17.9175   XYYZ      -8.0024   YYYZ      71.4532
      XXZZ    -288.0095   XYZZ     -19.2360   YYZZ    -193.2904
      XZZZ      -5.0403   YZZZ      67.1693   ZZZZ    -353.1522
 -----------------------------------------------------------------
Archival summary:
1\1\vega03.cac.cornell.edu\SP\ProcedureUnspecified\BasisUnspecified\1814h23\jj585\TueApr1700:03:352018TueApr1700:03:352018\0\\#,ProcedureUnspecified,BasisUnspecified,\\0,1\O\C,1,1.43358\C,1,1.43646,2,98.0224\C,3,1.51218,1,111.091,2,-178.393,0\H,4,1.09134,3,111.033,1,-57.0184,0\H,4,1.09192,3,109.775,1,62.6469,0\H,4,1.09264,3,110.458,1,-177.522,0\C,2,1.513,1,109.807,3,-177.944,0\H,8,1.07,2,109.471,1,-64.7983,0\H,8,1.07,2,109.471,1,55.2018,0\H,8,1.07,2,109.471,1,175.202,0\C,2,1.54115,1,102.483,3,57.1986,0\H,12,1.09096,2,110.128,1,81.1589,0\H,12,1.09186,2,112.95,1,-157.962,0\Gh,14,1.50188,12,152.907,2,137.266,0\Gh,15,1.07,14,121.501,12,42.6361,0\Gh,16,1.07,15,104.724,14,161.644,0\Gh,16,1.54738,15,111.379,14,38.0292,0\Gh,18,1.43358,16,103.124,15,-86.5463,0\Gh,19,1.43646,18,98.0224,16,-55.9256,0\Gh,20,1.51218,19,111.091,18,-178.393,0\Gh,21,1.09134,20,111.033,19,-57.0184,0\Gh,21,1.09192,20,109.775,19,62.6469,0\Gh,21,1.09264,20,110.458,19,-177.522,0\Gh,18,1.513,16,114.133,15,32.5138,0\Gh,25,1.07,18,109.471,16,180,0\Gh,25,1.07,18,109.471,16,-60.0002,0\Gh,25,1.07,18,109.471,16,60.0002,0\Gh,18,1.54115,16,108.926,15,165.118,0\Gh,29,1.09096,18,110.128,16,-170.072,0\Gh,29,1.09186,18,112.95,16,-49.1929,0\C,2,1.54738,1,103.124,3,-55.9256,0\H,32,1.07,2,113.95,1,155.255,0\H,32,1.07,2,111.379,1,-86.5463,0\Gh,20,1.55466,19,102.371,18,-54.4128,0\Gh,35,1.09132,20,109.614,19,-87.4148,0\Gh,35,1.09187,20,112.355,19,152.676,0\C,3,1.55466,1,102.371,2,-54.4128,0\H,38,1.09132,3,109.614,1,-87.4148,0\H,38,1.09187,3,112.355,1,152.676,0\Gh,40,1.45826,38,152.678,3,-150.128,0\Gh,41,1.07,40,121.12,38,-30.276,0\Gh,42,1.07,41,103.987,40,-161.237,0\C,32,1.5685,2,101.696,1,32.1918,0\H,44,1.07,32,111.7,2,120.458,0\H,44,1.07,32,114.71,2,-121.541,0\\\@

 Total job time:  349.52s(wall), 1381.49s(cpu) 
 Tue Apr 17 00:03:35 2018

        *************************************************************
        *                                                           *
        *  Thank you very much for using Q-Chem.  Have a nice day.  *
        *                                                           *
        *************************************************************


0 sent ACK to 0 
now end server 0 ... 
