mFile = /opt/software/qchem/qchem-5.0.1//bin/mpi/machines
Process 0 of 1 is on vega03.cac.cornell.edu - thread support 0
initial socket setup ...start
initial socket setup ...done 
now start server 0 ... 
vega03 10.84.3
Q-Chem Developer Version! Running on 10.84.3.*
                  Welcome to Q-Chem
     A Quantum Leap Into The Future Of Chemistry


 Q-Chem 5.0, Q-Chem, Inc., Pleasanton, CA (2017)

 Yihan Shao,  Zhengting Gan,  E. Epifanovsky,  A. T. B. Gilbert,  M. Wormit,  
 J. Kussmann,  A. W. Lange,  A. Behn,  Jia Deng,  Xintian Feng,  D. Ghosh,  
 M. Goldey,  P. R. Horn,  L. D. Jacobson,  I. Kaliman,  T. Kus,  A. Landau,  
 Jie Liu,  E. I. Proynov,  R. M. Richard,  R. P. Steele,  E. J. Sundstrom,  
 H. L. Woodcock III,  P. M. Zimmerman,  D. Zuev,  B. Albrecht,  E. Alguire,  
 S. A. Baeppler,  Z. Benda,  Y. A. Bernard,  E. J. Berquist,  K. B. Bravaya,  
 D. Casanova,  Chun-Min Chang,  Yunqing Chen,  A. Chien,  K. D. Closser,  
 M. P. Coons,  S. Dasgupta,  M. Diedenhofen,  Hainam Do,  R. G. Edgar,  
 Po-Tung Fang,  S. Fatehi,  Qingguo Feng,  Qinghui Ge,  A. Ghysels,  
 J. Gomes,  J. Gonthier,  A. Gunina,  M. W. D. Hanson-Heine,  
 P. H. P. Harbach,  A. W. Hauser,  J. E. Herr,  E. G. Hohenstein,  
 Z. C. Holden,  Kerwin Hui,  T.-C. Jagau,  Hyunjun Ji,  B. Kaduk,  
 K. Khistyaev,  Jaehoon Kim,  P. Klunzinger,  K. Koh,  D. Kosenkov,  
 T. Kowalczyk,  C. M. Krauter,  A. Kunitsa,  Ka Un Lao,  A. Laurent,  
 K. V. Lawler,  Joonho Lee,  D. Lefrancois,  S. Lehtola,  D. S. Levine,  
 Yi-Pei Li,  You-Sheng Lin,  Fenglai Liu,  E. Livshits,  A. Luenser,  
 P. Manohar,  E. Mansoor,  S. F. Manzer,  Shan-Ping Mao,  Yuezhi Mao,  
 N. Mardirossian,  A. V. Marenich,  L. A. Martinez-Martinez,  S. A. Maurer,  
 N. J. Mayhall,  S. C. McKenzie,  J.-M. Mewes,  A. F. Morrison,  K. Nanda,  
 T. S. Nguyen-Beck,  R. Olivares-Amaya,  J. A. Parkhill,  T. M. Perrine,  
 F. Plasser,  S. Prager,  A. Prociuk,  D. R. Rehn,  F. Rob,  M. Schneider,  
 N. Sergueev,  S. M. Sharada,  S. Sharma,  D. W. Small,  T. Stauch,  
 T. Stein,  Yu-Chuan Su,  A. J. W. Thom,  T. Tsuchimochi,  L. Vogt,  
 O. Vydrov,  M. A. Watson,  J. Wenzel,  M. de Wergifosse,  T. A. Wesolowski,  
 A. White,  J. Witte,  A. Yamada,  Jun Yang,  K. Yao,  S. Yeganeh,  
 S. R. Yost,  Zhi-Qiang You,  A. Zech,  Igor Ying Zhang,  Xing Zhang,  
 Yan Zhao,  Ying Zhu,  B. R. Brooks,  G. K. L. Chan,  C. J. Cramer,  
 M. S. Gordon,  W. J. Hehre,  A. Klamt,  M. W. Schmidt,  C. D. Sherrill,  
 D. G. Truhlar,  A. Aspuru-Guzik,  R. Baer,  A. T. Bell,  N. A. Besley,  
 Jeng-Da Chai,  A. Dreuw,  B. D. Dunietz,  T. R. Furlani,  Chao-Ping Hsu,  
 Yousung Jung,  Jing Kong,  D. S. Lambrecht,  WanZhen Liang,  C. Ochsenfeld,  
 V. A. Rassolov,  L. V. Slipchenko,  J. E. Subotnik,  T. Van Voorhis,  
 J. M. Herbert,  A. I. Krylov,  P. M. W. Gill,  M. Head-Gordon

 Contributors to earlier versions of Q-Chem not listed above: 
 R. D. Adamson,  B. Austin,  J. Baker,  G. J. O. Beran,  K. Brandhorst,  
 S. T. Brown,  E. F. C. Byrd,  A. K. Chakraborty,  C.-L. Cheng,  
 Siu Hung Chien,  D. M. Chipman,  D. L. Crittenden,  H. Dachsel,  
 R. A. DiStasio Jr.,  R. J. Doerksen,  A. D. Dutoi,  L. Fusti-Molnar,  
 W. A. Goddard III,  A. Golubeva-Zadorozhnaya,  S. R. Gwaltney,  G. Hawkins,  
 A. Heyden,  S. Hirata,  G. Kedziora,  F. J. Keil,  C. Kelley,  Jihan Kim,  
 R. A. King,  R. Z. Khaliullin,  P. P. Korambath,  W. Kurlancheek,  
 A. M. Lee,  M. S. Lee,  S. V. Levchenko,  Ching Yeh Lin,  D. Liotard,  
 R. C. Lochan,  I. Lotan,  P. E. Maslen,  N. Nair,  D. P. O'Neill,  
 D. Neuhauser,  E. Neuscamman,  C. M. Oana,  R. Olson,  B. Peters,  
 R. Peverati,  P. A. Pieniazek,  Y. M. Rhee,  J. Ritchie,  M. A. Rohrdanz,  
 E. Rosta,  N. J. Russ,  H. F. Schaefer III,  N. E. Schultz,  N. Shenvi,  
 A. C. Simmonett,  A. Sodt,  D. Stuck,  K. S. Thanthiriwatte,  V. Vanovschi,  
 Tao Wang,  A. Warshel,  C. F. Williams,  Q. Wu,  X. Xu,  W. Zhang

 Please cite Q-Chem as follows:
 Y. Shao et al., Mol. Phys. 113, 184-215 (2015)
 DOI: 10.1080/00268976.2014.952696

 Q-Chem 5.0.1 for Intel X86 EM64T Linux

 Parts of Q-Chem use Armadillo 5.200.1 (Boston Tea Smuggler).
 http://arma.sourceforge.net/

 Q-Chem begins on Tue Apr 17 00:54:49 2018  

Host: vega03.cac.cornell.edu
0

     Scratch files written to /scratch/jj585/vdw/01n00_distance_5.900_11.save//
 Parallel job on  1  processors

Checking the input file for inconsistencies... 	...done.

--------------------------------------------------------------
User input:
--------------------------------------------------------------
$molecule
0  1
--
0  1
C        -0.54444000        -0.68370000        -0.06689000
C        -0.55709000        +0.71878000        +0.05493000
C        -1.74320000        -1.41616000        -0.12552000
C        -2.93952000        -0.70056000        -0.05285000
C        -2.95313000        +0.68255000        +0.06934000
C        -1.77161000        +1.42404000        +0.12810000
H        -3.90354000        +1.20325000        +0.11710000
H        -3.87892000        -1.24211000        -0.08988000
C        -1.83960000        +2.92746000        +0.24839000
H        -1.24214000        +3.42352000        -0.52065000
H        -1.45503000        +3.26427000        +1.21284000
H        -2.87211000        +3.26623000        +0.14638000
H        -1.73878000        -2.44393000        -0.21875000
H        +0.35825000        -1.18166000        -0.11386000
H        +0.33551000        +1.23549000        +0.09097000
--
0  1
C        -0.74609000        -1.10554000        +5.81455000
C        -0.75874000        +0.29694000        +5.93637000
C        -1.94485000        -1.83800000        +5.75592000
C        -3.14117000        -1.12240000        +5.82859000
C        -3.15478000        +0.26071000        +5.95078000
C        -1.97326000        +1.00220000        +6.00954000
H        -4.10519000        +0.78141000        +5.99854000
H        -4.08057000        -1.66395000        +5.79156000
C        -2.04125000        +2.50562000        +6.12983000
H        -1.44379000        +3.00168000        +5.36079000
H        -1.65668000        +2.84243000        +7.09428000
H        -3.07376000        +2.84439000        +6.02782000
H        -1.94043000        -2.86577000        +5.66269000
H        +0.15660000        -1.60350000        +5.76758000
H        +0.13386000        +0.81365000        +5.97241000
$end

$rem
JOBTYPE                   SP
METHOD                    B3LYP
DFT_D                     d3_op
BASIS                     6-311++G(d,p)
SYMMETRY                  False
THRESH                    12
SCF_CONVERGENCE           8
MAX_SUB_FILE_NUM          128
MEM_STATIC                400
MEM_TOTAL                 4000
$end
--------------------------------------------------------------
 Adding empirical dispersion correction 
 ----------------------------------------------------------------
 Doing -D3(op) with
 s6 =   1.00000
 s8 =   0.78311
 a1 =   0.30000
 a2 =   4.25000
 n  =  10.00000
 -D3 energy without 3body term =     -0.0236503849 hartrees
 ----------------------------------------------------------------
             Standard Nuclear Orientation (Angstroms)
    I     Atom           X                Y                Z
 ----------------------------------------------------------------
    1      C       3.0300891198    -1.2098056421     1.1731770809
    2      C       3.0005941777     0.1974316992     1.2008067574
    3      C       2.9924744730    -1.9109598625    -0.0449889848
    4      C       2.9195196390    -1.1592144662    -1.2189149973
    5      C       2.8883404472     0.2287517852    -1.1927149356
    6      C       2.9257337122     0.9394006013     0.0084635157
    7      H       2.8371727105     0.7776396727    -2.1269486459
    8      H       2.8832933073    -1.6757345608    -2.1723375837
    9      C       2.9022136559     2.4487637225    -0.0167117878
   10      H       3.7254864705     2.8771248952     0.5605100718
   11      H       1.9781640609     2.8366046408     0.4159666512
   12      H       2.9851036967     2.8087413249    -1.0437431505
   13      H       3.0178414459    -2.9423381422    -0.0702457268
   14      H       3.0800665255    -1.7346340218     2.0603506881
   15      H       3.0343045500     0.6904088652     2.1068199970
   16      C      -2.8697198448    -1.2435664300     1.2057741932
   17      C      -2.8992147869     0.1636709112     1.2334038697
   18      C      -2.9073344916    -1.9447206504    -0.0123918725
   19      C      -2.9802893256    -1.1929752542    -1.1863178850
   20      C      -3.0114685175     0.1949909972    -1.1601178233
   21      C      -2.9740752525     0.9056398134     0.0410606280
   22      H      -3.0626362542     0.7438788847    -2.0943515336
   23      H      -3.0165156573    -1.7094953487    -2.1397404714
   24      C      -2.9975953087     2.4150029346     0.0158853245
   25      H      -2.1743224941     2.8433641073     0.5931071841
   26      H      -3.9216449038     2.8028438529     0.4485637635
   27      H      -2.9147052680     2.7749805370    -1.0111460382
   28      H      -2.8819675187    -2.9760989301    -0.0376486145
   29      H      -2.8197424391    -1.7683948098     2.0929478004
   30      H      -2.8655044147     0.6566480772     2.1394171093
 ----------------------------------------------------------------
 Molecular Point Group                 C1    NOp =  1
 Largest Abelian Subgroup              C1    NOp =  1
 Nuclear Repulsion Energy =   744.8409854793 hartrees
 There are       50 alpha and       50 beta electrons
 Requested basis set is 6-311++G(d,p)
 There are 164 shells and 420 basis functions

 Total QAlloc Memory Limit   4000 MB
 Mega-Array Size       392 MB
 MEM_STATIC part       400 MB
 A cutoff of  1.0D-12 yielded  10478 shell pairs
 There are     68304 function pairs (     72321 Cartesian)
 
 -------------------------------------------------------
 OpenMP Integral Computing Module                       
 Release: version 1.0, May 2013, Q-Chem Inc. Pittsburgh 
 -------------------------------------------------------
 Integral Job Info:
 Integral job number is                      11
 Integral operator is                         1
 short-range coefficients                     0
 long-range coefficients              100000000
 Omega coefficients                           0
 if combine SR and LR in K                    0
 Integral screening is                        0
 Integral computing path is                   2
 max size of driver memory is            800000
 size of driver memory is                593474
 size of scratch memory is              2361544
 max col of scratch BK array               1296
 max len of scratch array in speh3          155
 max len of scratch index in speh4           18
 max int batch size is                      520
 min int batch size is                       52
 fixed nKL is                                52
 max L of basis functions is                  2
 order of int derivative is                   0
 number of shells is                        164
 number of basis is                         434
 number of cartesian basis is               434
 number of contracted shell pairs         10478
 number of primitive shell pairs          23355
 maxK2 (contraction) of shell pair           36
 max number of K2 of shell pair               1
 max number of CS2 of shell pair           1998
 max number of PS2 of shell pair           3306
 mem total for path MDJ                  116586
 -------------------------------------------------------
 Smallest overlap matrix eigenvalue = 6.76E-07
 Linear dependence detected in AO basis
 Number of orthogonalized atomic orbitals = 419
 Maximum deviation from orthogonality = 7.214E-11

 Scale SEOQF with 1.000000e-01/1.000000e-01/1.000000e-01

 Standard Electronic Orientation quadrupole field applied
 Nucleus-field energy     =     0.0000000368 hartrees
 Guess from superposition of atomic densities
 Warning:  Energy on first SCF cycle will be non-variational
 A restricted hybrid HF-DFT SCF calculation will be
 performed using Pulay DIIS extrapolation
 Exchange:     0.2000 Hartree-Fock + 0.0800 Slater + 0.7200 B88
 Correlation:  0.1900 VWN1RPA + 0.8100 LYP
 Using SG-1 standard quadrature grid
 Dispersion:   Grimme D3
 SCF converges when DIIS error is below 1.0E-08
 using 4 threads for integral computing
 -------------------------------------------------------
 OpenMP Integral computing Module                
 Release: version 1.0, May 2013, Q-Chem Inc. Pittsburgh 
 -------------------------------------------------------
 -------------------------------------------------------
 OpenMP BLAS3 based DFT computing Module                
 Release: version 1.0, May 2013, Q-Chem Inc. Pittsburgh 
 -------------------------------------------------------
 ---------------------------------------
  Cycle       Energy         DIIS Error
 ---------------------------------------
    1    -546.3008399564      3.10E-02
    2    -542.9917988254      3.46E-03
    3    -542.9445448382      3.78E-03
    4    -543.2856356979      2.85E-04
    5    -543.2868635444      1.44E-04
    6    -543.2872202442      6.27E-05
    7    -543.2872997210      2.37E-05
    8    -543.2873133960      1.95E-06
    9    -543.2873134615      1.19E-06
   10    -543.2873134924      2.99E-07
   11    -543.2873134943      1.21E-07
   12    -543.2873134946      2.01E-08
   13    -543.2873134947      5.04E-09 Convergence criterion met
 ---------------------------------------
 SCF time:  CPU 323.56 s  wall 81.16 s
 SCF   energy in the final basis set = -543.28731349
 Total energy in the final basis set = -543.28731349
 
 --------------------------------------------------------------
 
                    Orbital Energies (a.u.)
 --------------------------------------------------------------
 
 Alpha MOs
 -- Occupied --
-10.183 -10.183 -10.171 -10.171 -10.170 -10.170 -10.168 -10.168
-10.168 -10.168 -10.167 -10.167 -10.167 -10.167  -0.856  -0.856
 -0.774  -0.774  -0.745  -0.745  -0.689  -0.689  -0.609  -0.609
 -0.588  -0.588  -0.519  -0.519  -0.463  -0.463  -0.460  -0.460
 -0.423  -0.422  -0.421  -0.421  -0.416  -0.416  -0.388  -0.388
 -0.355  -0.355  -0.348  -0.348  -0.340  -0.340  -0.252  -0.252
 -0.245  -0.245
 -- Virtual --
 -0.016  -0.013  -0.013  -0.010  -0.010   0.001   0.004   0.006
  0.015   0.020   0.024   0.028   0.036   0.037   0.041   0.048
  0.052   0.057   0.063   0.065   0.069   0.075   0.081   0.084
  0.086   0.100   0.103   0.106   0.108   0.111   0.116   0.118
  0.120   0.122   0.124   0.125   0.126   0.129   0.129   0.132
  0.132   0.133   0.138   0.140   0.144   0.145   0.150   0.154
  0.156   0.160   0.164   0.171   0.174   0.177   0.179   0.181
  0.182   0.184   0.186   0.188   0.193   0.200   0.202   0.209
  0.211   0.213   0.220   0.222   0.226   0.233   0.240   0.243
  0.246   0.253   0.255   0.260   0.267   0.268   0.271   0.280
  0.283   0.286   0.290   0.291   0.293   0.297   0.300   0.304
  0.313   0.316   0.320   0.323   0.339   0.346   0.350   0.359
  0.365   0.374   0.374   0.377   0.379   0.384   0.386   0.463
  0.472   0.473   0.494   0.511   0.522   0.530   0.535   0.539
  0.544   0.549   0.552   0.562   0.565   0.576   0.579   0.582
  0.588   0.597   0.599   0.601   0.614   0.615   0.621   0.629
  0.642   0.648   0.656   0.661   0.663   0.666   0.668   0.669
  0.679   0.685   0.690   0.696   0.702   0.724   0.729   0.731
  0.736   0.741   0.748   0.767   0.776   0.783   0.791   0.796
  0.805   0.828   0.833   0.853   0.855   0.864   0.865   0.885
  0.888   0.891   0.900   0.906   0.912   0.918   0.922   0.925
  0.928   0.941   0.944   0.948   0.965   1.000   1.009   1.017
  1.018   1.037   1.039   1.042   1.046   1.079   1.086   1.092
  1.095   1.126   1.127   1.147   1.149   1.322   1.327   1.360
  1.362   1.369   1.371   1.411   1.421   1.462   1.464   1.473
  1.484   1.526   1.532   1.539   1.546   1.548   1.555   1.561
  1.563   1.576   1.578   1.589   1.591   1.607   1.610   1.614
  1.628   1.639   1.652   1.656   1.666   1.674   1.681   1.711
  1.719   1.757   1.761   1.765   1.769   1.802   1.802   1.820
  1.821   1.839   1.850   1.854   1.864   1.895   1.900   1.918
  1.920   1.936   1.939   1.941   1.942   1.960   1.962   1.962
  1.964   2.023   2.027   2.030   2.036   2.039   2.041   2.101
  2.105   2.109   2.117   2.191   2.198   2.238   2.241   2.249
  2.252   2.321   2.325   2.400   2.404   2.413   2.417   2.445
  2.449   2.454   2.467   2.483   2.488   2.497   2.516   2.548
  2.556   2.559   2.565   2.589   2.606   2.630   2.640   2.671
  2.675   2.678   2.682   2.695   2.705   2.707   2.727   2.729
  2.736   2.740   2.748   2.757   2.759   2.767   2.777   2.784
  2.810   2.818   2.842   2.849   2.872   2.898   2.903   2.908
  2.924   2.934   2.946   2.952   2.956   2.992   3.002   3.003
  3.014   3.090   3.095   3.151   3.159   3.223   3.226   3.349
  3.357   3.381   3.394   3.508   3.517   3.539   3.553   3.651
  3.656   3.703   3.718   3.791   3.794   3.858   3.862   4.034
  4.037   4.122   4.124   4.184   4.190   4.201   4.207   4.344
  4.345   4.840   4.841  23.636  23.663  23.938  23.942  23.999
 24.005  24.007  24.012  24.097  24.098  24.111  24.111  24.206
 24.209
 --------------------------------------------------------------
 
          Ground-State Mulliken Net Atomic Charges

     Atom                 Charge (a.u.)
  ----------------------------------------
      1 C                    -0.016252
      2 C                    -0.429245
      3 C                    -0.342012
      4 C                    -0.048838
      5 C                    -0.756572
      6 C                     0.994814
      7 H                     0.133417
      8 H                     0.169738
      9 C                    -0.617409
     10 H                     0.146471
     11 H                     0.153988
     12 H                     0.147260
     13 H                     0.146845
     14 H                     0.158826
     15 H                     0.158340
     16 C                    -0.073668
     17 C                    -0.376175
     18 C                    -0.311101
     19 C                    -0.121870
     20 C                    -0.656162
     21 C                     0.935208
     22 H                     0.135197
     23 H                     0.170227
     24 C                    -0.617942
     25 H                     0.147408
     26 H                     0.158108
     27 H                     0.147604
     28 H                     0.147196
     29 H                     0.159160
     30 H                     0.157440
  ----------------------------------------
  Sum of atomic charges =     0.000000

 -----------------------------------------------------------------
                    Cartesian Multipole Moments
 -----------------------------------------------------------------
    Charge (ESU x 10^10)
                 0.0000
    Dipole Moment (Debye)
         X      -0.0156      Y       0.6929      Z       0.1353
       Tot       0.7062
    Quadrupole Moments (Debye-Ang)
        XX     -93.7482     XY      -0.3281     YY     -77.0334
        XZ       0.6204     YZ       0.0803     ZZ     -78.3760
    Octopole Moments (Debye-Ang^2)
       XXX      -1.1586    XXY      14.3354    XYY       0.7681
       YYY     -10.7166    XXZ       2.7007    XYZ      -0.5217
       YYZ       0.6240    XZZ       0.3093    YZZ      -1.6471
       ZZZ       0.1774
    Hexadecapole Moments (Debye-Ang^3)
      XXXX   -4996.6627   XXXY     -10.6750   XXYY    -917.6991
      XYYY      -0.8236   YYYY   -1242.3075   XXXZ      16.4624
      XXYZ       4.1067   XYYZ       1.1751   YYYZ       0.5043
      XXZZ    -821.5939   XYZZ       0.4988   YYZZ    -298.4522
      XZZZ       3.6843   YZZZ      -3.5789   ZZZZ    -578.4349
 -----------------------------------------------------------------
Archival summary:
1\1\vega03.cac.cornell.edu\SP\ProcedureUnspecified\BasisUnspecified\1416\jj585\TueApr1700:56:112018TueApr1700:56:112018\0\\#,ProcedureUnspecified,BasisUnspecified,\\0,1\C\C,1,1.39616\H,2,1.08475,1,118.991\C,2,1.38856,1,121.629,3,179.783,0\H,4,1.08495,2,119.453,1,179.671,0\C,4,1.3959,2,121.575,1,-0.129654,0\H,6,1.032,4,121.26,2,-179.84,0\C,6,1.40604,4,117.481,2,0.160349,0\H,8,1.032,6,119.504,4,179.742,0\C,1,1.40634,2,117.536,3,-179.6,0\H,10,1.032,1,119.607,2,179.72,0\C,1,1.50976,2,119.611,3,-0.341033,0\H,12,1.09144,1,110.135,2,-7.24194,0\H,12,1.09156,1,111.21,2,113.289,0\H,12,1.09291,1,111.796,2,-127.427,0\H,14,4.15627,12,149.683,1,-51.0494,0\C,16,1.09291,14,136.84,12,-9.43475,0\H,17,1.09144,16,108.09,14,-58.2723,0\H,17,1.09156,16,106.802,14,-175.041,0\C,17,1.50976,16,111.796,14,63.1031,0\C,20,1.39616,17,119.611,16,-127.427,0\H,21,1.08475,20,118.991,17,-0.341033,0\C,21,1.38856,20,121.629,17,179.442,0\H,23,1.08495,21,119.453,20,179.671,0\C,23,1.3959,21,121.575,20,-0.129654,0\H,25,1.032,23,121.26,21,-179.84,0\C,25,1.40604,23,117.481,21,0.160349,0\H,27,1.032,25,119.504,23,179.742,0\C,20,1.40634,17,122.848,16,51.7903,0\H,29,1.032,20,119.607,17,0.487832,0\\\@

 Total job time:  81.82s(wall), 325.70s(cpu) 
 Tue Apr 17 00:56:11 2018

        *************************************************************
        *                                                           *
        *  Thank you very much for using Q-Chem.  Have a nice day.  *
        *                                                           *
        *************************************************************


0 sent ACK to 0 
now end server 0 ... 
