mFile = /opt/software/qchem/qchem-5.0.1//bin/mpi/machines
Process 0 of 1 is on vega03.cac.cornell.edu - thread support 0
initial socket setup ...start
initial socket setup ...done 
now start server 0 ... 
vega03 10.84.3
Q-Chem Developer Version! Running on 10.84.3.*
                  Welcome to Q-Chem
     A Quantum Leap Into The Future Of Chemistry


 Q-Chem 5.0, Q-Chem, Inc., Pleasanton, CA (2017)

 Yihan Shao,  Zhengting Gan,  E. Epifanovsky,  A. T. B. Gilbert,  M. Wormit,  
 J. Kussmann,  A. W. Lange,  A. Behn,  Jia Deng,  Xintian Feng,  D. Ghosh,  
 M. Goldey,  P. R. Horn,  L. D. Jacobson,  I. Kaliman,  T. Kus,  A. Landau,  
 Jie Liu,  E. I. Proynov,  R. M. Richard,  R. P. Steele,  E. J. Sundstrom,  
 H. L. Woodcock III,  P. M. Zimmerman,  D. Zuev,  B. Albrecht,  E. Alguire,  
 S. A. Baeppler,  Z. Benda,  Y. A. Bernard,  E. J. Berquist,  K. B. Bravaya,  
 D. Casanova,  Chun-Min Chang,  Yunqing Chen,  A. Chien,  K. D. Closser,  
 M. P. Coons,  S. Dasgupta,  M. Diedenhofen,  Hainam Do,  R. G. Edgar,  
 Po-Tung Fang,  S. Fatehi,  Qingguo Feng,  Qinghui Ge,  A. Ghysels,  
 J. Gomes,  J. Gonthier,  A. Gunina,  M. W. D. Hanson-Heine,  
 P. H. P. Harbach,  A. W. Hauser,  J. E. Herr,  E. G. Hohenstein,  
 Z. C. Holden,  Kerwin Hui,  T.-C. Jagau,  Hyunjun Ji,  B. Kaduk,  
 K. Khistyaev,  Jaehoon Kim,  P. Klunzinger,  K. Koh,  D. Kosenkov,  
 T. Kowalczyk,  C. M. Krauter,  A. Kunitsa,  Ka Un Lao,  A. Laurent,  
 K. V. Lawler,  Joonho Lee,  D. Lefrancois,  S. Lehtola,  D. S. Levine,  
 Yi-Pei Li,  You-Sheng Lin,  Fenglai Liu,  E. Livshits,  A. Luenser,  
 P. Manohar,  E. Mansoor,  S. F. Manzer,  Shan-Ping Mao,  Yuezhi Mao,  
 N. Mardirossian,  A. V. Marenich,  L. A. Martinez-Martinez,  S. A. Maurer,  
 N. J. Mayhall,  S. C. McKenzie,  J.-M. Mewes,  A. F. Morrison,  K. Nanda,  
 T. S. Nguyen-Beck,  R. Olivares-Amaya,  J. A. Parkhill,  T. M. Perrine,  
 F. Plasser,  S. Prager,  A. Prociuk,  D. R. Rehn,  F. Rob,  M. Schneider,  
 N. Sergueev,  S. M. Sharada,  S. Sharma,  D. W. Small,  T. Stauch,  
 T. Stein,  Yu-Chuan Su,  A. J. W. Thom,  T. Tsuchimochi,  L. Vogt,  
 O. Vydrov,  M. A. Watson,  J. Wenzel,  M. de Wergifosse,  T. A. Wesolowski,  
 A. White,  J. Witte,  A. Yamada,  Jun Yang,  K. Yao,  S. Yeganeh,  
 S. R. Yost,  Zhi-Qiang You,  A. Zech,  Igor Ying Zhang,  Xing Zhang,  
 Yan Zhao,  Ying Zhu,  B. R. Brooks,  G. K. L. Chan,  C. J. Cramer,  
 M. S. Gordon,  W. J. Hehre,  A. Klamt,  M. W. Schmidt,  C. D. Sherrill,  
 D. G. Truhlar,  A. Aspuru-Guzik,  R. Baer,  A. T. Bell,  N. A. Besley,  
 Jeng-Da Chai,  A. Dreuw,  B. D. Dunietz,  T. R. Furlani,  Chao-Ping Hsu,  
 Yousung Jung,  Jing Kong,  D. S. Lambrecht,  WanZhen Liang,  C. Ochsenfeld,  
 V. A. Rassolov,  L. V. Slipchenko,  J. E. Subotnik,  T. Van Voorhis,  
 J. M. Herbert,  A. I. Krylov,  P. M. W. Gill,  M. Head-Gordon

 Contributors to earlier versions of Q-Chem not listed above: 
 R. D. Adamson,  B. Austin,  J. Baker,  G. J. O. Beran,  K. Brandhorst,  
 S. T. Brown,  E. F. C. Byrd,  A. K. Chakraborty,  C.-L. Cheng,  
 Siu Hung Chien,  D. M. Chipman,  D. L. Crittenden,  H. Dachsel,  
 R. A. DiStasio Jr.,  R. J. Doerksen,  A. D. Dutoi,  L. Fusti-Molnar,  
 W. A. Goddard III,  A. Golubeva-Zadorozhnaya,  S. R. Gwaltney,  G. Hawkins,  
 A. Heyden,  S. Hirata,  G. Kedziora,  F. J. Keil,  C. Kelley,  Jihan Kim,  
 R. A. King,  R. Z. Khaliullin,  P. P. Korambath,  W. Kurlancheek,  
 A. M. Lee,  M. S. Lee,  S. V. Levchenko,  Ching Yeh Lin,  D. Liotard,  
 R. C. Lochan,  I. Lotan,  P. E. Maslen,  N. Nair,  D. P. O'Neill,  
 D. Neuhauser,  E. Neuscamman,  C. M. Oana,  R. Olson,  B. Peters,  
 R. Peverati,  P. A. Pieniazek,  Y. M. Rhee,  J. Ritchie,  M. A. Rohrdanz,  
 E. Rosta,  N. J. Russ,  H. F. Schaefer III,  N. E. Schultz,  N. Shenvi,  
 A. C. Simmonett,  A. Sodt,  D. Stuck,  K. S. Thanthiriwatte,  V. Vanovschi,  
 Tao Wang,  A. Warshel,  C. F. Williams,  Q. Wu,  X. Xu,  W. Zhang

 Please cite Q-Chem as follows:
 Y. Shao et al., Mol. Phys. 113, 184-215 (2015)
 DOI: 10.1080/00268976.2014.952696

 Q-Chem 5.0.1 for Intel X86 EM64T Linux

 Parts of Q-Chem use Armadillo 5.200.1 (Boston Tea Smuggler).
 http://arma.sourceforge.net/

 Q-Chem begins on Tue Apr 17 00:49:17 2018  

Host: vega03.cac.cornell.edu
0

     Scratch files written to /scratch/jj585/vdw/01n00_distance_4.600_01.save//
 Parallel job on  1  processors

Checking the input file for inconsistencies... 	...done.

--------------------------------------------------------------
User input:
--------------------------------------------------------------
$molecule
0  1
C        -0.70166000        -1.01259000        +4.51864000
C        -0.71431000        +0.38989000        +4.64046000
C        -1.90042000        -1.74505000        +4.46001000
C        -3.09674000        -1.02945000        +4.53268000
C        -3.11035000        +0.35366000        +4.65487000
C        -1.92883000        +1.09515000        +4.71363000
H        -4.06076000        +0.87436000        +4.70263000
H        -4.03614000        -1.57100000        +4.49565000
C        -1.99682000        +2.59857000        +4.83392000
H        -1.39936000        +3.09463000        +4.06488000
H        -1.61225000        +2.93538000        +5.79837000
H        -3.02933000        +2.93734000        +4.73191000
H        -1.89600000        -2.77282000        +4.36678000
H        +0.20103000        -1.51055000        +4.47167000
H        +0.17829000        +0.90660000        +4.67650000
@C        -0.54444000        -0.68370000        -0.06689000
@C        -0.55709000        +0.71878000        +0.05493000
@C        -1.74320000        -1.41616000        -0.12552000
@C        -2.93952000        -0.70056000        -0.05285000
@C        -2.95313000        +0.68255000        +0.06934000
@C        -1.77161000        +1.42404000        +0.12810000
@H        -3.90354000        +1.20325000        +0.11710000
@H        -3.87892000        -1.24211000        -0.08988000
@C        -1.83960000        +2.92746000        +0.24839000
@H        -1.24214000        +3.42352000        -0.52065000
@H        -1.45503000        +3.26427000        +1.21284000
@H        -2.87211000        +3.26623000        +0.14638000
@H        -1.73878000        -2.44393000        -0.21875000
@H        +0.35825000        -1.18166000        -0.11386000
@H        +0.33551000        +1.23549000        +0.09097000
$end

$rem
JOBTYPE                   SP
METHOD                    B3LYP
DFT_D                     d3_op
BASIS                     6-311++G(d,p)
SYMMETRY                  False
THRESH                    12
SCF_CONVERGENCE           8
MAX_SUB_FILE_NUM          128
MEM_STATIC                400
MEM_TOTAL                 4000
$end
--------------------------------------------------------------
 Adding empirical dispersion correction 
 ----------------------------------------------------------------
 Doing -D3(op) with
 s6 =   1.00000
 s8 =   0.78311
 a1 =   0.30000
 a2 =   4.25000
 n  =  10.00000
 -D3 energy without 3body term =     -0.0113800034 hartrees
 ----------------------------------------------------------------
             Standard Nuclear Orientation (Angstroms)
    I     Atom           X                Y                Z
 ----------------------------------------------------------------
    1      C      -0.7016600000    -1.0125900000     4.5186400000
    2      C      -0.7143100000     0.3898900000     4.6404600000
    3      C      -1.9004200000    -1.7450500000     4.4600100000
    4      C      -3.0967400000    -1.0294500000     4.5326800000
    5      C      -3.1103500000     0.3536600000     4.6548700000
    6      C      -1.9288300000     1.0951500000     4.7136300000
    7      H      -4.0607600000     0.8743600000     4.7026300000
    8      H      -4.0361400000    -1.5710000000     4.4956500000
    9      C      -1.9968200000     2.5985700000     4.8339200000
   10      H      -1.3993600000     3.0946300000     4.0648800000
   11      H      -1.6122500000     2.9353800000     5.7983700000
   12      H      -3.0293300000     2.9373400000     4.7319100000
   13      H      -1.8960000000    -2.7728200000     4.3667800000
   14      H       0.2010300000    -1.5105500000     4.4716700000
   15      H       0.1782900000     0.9066000000     4.6765000000
   16      GH     -0.5444400000    -0.6837000000    -0.0668900000
   17      GH     -0.5570900000     0.7187800000     0.0549300000
   18      GH     -1.7432000000    -1.4161600000    -0.1255200000
   19      GH     -2.9395200000    -0.7005600000    -0.0528500000
   20      GH     -2.9531300000     0.6825500000     0.0693400000
   21      GH     -1.7716100000     1.4240400000     0.1281000000
   22      GH     -3.9035400000     1.2032500000     0.1171000000
   23      GH     -3.8789200000    -1.2421100000    -0.0898800000
   24      GH     -1.8396000000     2.9274600000     0.2483900000
   25      GH     -1.2421400000     3.4235200000    -0.5206500000
   26      GH     -1.4550300000     3.2642700000     1.2128400000
   27      GH     -2.8721100000     3.2662300000     0.1463800000
   28      GH     -1.7387800000    -2.4439300000    -0.2187500000
   29      GH      0.3582500000    -1.1816600000    -0.1138600000
   30      GH      0.3355100000     1.2354900000     0.0909700000
 ----------------------------------------------------------------
 Nuclear Repulsion Energy =   269.2168625664 hartrees
 There are       25 alpha and       25 beta electrons
 Requested basis set is 6-311++G(d,p)
 There are 164 shells and 420 basis functions

 Total QAlloc Memory Limit   4000 MB
 Mega-Array Size       392 MB
 MEM_STATIC part       400 MB
 A cutoff of  1.0D-12 yielded  11045 shell pairs
 There are     72888 function pairs (     77497 Cartesian)
 
 -------------------------------------------------------
 OpenMP Integral Computing Module                       
 Release: version 1.0, May 2013, Q-Chem Inc. Pittsburgh 
 -------------------------------------------------------
 Integral Job Info:
 Integral job number is                      11
 Integral operator is                         1
 short-range coefficients                     0
 long-range coefficients              100000000
 Omega coefficients                           0
 if combine SR and LR in K                    0
 Integral screening is                        0
 Integral computing path is                   2
 max size of driver memory is            800000
 size of driver memory is                593474
 size of scratch memory is              2361544
 max col of scratch BK array               1296
 max len of scratch array in speh3          155
 max len of scratch index in speh4           18
 max int batch size is                      520
 min int batch size is                       52
 fixed nKL is                                52
 max L of basis functions is                  2
 order of int derivative is                   0
 number of shells is                        164
 number of basis is                         434
 number of cartesian basis is               434
 number of contracted shell pairs         11045
 number of primitive shell pairs          24241
 maxK2 (contraction) of shell pair           36
 max number of K2 of shell pair               1
 max number of CS2 of shell pair           2084
 max number of PS2 of shell pair           3396
 mem total for path MDJ                  122712
 -------------------------------------------------------
 Smallest overlap matrix eigenvalue = 3.77E-07
 Linear dependence detected in AO basis
 Number of orthogonalized atomic orbitals = 419
 Maximum deviation from orthogonality = 1.655E-10

 Scale SEOQF with 1.000000e-01/1.000000e-01/1.000000e-02

 Standard Electronic Orientation quadrupole field applied
 Nucleus-field energy     =     0.0000000057 hartrees
 Guess from superposition of atomic densities
 Warning:  Energy on first SCF cycle will be non-variational

 Q-Chem warning in module /opt/software/qchem/qchem-5.0.1/libgen/Atomic_PolEc.C, line 58:

 No atomic polarizability available.


 Q-Chem warning in module /opt/software/qchem/qchem-5.0.1/libgen/Atomic_PolEc.C, line 73:

 No atomic polarizability available.


 Q-Chem warning in module /opt/software/qchem/qchem-5.0.1/libgen/Atomic_PolEc.C, line 58:

 No atomic polarizability available.


 Q-Chem warning in module /opt/software/qchem/qchem-5.0.1/libgen/Atomic_PolEc.C, line 73:

 No atomic polarizability available.


 Q-Chem warning in module /opt/software/qchem/qchem-5.0.1/libgen/Atomic_PolEc.C, line 58:

 No atomic polarizability available.


 Q-Chem warning in module /opt/software/qchem/qchem-5.0.1/libgen/Atomic_PolEc.C, line 73:

 No atomic polarizability available.


 Q-Chem warning in module /opt/software/qchem/qchem-5.0.1/libgen/Atomic_PolEc.C, line 58:

 No atomic polarizability available.


 Q-Chem warning in module /opt/software/qchem/qchem-5.0.1/libgen/Atomic_PolEc.C, line 73:

 No atomic polarizability available.


 Q-Chem warning in module /opt/software/qchem/qchem-5.0.1/libgen/Atomic_PolEc.C, line 58:

 No atomic polarizability available.


 Q-Chem warning in module /opt/software/qchem/qchem-5.0.1/libgen/Atomic_PolEc.C, line 73:

 No atomic polarizability available.


 Q-Chem warning in module /opt/software/qchem/qchem-5.0.1/libgen/Atomic_PolEc.C, line 58:

 No atomic polarizability available.


 Q-Chem warning in module /opt/software/qchem/qchem-5.0.1/libgen/Atomic_PolEc.C, line 73:

 No atomic polarizability available.


 Q-Chem warning in module /opt/software/qchem/qchem-5.0.1/libgen/Atomic_PolEc.C, line 58:

 No atomic polarizability available.


 Q-Chem warning in module /opt/software/qchem/qchem-5.0.1/libgen/Atomic_PolEc.C, line 73:

 No atomic polarizability available.


 Q-Chem warning in module /opt/software/qchem/qchem-5.0.1/libgen/Atomic_PolEc.C, line 58:

 No atomic polarizability available.


 Q-Chem warning in module /opt/software/qchem/qchem-5.0.1/libgen/Atomic_PolEc.C, line 73:

 No atomic polarizability available.


 Q-Chem warning in module /opt/software/qchem/qchem-5.0.1/libgen/Atomic_PolEc.C, line 58:

 No atomic polarizability available.


 Q-Chem warning in module /opt/software/qchem/qchem-5.0.1/libgen/Atomic_PolEc.C, line 73:

 No atomic polarizability available.


 Q-Chem warning in module /opt/software/qchem/qchem-5.0.1/libgen/Atomic_PolEc.C, line 58:

 No atomic polarizability available.


 Q-Chem warning in module /opt/software/qchem/qchem-5.0.1/libgen/Atomic_PolEc.C, line 73:

 No atomic polarizability available.


 Q-Chem warning in module /opt/software/qchem/qchem-5.0.1/libgen/Atomic_PolEc.C, line 58:

 No atomic polarizability available.


 Q-Chem warning in module /opt/software/qchem/qchem-5.0.1/libgen/Atomic_PolEc.C, line 73:

 No atomic polarizability available.


 Q-Chem warning in module /opt/software/qchem/qchem-5.0.1/libgen/Atomic_PolEc.C, line 58:

 No atomic polarizability available.


 Q-Chem warning in module /opt/software/qchem/qchem-5.0.1/libgen/Atomic_PolEc.C, line 73:

 No atomic polarizability available.


 Q-Chem warning in module /opt/software/qchem/qchem-5.0.1/libgen/Atomic_PolEc.C, line 58:

 No atomic polarizability available.


 Q-Chem warning in module /opt/software/qchem/qchem-5.0.1/libgen/Atomic_PolEc.C, line 73:

 No atomic polarizability available.


 Q-Chem warning in module /opt/software/qchem/qchem-5.0.1/libgen/Atomic_PolEc.C, line 58:

 No atomic polarizability available.


 Q-Chem warning in module /opt/software/qchem/qchem-5.0.1/libgen/Atomic_PolEc.C, line 73:

 No atomic polarizability available.


 Q-Chem warning in module /opt/software/qchem/qchem-5.0.1/libgen/Atomic_PolEc.C, line 58:

 No atomic polarizability available.


 Q-Chem warning in module /opt/software/qchem/qchem-5.0.1/libgen/Atomic_PolEc.C, line 73:

 No atomic polarizability available.

 A restricted hybrid HF-DFT SCF calculation will be
 performed using Pulay DIIS extrapolation
 Exchange:     0.2000 Hartree-Fock + 0.0800 Slater + 0.7200 B88
 Correlation:  0.1900 VWN1RPA + 0.8100 LYP
 Using SG-1 standard quadrature grid
 Dispersion:   Grimme D3
 SCF converges when DIIS error is below 1.0E-08
 using 4 threads for integral computing
 -------------------------------------------------------
 OpenMP Integral computing Module                
 Release: version 1.0, May 2013, Q-Chem Inc. Pittsburgh 
 -------------------------------------------------------
 -------------------------------------------------------
 OpenMP BLAS3 based DFT computing Module                
 Release: version 1.0, May 2013, Q-Chem Inc. Pittsburgh 
 -------------------------------------------------------
 ---------------------------------------
  Cycle       Energy         DIIS Error
 ---------------------------------------
    1    -273.1501074863      2.19E-02
    2    -271.4966849863      2.44E-03
    3    -271.4747159749      2.65E-03
    4    -271.6429529823      1.99E-04
    5    -271.6435508679      1.01E-04
    6    -271.6437266405      4.35E-05
    7    -271.6437650478      1.59E-05
    8    -271.6437711740      1.31E-06
    9    -271.6437712037      7.97E-07
   10    -271.6437712175      1.85E-07
   11    -271.6437712182      8.03E-08
   12    -271.6437712184      9.80E-09 Convergence criterion met
 ---------------------------------------
 SCF time:  CPU 331.15 s  wall 83.06 s
 SCF   energy in the final basis set = -271.64377122
 Total energy in the final basis set = -271.64377122
 
 --------------------------------------------------------------
 
                    Orbital Energies (a.u.)
 --------------------------------------------------------------
 
 Alpha MOs
 -- Occupied --
-10.185 -10.174 -10.172 -10.171 -10.170 -10.169 -10.169  -0.858
 -0.776  -0.747  -0.691  -0.611  -0.591  -0.521  -0.465  -0.462
 -0.424  -0.423  -0.418  -0.390  -0.358  -0.350  -0.342  -0.255
 -0.247
 -- Virtual --
 -0.017  -0.013  -0.008   0.005   0.009   0.019   0.028   0.031
  0.035   0.040   0.047   0.052   0.055   0.061   0.065   0.068
  0.076   0.083   0.089   0.090   0.091   0.102   0.104   0.108
  0.111   0.113   0.120   0.124   0.125   0.128   0.130   0.130
  0.135   0.137   0.140   0.143   0.151   0.157   0.160   0.162
  0.163   0.170   0.172   0.175   0.179   0.180   0.185   0.187
  0.191   0.193   0.196   0.202   0.207   0.213   0.214   0.221
  0.224   0.231   0.232   0.237   0.243   0.244   0.251   0.252
  0.260   0.261   0.267   0.271   0.273   0.279   0.280   0.290
  0.295   0.298   0.301   0.308   0.311   0.313   0.317   0.328
  0.329   0.333   0.350   0.356   0.363   0.369   0.373   0.376
  0.380   0.397   0.409   0.413   0.424   0.427   0.436   0.443
  0.452   0.478   0.484   0.487   0.508   0.516   0.521   0.528
  0.544   0.546   0.552   0.559   0.575   0.585   0.585   0.590
  0.593   0.598   0.604   0.610   0.617   0.626   0.636   0.639
  0.644   0.652   0.653   0.663   0.669   0.676   0.679   0.695
  0.707   0.715   0.725   0.732   0.736   0.740   0.748   0.750
  0.775   0.785   0.803   0.811   0.813   0.822   0.852   0.859
  0.863   0.882   0.896   0.898   0.907   0.922   0.927   0.938
  0.943   0.950   0.963   0.976   1.006   1.015   1.017   1.023
  1.041   1.051   1.078   1.093   1.097   1.125   1.130   1.148
  1.163   1.188   1.208   1.209   1.238   1.293   1.336   1.358
  1.370   1.412   1.426   1.433   1.449   1.461   1.480   1.491
  1.502   1.526   1.530   1.534   1.536   1.542   1.556   1.563
  1.568   1.577   1.594   1.598   1.615   1.625   1.653   1.663
  1.674   1.690   1.697   1.712   1.714   1.727   1.741   1.744
  1.756   1.767   1.773   1.786   1.788   1.804   1.812   1.826
  1.848   1.858   1.864   1.870   1.889   1.898   1.903   1.909
  1.923   1.938   1.943   1.956   1.961   1.964   1.965   1.984
  2.011   2.027   2.036   2.039   2.042   2.049   2.063   2.096
  2.104   2.116   2.147   2.163   2.200   2.240   2.252   2.258
  2.307   2.313   2.321   2.324   2.333   2.392   2.402   2.410
  2.418   2.419   2.428   2.447   2.449   2.481   2.487   2.493
  2.505   2.524   2.536   2.550   2.558   2.563   2.575   2.586
  2.601   2.605   2.635   2.646   2.675   2.685   2.707   2.731
  2.739   2.748   2.755   2.766   2.769   2.782   2.810   2.834
  2.840   2.866   2.901   2.905   2.917   2.923   2.930   2.943
  2.953   2.988   2.992   3.000   3.002   3.013   3.044   3.095
  3.115   3.158   3.172   3.205   3.226   3.248   3.282   3.345
  3.358   3.360   3.386   3.394   3.399   3.445   3.484   3.504
  3.510   3.518   3.552   3.554   3.570   3.593   3.625   3.654
  3.665   3.712   3.724   3.793   3.796   3.862   4.016   4.035
  4.041   4.122   4.180   4.187   4.205   4.344   4.637   4.728
  4.838   4.858   4.867   4.917   4.961   5.099   5.205   5.648
  7.077   7.131   7.161   7.226   7.242   7.376   7.622   7.719
  7.727   7.750   7.781   7.785   7.828   7.842   7.873   7.986
  8.031   8.054   8.176   8.487   8.913   9.714  10.012  10.195
 10.215  10.243  10.255  10.317  23.671  23.942  24.003  24.014
 24.096  24.108  24.207  69.827  69.939  70.052  70.057  70.077
 70.082  70.121
 --------------------------------------------------------------
 
          Ground-State Mulliken Net Atomic Charges

     Atom                 Charge (a.u.)
  ----------------------------------------
      1 C                    -0.140316
      2 C                    -0.375412
      3 C                    -0.327152
      4 C                    -0.182329
      5 C                    -0.399673
      6 C                     0.843509
      7 H                     0.154567
      8 H                     0.171504
      9 C                    -0.668767
     10 H                     0.156298
     11 H                     0.158598
     12 H                     0.141261
     13 H                     0.151280
     14 H                     0.160324
     15 H                     0.170143
     16 GH                   -0.037986
     17 GH                    0.010526
     18 GH                    0.033925
     19 GH                   -0.032809
     20 GH                    0.015937
     21 GH                   -0.020537
     22 GH                    0.001439
     23 GH                   -0.000424
     24 GH                    0.015901
     25 GH                   -0.000407
     26 GH                   -0.003567
     27 GH                    0.001623
     28 GH                    0.003516
     29 GH                   -0.000938
     30 GH                   -0.000035
  ----------------------------------------
  Sum of atomic charges =    -0.000000

 -----------------------------------------------------------------
                    Cartesian Multipole Moments
 -----------------------------------------------------------------
    Charge (ESU x 10^10)
                -0.0000
    Dipole Moment (Debye)
         X       0.0628      Y       0.3878      Z       0.0304
       Tot       0.3941
    Quadrupole Moments (Debye-Ang)
        XX     -39.3943     XY      -0.7128     YY     -38.3437
        XZ       0.2034     YZ       2.4908     ZZ     -46.1185
    Octopole Moments (Debye-Ang^2)
       XXX     227.2380    XXY      -6.3625    XYY      74.3425
       YYY     -25.0765    XXZ    -182.4235    XYZ      -4.5813
       YYZ    -178.4006    XZZ      90.5571    YZZ      10.3441
       ZZZ    -641.1194
    Hexadecapole Moments (Debye-Ang^3)
      XXXX   -1165.0352   XXXY      44.7811   XXYY    -294.1960
      XYYY      53.8264   YYYY    -626.4954   XXXZ    1053.9117
      XXYZ     -34.6963   XYYZ     346.0641   YYYZ    -138.1254
      XXZZ   -1089.2348   XYZZ     -15.4500   YYZZ    -952.4638
      XZZZ    1250.0183   YZZZ      -3.1098   ZZZZ   -5997.3495
 -----------------------------------------------------------------
Archival summary:
1\1\vega03.cac.cornell.edu\SP\ProcedureUnspecified\BasisUnspecified\78h15\jj585\TueApr1700:50:412018TueApr1700:50:412018\0\\#,ProcedureUnspecified,BasisUnspecified,\\0,1\C\C,1,1.39616\H,2,1.08475,1,118.991\C,2,1.38856,1,121.629,3,179.783,0\H,4,1.08495,2,119.453,1,179.671,0\C,4,1.3959,2,121.575,1,-0.129654,0\H,6,1.032,4,121.26,2,-179.84,0\C,6,1.40604,4,117.481,2,0.160349,0\H,8,1.032,6,119.504,4,179.742,0\C,1,1.40634,2,117.536,3,-179.6,0\H,10,1.032,1,119.607,2,179.72,0\C,1,1.50976,2,119.611,3,-0.341033,0\H,12,1.09144,1,110.135,2,-7.24194,0\H,12,1.09156,1,111.21,2,113.289,0\H,12,1.09291,1,111.796,2,-127.427,0\Gh,15,2.85762,12,135.937,1,63.6769,0\Gh,16,1.09156,15,150.502,12,-10.8033,0\Gh,17,1.09144,16,108.669,15,71.4417,0\Gh,17,1.09291,16,106.802,15,-172.174,0\Gh,17,1.50976,16,111.21,15,-49.95,0\Gh,20,1.39616,17,119.611,16,113.289,0\Gh,21,1.08475,20,118.991,17,-0.341033,0\Gh,21,1.38856,20,121.629,17,179.442,0\Gh,23,1.08495,21,119.453,20,179.671,0\Gh,23,1.3959,21,121.575,20,-0.129654,0\Gh,25,1.032,23,121.26,21,-179.84,0\Gh,25,1.40604,23,117.481,21,0.160349,0\Gh,27,1.032,25,119.504,23,179.742,0\Gh,20,1.40634,17,122.848,16,-67.4939,0\Gh,29,1.032,20,119.607,17,0.487832,0\\\@

 Total job time:  83.82s(wall), 333.36s(cpu) 
 Tue Apr 17 00:50:41 2018

        *************************************************************
        *                                                           *
        *  Thank you very much for using Q-Chem.  Have a nice day.  *
        *                                                           *
        *************************************************************


0 sent ACK to 0 
now end server 0 ... 
