mFile = /opt/software/qchem/qchem-5.0.1//bin/mpi/machines
Process 0 of 1 is on vega03.cac.cornell.edu - thread support 0
initial socket setup ...start
initial socket setup ...done 
now start server 0 ... 
vega03 10.84.3
Q-Chem Developer Version! Running on 10.84.3.*
                  Welcome to Q-Chem
     A Quantum Leap Into The Future Of Chemistry


 Q-Chem 5.0, Q-Chem, Inc., Pleasanton, CA (2017)

 Yihan Shao,  Zhengting Gan,  E. Epifanovsky,  A. T. B. Gilbert,  M. Wormit,  
 J. Kussmann,  A. W. Lange,  A. Behn,  Jia Deng,  Xintian Feng,  D. Ghosh,  
 M. Goldey,  P. R. Horn,  L. D. Jacobson,  I. Kaliman,  T. Kus,  A. Landau,  
 Jie Liu,  E. I. Proynov,  R. M. Richard,  R. P. Steele,  E. J. Sundstrom,  
 H. L. Woodcock III,  P. M. Zimmerman,  D. Zuev,  B. Albrecht,  E. Alguire,  
 S. A. Baeppler,  Z. Benda,  Y. A. Bernard,  E. J. Berquist,  K. B. Bravaya,  
 D. Casanova,  Chun-Min Chang,  Yunqing Chen,  A. Chien,  K. D. Closser,  
 M. P. Coons,  S. Dasgupta,  M. Diedenhofen,  Hainam Do,  R. G. Edgar,  
 Po-Tung Fang,  S. Fatehi,  Qingguo Feng,  Qinghui Ge,  A. Ghysels,  
 J. Gomes,  J. Gonthier,  A. Gunina,  M. W. D. Hanson-Heine,  
 P. H. P. Harbach,  A. W. Hauser,  J. E. Herr,  E. G. Hohenstein,  
 Z. C. Holden,  Kerwin Hui,  T.-C. Jagau,  Hyunjun Ji,  B. Kaduk,  
 K. Khistyaev,  Jaehoon Kim,  P. Klunzinger,  K. Koh,  D. Kosenkov,  
 T. Kowalczyk,  C. M. Krauter,  A. Kunitsa,  Ka Un Lao,  A. Laurent,  
 K. V. Lawler,  Joonho Lee,  D. Lefrancois,  S. Lehtola,  D. S. Levine,  
 Yi-Pei Li,  You-Sheng Lin,  Fenglai Liu,  E. Livshits,  A. Luenser,  
 P. Manohar,  E. Mansoor,  S. F. Manzer,  Shan-Ping Mao,  Yuezhi Mao,  
 N. Mardirossian,  A. V. Marenich,  L. A. Martinez-Martinez,  S. A. Maurer,  
 N. J. Mayhall,  S. C. McKenzie,  J.-M. Mewes,  A. F. Morrison,  K. Nanda,  
 T. S. Nguyen-Beck,  R. Olivares-Amaya,  J. A. Parkhill,  T. M. Perrine,  
 F. Plasser,  S. Prager,  A. Prociuk,  D. R. Rehn,  F. Rob,  M. Schneider,  
 N. Sergueev,  S. M. Sharada,  S. Sharma,  D. W. Small,  T. Stauch,  
 T. Stein,  Yu-Chuan Su,  A. J. W. Thom,  T. Tsuchimochi,  L. Vogt,  
 O. Vydrov,  M. A. Watson,  J. Wenzel,  M. de Wergifosse,  T. A. Wesolowski,  
 A. White,  J. Witte,  A. Yamada,  Jun Yang,  K. Yao,  S. Yeganeh,  
 S. R. Yost,  Zhi-Qiang You,  A. Zech,  Igor Ying Zhang,  Xing Zhang,  
 Yan Zhao,  Ying Zhu,  B. R. Brooks,  G. K. L. Chan,  C. J. Cramer,  
 M. S. Gordon,  W. J. Hehre,  A. Klamt,  M. W. Schmidt,  C. D. Sherrill,  
 D. G. Truhlar,  A. Aspuru-Guzik,  R. Baer,  A. T. Bell,  N. A. Besley,  
 Jeng-Da Chai,  A. Dreuw,  B. D. Dunietz,  T. R. Furlani,  Chao-Ping Hsu,  
 Yousung Jung,  Jing Kong,  D. S. Lambrecht,  WanZhen Liang,  C. Ochsenfeld,  
 V. A. Rassolov,  L. V. Slipchenko,  J. E. Subotnik,  T. Van Voorhis,  
 J. M. Herbert,  A. I. Krylov,  P. M. W. Gill,  M. Head-Gordon

 Contributors to earlier versions of Q-Chem not listed above: 
 R. D. Adamson,  B. Austin,  J. Baker,  G. J. O. Beran,  K. Brandhorst,  
 S. T. Brown,  E. F. C. Byrd,  A. K. Chakraborty,  C.-L. Cheng,  
 Siu Hung Chien,  D. M. Chipman,  D. L. Crittenden,  H. Dachsel,  
 R. A. DiStasio Jr.,  R. J. Doerksen,  A. D. Dutoi,  L. Fusti-Molnar,  
 W. A. Goddard III,  A. Golubeva-Zadorozhnaya,  S. R. Gwaltney,  G. Hawkins,  
 A. Heyden,  S. Hirata,  G. Kedziora,  F. J. Keil,  C. Kelley,  Jihan Kim,  
 R. A. King,  R. Z. Khaliullin,  P. P. Korambath,  W. Kurlancheek,  
 A. M. Lee,  M. S. Lee,  S. V. Levchenko,  Ching Yeh Lin,  D. Liotard,  
 R. C. Lochan,  I. Lotan,  P. E. Maslen,  N. Nair,  D. P. O'Neill,  
 D. Neuhauser,  E. Neuscamman,  C. M. Oana,  R. Olson,  B. Peters,  
 R. Peverati,  P. A. Pieniazek,  Y. M. Rhee,  J. Ritchie,  M. A. Rohrdanz,  
 E. Rosta,  N. J. Russ,  H. F. Schaefer III,  N. E. Schultz,  N. Shenvi,  
 A. C. Simmonett,  A. Sodt,  D. Stuck,  K. S. Thanthiriwatte,  V. Vanovschi,  
 Tao Wang,  A. Warshel,  C. F. Williams,  Q. Wu,  X. Xu,  W. Zhang

 Please cite Q-Chem as follows:
 Y. Shao et al., Mol. Phys. 113, 184-215 (2015)
 DOI: 10.1080/00268976.2014.952696

 Q-Chem 5.0.1 for Intel X86 EM64T Linux

 Parts of Q-Chem use Armadillo 5.200.1 (Boston Tea Smuggler).
 http://arma.sourceforge.net/

 Q-Chem begins on Mon Apr  2 02:14:52 2018  

Host: vega03.cac.cornell.edu
0

     Scratch files written to /scratch/jj585/vdw/11n11_distance_5.000_11.save//
 Parallel job on  1  processors

Checking the input file for inconsistencies... 	...done.

--------------------------------------------------------------
User input:
--------------------------------------------------------------
$molecule
0  1
--
0  1
C        -0.54444000        -0.68370000        -0.06689000
C        -0.55709000        +0.71878000        +0.05493000
C        +0.74969000        -1.43776000        -0.09374000
C        +0.72843000        +1.48436000        +0.06598000
O        +1.53645000        -1.09176000        +0.94813000
O        +1.04702000        -2.28405000        -0.90088000
O        +1.53784000        +1.08301000        -0.93877000
O        +1.01035000        +2.37097000        +0.83478000
C        +2.83449000        +1.70121000        -0.99358000
C        +2.82316000        -1.73208000        +1.00475000
C        -1.74320000        -1.41616000        -0.12552000
C        -2.93952000        -0.70056000        -0.05285000
C        -2.95313000        +0.68255000        +0.06934000
C        -1.77161000        +1.42404000        +0.12810000
H        +2.73835000        +2.77989000        -1.12464000
H        +2.70778000        -2.81319000        +1.09555000
H        -3.90354000        +1.20325000        +0.11710000
H        +3.38998000        +1.50093000        -0.07544000
H        +3.33184000        +1.25269000        -1.85067000
H        +3.31095000        -1.32281000        +1.88650000
H        +3.39889000        -1.50934000        +0.10459000
H        -3.87892000        -1.24211000        -0.08988000
C        -1.83960000        +2.92746000        +0.24839000
C        -1.78103000        -2.92226000        -0.24590000
H        -1.39752000        -3.25223000        -1.21323000
H        -2.80572000        -3.28175000        -0.13627000
H        -1.16958000        -3.40777000        +0.51926000
H        -1.24214000        +3.42352000        -0.52065000
H        -1.45503000        +3.26427000        +1.21284000
H        -2.87211000        +3.26623000        +0.14638000
--
0  1
C        -0.51003000        -1.11966000        +4.91395000
C        -0.52268000        +0.28282000        +5.03577000
C        +0.78410000        -1.87372000        +4.88710000
C        +0.76284000        +1.04840000        +5.04682000
O        +1.57086000        -1.52772000        +5.92897000
O        +1.08143000        -2.72001000        +4.07996000
O        +1.57225000        +0.64705000        +4.04207000
O        +1.04476000        +1.93501000        +5.81562000
C        +2.86890000        +1.26525000        +3.98726000
C        +2.85757000        -2.16804000        +5.98559000
C        -1.70879000        -1.85212000        +4.85532000
C        -2.90511000        -1.13652000        +4.92799000
C        -2.91872000        +0.24659000        +5.05018000
C        -1.73720000        +0.98808000        +5.10894000
H        +2.77276000        +2.34393000        +3.85620000
H        +2.74219000        -3.24915000        +6.07639000
H        -3.86913000        +0.76729000        +5.09794000
H        +3.42439000        +1.06497000        +4.90540000
H        +3.36625000        +0.81673000        +3.13017000
H        +3.34536000        -1.75877000        +6.86734000
H        +3.43330000        -1.94530000        +5.08543000
H        -3.84451000        -1.67807000        +4.89096000
C        -1.80519000        +2.49150000        +5.22923000
C        -1.74662000        -3.35822000        +4.73494000
H        -1.36311000        -3.68819000        +3.76761000
H        -2.77131000        -3.71771000        +4.84457000
H        -1.13517000        -3.84373000        +5.50010000
H        -1.20773000        +2.98756000        +4.46019000
H        -1.42062000        +2.82831000        +6.19368000
H        -2.83770000        +2.83027000        +5.12722000
$end

$rem
JOBTYPE                   SP
METHOD                    B3LYP
DFT_D                     d3_op
BASIS                     6-311++G(d,p)
SYMMETRY                  False
THRESH                    12
SCF_CONVERGENCE           8
MAX_SUB_FILE_NUM          128
MEM_STATIC                400
MEM_TOTAL                 4000
$end
--------------------------------------------------------------
 Adding empirical dispersion correction 
 ----------------------------------------------------------------
 Doing -D3(op) with
 s6 =   1.00000
 s8 =   0.78311
 a1 =   0.30000
 a2 =   4.25000
 n  =  10.00000
 -D3 energy without 3body term =     -0.0755024721 hartrees
 ----------------------------------------------------------------
             Standard Nuclear Orientation (Angstroms)
    I     Atom           X                Y                Z
 ----------------------------------------------------------------
    1      C      -2.4563809749     0.4911713524     0.8818343505
    2      C      -2.5535961898     0.5564638437    -0.5211041293
    3      C      -2.3498748030    -0.8295095438     1.5808037837
    4      C      -2.6453146214    -0.7002810380    -1.3279353018
    5      O      -1.3644975609    -1.5841634283     1.0481410386
    6      O      -3.0123047285    -1.1717661382     2.5295576454
    7      O      -3.5655314925    -1.5418110449    -0.8075728409
    8      O      -2.0197820238    -0.9360535735    -2.3327884748
    9      C      -3.6993247993    -2.8161787835    -1.4591576907
   10      C      -1.1932600027    -2.8918164577     1.6222136857
   11      C      -2.4157152334     1.6615488539     1.6599882347
   12      C      -2.4697770454     2.8839531299     0.9881616665
   13      C      -2.5636362355     2.9495151191    -0.3956739373
   14      C      -2.6057883489     1.7966906542    -1.1821016965
   15      H      -3.9971935957    -2.6837246606    -2.5001669371
   16      H      -0.9374234717    -2.8137451951     2.6799511597
   17      H      -2.6090262403     3.9187466469    -0.8806674102
   18      H      -2.7543797319    -3.3616525040    -1.4245236330
   19      H      -4.4702592708    -3.3449023603    -0.9030624642
   20      H      -0.3795918226    -3.3483924662     1.0632803080
   21      H      -2.1098132772    -3.4755065926     1.5192472470
   22      H      -2.4341311026     3.8024405030     1.5645558855
   23      C      -2.7208518105     1.9208796378    -2.6823355172
   24      C      -2.3016453637     1.6429957799     3.1669399631
   25      H      -3.2012750449     1.2302691935     3.6273861072
   26      H      -2.1504083410     2.6559281073     3.5442155337
   27      H      -1.4629082236     1.0285582060     3.5046489587
   28      H      -3.5499758907     1.3276991383    -3.0762221145
   29      H      -1.8155455241     1.5663444018    -3.1785453092
   30      H      -2.8870134071     2.9628679250    -2.9614390575
   31      C       2.5318709566     0.5320667397     0.5417130337
   32      C       2.4346557418     0.5973592309    -0.8612254460
   33      C       2.6383771285    -0.7886141565     1.2406824670
   34      C       2.3429373102    -0.6593856508    -1.6680566185
   35      O       3.6237543706    -1.5432680410     0.7080197218
   36      O       1.9759472031    -1.1308707509     2.1894363286
   37      O       1.4227204390    -1.5009156576    -1.1476941577
   38      O       2.9684699078    -0.8951581863    -2.6729097915
   39      C       1.2889271322    -2.7752833962    -1.7992790075
   40      C       3.7949919289    -2.8509210704     1.2820923689
   41      C       2.5725366981     1.7024442412     1.3198669179
   42      C       2.5184748862     2.9248485172     0.6480403497
   43      C       2.4246156960     2.9904105064    -0.7357952541
   44      C       2.3824635826     1.8375860415    -1.5222230133
   45      H       0.9910583359    -2.6428292733    -2.8402882539
   46      H       4.0508284598    -2.7728498078     2.3398298429
   47      H       2.3792256912     3.9596420342    -1.2207887270
   48      H       2.2338721996    -3.3207571167    -1.7646449498
   49      H       0.5179926607    -3.3040069730    -1.2431837810
   50      H       4.6086601090    -3.3074970790     0.7231589913
   51      H       2.8784386543    -3.4346112053     1.1791259302
   52      H       2.5541208289     3.8433358902     1.2244345688
   53      C       2.2674001210     1.9617750251    -3.0224568340
   54      C       2.6866065678     1.6838911672     2.8268186463
   55      H       1.7869768867     1.2711645807     3.2872647904
   56      H       2.8378435905     2.6968234945     3.2040942170
   57      H       3.5253437079     1.0694535933     3.1645276419
   58      H       1.4382760408     1.3685945256    -3.4163434312
   59      H       3.1727064075     1.6072397891    -3.5186666260
   60      H       2.1012385245     3.0037633123    -3.3015603742
 ----------------------------------------------------------------
 Molecular Point Group                 C1    NOp =  1
 Largest Abelian Subgroup              C1    NOp =  1
 Nuclear Repulsion Energy =  3521.6365137382 hartrees
 There are      118 alpha and      118 beta electrons
 Requested basis set is 6-311++G(d,p)
 There are 332 shells and 900 basis functions

 Total QAlloc Memory Limit   4000 MB
 Mega-Array Size       392 MB
 MEM_STATIC part       400 MB
 A cutoff of  1.0D-12 yielded  38525 shell pairs
 There are    283545 function pairs (    300669 Cartesian)
 
 -------------------------------------------------------
 OpenMP Integral Computing Module                       
 Release: version 1.0, May 2013, Q-Chem Inc. Pittsburgh 
 -------------------------------------------------------
 Integral Job Info:
 Integral job number is                      11
 Integral operator is                         1
 short-range coefficients                     0
 long-range coefficients              100000000
 Omega coefficients                           0
 if combine SR and LR in K                    0
 Integral screening is                        0
 Integral computing path is                   2
 max size of driver memory is            800000
 size of driver memory is                593474
 size of scratch memory is              2361544
 max col of scratch BK array               1296
 max len of scratch array in speh3          155
 max len of scratch index in speh4           18
 max int batch size is                      520
 min int batch size is                       52
 fixed nKL is                                52
 max L of basis functions is                  2
 order of int derivative is                   0
 number of shells is                        332
 number of basis is                         932
 number of cartesian basis is               932
 number of contracted shell pairs         38525
 number of primitive shell pairs          82277
 maxK2 (contraction) of shell pair           36
 max number of K2 of shell pair               1
 max number of CS2 of shell pair           7848
 max number of PS2 of shell pair          13074
 mem total for path MDJ                  533304
 -------------------------------------------------------
 Smallest overlap matrix eigenvalue = 1.54E-08
 Linear dependence detected in AO basis
 Number of orthogonalized atomic orbitals = 889
 Maximum deviation from orthogonality = 1.640E-10

 Scale SEOQF with 1.000000e-01/1.000000e-01/1.000000e-01

 Standard Electronic Orientation quadrupole field applied
 Nucleus-field energy     =     0.0000000374 hartrees
 Guess from superposition of atomic densities
 Warning:  Energy on first SCF cycle will be non-variational
 A restricted hybrid HF-DFT SCF calculation will be
 performed using Pulay DIIS extrapolation
 Exchange:     0.2000 Hartree-Fock + 0.0800 Slater + 0.7200 B88
 Correlation:  0.1900 VWN1RPA + 0.8100 LYP
 Using SG-1 standard quadrature grid
 Dispersion:   Grimme D3
 SCF converges when DIIS error is below 1.0E-08
 using 2 threads for integral computing
 -------------------------------------------------------
 OpenMP Integral computing Module                
 Release: version 1.0, May 2013, Q-Chem Inc. Pittsburgh 
 -------------------------------------------------------
 -------------------------------------------------------
 OpenMP BLAS3 based DFT computing Module                
 Release: version 1.0, May 2013, Q-Chem Inc. Pittsburgh 
 -------------------------------------------------------
 ---------------------------------------
  Cycle       Energy         DIIS Error
 ---------------------------------------
    1   -1540.3941691257      2.16E-02
    2   -1533.1066976448      2.78E-03
    3   -1532.0905357628      4.70E-03
    4   -1533.6378919078      1.21E-03
    5   -1533.7544518213      2.73E-04
    6   -1533.7589567804      1.25E-04
    7   -1533.7600891718      2.76E-05
    8   -1533.7601286772      1.66E-05
    9   -1533.7601478808      3.24E-06
   10   -1533.7601486555      8.62E-07
   11   -1533.7601487155      2.89E-07
   12   -1533.7601487225      1.08E-07
   13   -1533.7601487233      4.22E-08
   14   -1533.7601487232      9.42E-09 Convergence criterion met
 ---------------------------------------
 SCF time:  CPU 4633.55 s  wall 2326.33 s
 SCF   energy in the final basis set = -1533.76014872
 Total energy in the final basis set = -1533.76014872
 
 --------------------------------------------------------------
 
                    Orbital Energies (a.u.)
 --------------------------------------------------------------
 
 Alpha MOs
 -- Occupied --
-19.176 -19.175 -19.169 -19.168 -19.119 -19.118 -19.114 -19.113
-10.310 -10.310 -10.305 -10.305 -10.233 -10.232 -10.226 -10.225
-10.202 -10.202 -10.201 -10.201 -10.198 -10.198 -10.198 -10.197
-10.184 -10.184 -10.183 -10.183 -10.170 -10.169 -10.166 -10.166
 -1.119  -1.118  -1.110  -1.109  -1.030  -1.030  -1.025  -1.024
 -0.882  -0.882  -0.804  -0.804  -0.792  -0.792  -0.744  -0.743
 -0.731  -0.731  -0.722  -0.721  -0.672  -0.672  -0.646  -0.646
 -0.618  -0.617  -0.575  -0.574  -0.562  -0.561  -0.534  -0.533
 -0.515  -0.514  -0.511  -0.511  -0.489  -0.489  -0.485  -0.483
 -0.479  -0.475  -0.474  -0.472  -0.467  -0.466  -0.442  -0.438
 -0.433  -0.430  -0.428  -0.425  -0.419  -0.416  -0.413  -0.413
 -0.409  -0.408  -0.403  -0.402  -0.393  -0.392  -0.385  -0.384
 -0.378  -0.377  -0.370  -0.368  -0.359  -0.358  -0.356  -0.355
 -0.354  -0.353  -0.319  -0.318  -0.309  -0.307  -0.292  -0.292
 -0.288  -0.287  -0.264  -0.262  -0.251  -0.249
 -- Virtual --
 -0.056  -0.053  -0.032  -0.029  -0.016  -0.010  -0.005   0.001
  0.006   0.008   0.013   0.014   0.015   0.017   0.020   0.022
  0.026   0.027   0.028   0.033   0.034   0.040   0.042   0.043
  0.046   0.047   0.048   0.052   0.052   0.057   0.062   0.062
  0.067   0.067   0.069   0.074   0.078   0.081   0.086   0.089
  0.091   0.094   0.094   0.095   0.102   0.104   0.104   0.107
  0.107   0.109   0.110   0.111   0.115   0.119   0.120   0.123
  0.123   0.125   0.126   0.130   0.132   0.132   0.134   0.138
  0.140   0.141   0.141   0.142   0.143   0.145   0.146   0.148
  0.149   0.150   0.151   0.153   0.156   0.156   0.159   0.161
  0.167   0.169   0.170   0.172   0.173   0.174   0.175   0.177
  0.181   0.182   0.186   0.188   0.188   0.193   0.194   0.196
  0.199   0.199   0.201   0.202   0.206   0.206   0.209   0.212
  0.214   0.219   0.220   0.220   0.222   0.225   0.227   0.228
  0.230   0.232   0.235   0.237   0.237   0.241   0.243   0.244
  0.249   0.250   0.253   0.254   0.256   0.260   0.261   0.265
  0.268   0.269   0.271   0.272   0.274   0.276   0.277   0.279
  0.282   0.284   0.285   0.286   0.289   0.291   0.300   0.304
  0.306   0.308   0.312   0.312   0.314   0.315   0.316   0.322
  0.326   0.327   0.331   0.331   0.334   0.336   0.339   0.340
  0.341   0.347   0.349   0.350   0.355   0.356   0.363   0.365
  0.367   0.368   0.375   0.376   0.379   0.379   0.383   0.386
  0.390   0.391   0.393   0.397   0.401   0.401   0.404   0.405
  0.411   0.414   0.417   0.418   0.425   0.427   0.428   0.429
  0.438   0.440   0.442   0.449   0.457   0.460   0.463   0.467
  0.477   0.478   0.478   0.485   0.501   0.502   0.506   0.510
  0.516   0.517   0.524   0.529   0.532   0.533   0.539   0.542
  0.547   0.550   0.555   0.565   0.566   0.571   0.574   0.576
  0.578   0.581   0.583   0.585   0.588   0.592   0.597   0.599
  0.604   0.609   0.612   0.614   0.616   0.620   0.623   0.628
  0.630   0.639   0.641   0.642   0.652   0.659   0.659   0.662
  0.664   0.672   0.674   0.677   0.678   0.680   0.681   0.685
  0.686   0.688   0.694   0.696   0.698   0.702   0.705   0.706
  0.710   0.712   0.718   0.721   0.728   0.731   0.733   0.737
  0.738   0.742   0.745   0.752   0.752   0.756   0.761   0.765
  0.768   0.773   0.774   0.783   0.788   0.791   0.792   0.800
  0.804   0.805   0.806   0.813   0.820   0.822   0.824   0.831
  0.834   0.837   0.839   0.848   0.862   0.865   0.869   0.873
  0.891   0.895   0.906   0.914   0.921   0.929   0.932   0.937
  0.942   0.945   0.961   0.965   0.978   0.984   0.988   0.996
  1.002   1.004   1.014   1.019   1.028   1.038   1.041   1.053
  1.055   1.063   1.063   1.073   1.080   1.084   1.088   1.096
  1.098   1.099   1.106   1.108   1.131   1.143   1.145   1.148
  1.153   1.175   1.177   1.184   1.198   1.202   1.205   1.210
  1.216   1.224   1.236   1.238   1.249   1.250   1.259   1.262
  1.268   1.275   1.279   1.289   1.296   1.299   1.311   1.312
  1.321   1.328   1.330   1.332   1.342   1.350   1.363   1.366
  1.370   1.383   1.385   1.388   1.395   1.397   1.408   1.413
  1.416   1.418   1.430   1.432   1.434   1.438   1.449   1.459
  1.462   1.469   1.477   1.479   1.482   1.484   1.488   1.492
  1.496   1.501   1.505   1.516   1.527   1.532   1.535   1.537
  1.549   1.554   1.557   1.563   1.563   1.572   1.575   1.578
  1.579   1.590   1.593   1.600   1.602   1.607   1.608   1.614
  1.615   1.622   1.629   1.629   1.639   1.640   1.645   1.647
  1.652   1.654   1.665   1.668   1.670   1.682   1.687   1.698
  1.705   1.706   1.718   1.721   1.725   1.727   1.733   1.738
  1.738   1.744   1.747   1.749   1.761   1.776   1.779   1.783
  1.784   1.786   1.800   1.802   1.806   1.808   1.817   1.819
  1.821   1.833   1.839   1.843   1.844   1.851   1.856   1.870
  1.871   1.887   1.890   1.892   1.902   1.903   1.911   1.920
  1.923   1.929   1.935   1.957   1.960   1.970   1.973   1.992
  1.995   2.013   2.016   2.022   2.028   2.041   2.043   2.056
  2.064   2.069   2.077   2.089   2.095   2.100   2.105   2.113
  2.119   2.129   2.132   2.134   2.139   2.144   2.145   2.165
  2.166   2.179   2.180   2.185   2.187   2.201   2.211   2.219
  2.225   2.250   2.253   2.284   2.304   2.307   2.312   2.329
  2.333   2.335   2.337   2.343   2.345   2.413   2.422   2.425
  2.434   2.457   2.458   2.487   2.489   2.491   2.493   2.501
  2.511   2.512   2.516   2.524   2.525   2.528   2.532   2.538
  2.555   2.557   2.564   2.569   2.572   2.585   2.587   2.593
  2.594   2.597   2.598   2.604   2.614   2.618   2.625   2.626
  2.631   2.636   2.656   2.659   2.659   2.665   2.670   2.682
  2.682   2.697   2.707   2.710   2.711   2.729   2.731   2.735
  2.751   2.767   2.772   2.775   2.778   2.799   2.803   2.807
  2.811   2.814   2.819   2.833   2.850   2.855   2.860   2.863
  2.883   2.885   2.891   2.894   2.907   2.908   2.913   2.915
  2.923   2.925   2.932   2.933   2.940   2.945   2.957   2.967
  2.968   2.989   2.992   3.020   3.025   3.043   3.046   3.052
  3.061   3.067   3.072   3.079   3.087   3.101   3.104   3.116
  3.116   3.140   3.142   3.153   3.155   3.192   3.200   3.217
  3.224   3.231   3.236   3.243   3.246   3.247   3.254   3.267
  3.272   3.275   3.288   3.298   3.302   3.329   3.339   3.392
  3.392   3.399   3.401   3.459   3.465   3.478   3.480   3.528
  3.536   3.591   3.596   3.613   3.618   3.629   3.630   3.695
  3.702   3.727   3.744   3.776   3.782   3.784   3.798   3.799
  3.799   3.801   3.803   3.804   3.814   3.833   3.837   3.859
  3.861   3.883   3.886   3.905   3.912   3.961   3.980   4.056
  4.057   4.078   4.080   4.088   4.092   4.139   4.148   4.165
  4.185   4.239   4.245   4.330   4.336   4.355   4.371   4.393
  4.395   4.867   4.871   5.071   5.086   5.121   5.169   5.189
  5.192   5.218   5.254   5.268   5.275   5.295   5.298   5.409
  5.417   5.449   5.467   5.627   5.630   5.639   5.644   5.895
  5.896   5.915   5.928  23.553  23.628  23.859  23.864  23.873
 23.887  23.918  23.934  23.937  23.943  23.945  23.953  23.954
 23.957  23.969  23.993  24.002  24.045  24.068  24.070  24.079
 24.081  24.170  24.174  49.898  49.904  49.939  49.943  50.021
 50.031  50.042  50.043
 --------------------------------------------------------------
 
          Ground-State Mulliken Net Atomic Charges

     Atom                 Charge (a.u.)
  ----------------------------------------
      1 C                     0.291121
      2 C                     0.378275
      3 C                    -0.546406
      4 C                    -0.830805
      5 O                     0.135558
      6 O                    -0.147973
      7 O                     0.092973
      8 O                    -0.097273
      9 C                    -0.162206
     10 C                    -0.315719
     11 C                     0.481713
     12 C                    -0.370735
     13 C                    -0.351922
     14 C                     0.360952
     15 H                     0.165590
     16 H                     0.197609
     17 H                     0.162019
     18 H                     0.176819
     19 H                     0.171942
     20 H                     0.093452
     21 H                     0.190919
     22 H                     0.158774
     23 C                    -0.639181
     24 C                    -0.641253
     25 H                     0.214242
     26 H                     0.129315
     27 H                     0.201682
     28 H                     0.173959
     29 H                     0.189963
     30 H                     0.138885
     31 C                     0.351900
     32 C                     0.311785
     33 C                    -0.865886
     34 C                    -0.533922
     35 O                     0.108042
     36 O                    -0.085293
     37 O                     0.108570
     38 O                    -0.148074
     39 C                    -0.320111
     40 C                    -0.154663
     41 C                     0.363927
     42 C                    -0.345176
     43 C                    -0.363885
     44 C                     0.486706
     45 H                     0.200712
     46 H                     0.164486
     47 H                     0.158695
     48 H                     0.194883
     49 H                     0.092095
     50 H                     0.171146
     51 H                     0.175963
     52 H                     0.162796
     53 C                    -0.636428
     54 C                    -0.647699
     55 H                     0.190675
     56 H                     0.139728
     57 H                     0.174177
     58 H                     0.201198
     59 H                     0.213289
     60 H                     0.128079
  ----------------------------------------
  Sum of atomic charges =     0.000000

 -----------------------------------------------------------------
                    Cartesian Multipole Moments
 -----------------------------------------------------------------
    Charge (ESU x 10^10)
                 0.0000
    Dipole Moment (Debye)
         X       0.1954      Y      -0.0763      Z       0.1805
       Tot       0.2768
    Quadrupole Moments (Debye-Ang)
        XX    -194.9252     XY      -1.4383     YY    -154.7574
        XZ      17.7873     YZ       1.7404     ZZ    -196.7452
    Octopole Moments (Debye-Ang^2)
       XXX       5.1345    XXY     -46.4367    XYY       3.2272
       YYY     -85.8001    XXZ      -1.0876    XYZ     -29.1119
       YYZ      -5.6554    XZZ      -1.4837    YZZ      18.8405
       ZZZ       7.0034
    Hexadecapole Moments (Debye-Ang^3)
      XXXX   -7967.7956   XXXY     -30.7782   XXYY   -1824.4083
      XYYY      -6.5097   YYYY   -4117.6304   XXXZ     355.4621
      XXYZ      12.7435   XYYZ      60.0214   YYYZ       9.5216
      XXZZ   -2026.3542   XYZZ      -3.1641   YYZZ   -1331.8585
      XZZZ     116.6401   YZZZ      10.3630   ZZZZ   -4044.7232
 -----------------------------------------------------------------
Archival summary:
1\1\vega03.cac.cornell.edu\SP\ProcedureUnspecified\BasisUnspecified\82428\jj585\MonApr202:53:412018MonApr202:53:412018\0\\#,ProcedureUnspecified,BasisUnspecified,\\0,1\O\C,1,1.35063\O,2,1.20668,1,123.512\C,1,1.43835,2,115.94,3,4.13325,0\H,4,1.08762,1,105.403,2,179.104,0\H,4,1.09103,1,110.475,2,-61.3232,0\H,4,1.0915,1,110.399,2,59.3962,0\C,2,1.49803,1,111.128,3,177.348,0\C,8,1.40604,2,118.266,1,-126.75,0\C,9,1.3959,8,117.481,2,177.84,0\H,10,1.08495,9,118.972,8,-179.641,0\C,10,1.38856,9,121.575,8,0.160349,0\H,12,1.08475,10,119.38,9,179.653,0\C,12,1.39616,10,121.629,9,-0.129654,0\C,14,1.40634,12,117.536,10,0.183585,0\C,15,1.49626,14,119.012,12,177.857,0\O,16,1.2069,15,125.54,14,47.3939,0\O,16,1.3512,15,110.928,14,-130.615,0\C,18,1.43752,16,116.164,15,-177.05,0\H,19,1.08772,18,105.376,16,179.706,0\H,19,1.09086,18,110.507,16,-60.681,0\H,19,1.09163,18,110.367,16,60.0909,0\C,14,1.50976,12,119.611,10,179.442,0\H,23,1.09144,14,110.135,12,-7.24194,0\H,23,1.09156,14,111.21,12,113.289,0\H,23,1.09291,14,111.796,12,-127.427,0\C,9,1.51138,8,122.941,2,-1.44272,0\H,27,1.09144,9,110.104,8,172.262,0\H,27,1.09164,9,111.284,8,-67.2422,0\H,27,1.09319,9,111.89,8,52.1865,0\H,5,2.47536,4,137.952,1,-32.8812,0\C,31,1.08772,5,137.909,4,94.8368,0\H,32,1.09086,31,110.694,5,-147.716,0\H,32,1.09163,31,110.757,5,91.1295,0\O,32,1.43752,31,105.376,5,-28.226,0\C,35,1.3512,32,116.164,31,179.706,0\O,36,1.2069,35,123.501,32,4.8931,0\C,36,1.49626,35,110.928,32,-177.05,0\C,38,1.40634,36,119.012,35,-130.615,0\C,39,1.39616,38,117.536,36,177.857,0\H,40,1.08475,39,118.991,38,-179.6,0\C,40,1.38856,39,121.629,38,0.183585,0\H,42,1.08495,40,119.453,39,179.671,0\C,42,1.3959,40,121.575,39,-0.129654,0\C,44,1.40604,42,117.481,40,0.160349,0\C,45,1.49803,44,118.266,42,177.84,0\O,46,1.20668,45,125.302,44,50.5403,0\O,46,1.35063,45,111.128,44,-126.75,0\C,48,1.43835,46,115.94,45,-178.519,0\H,49,1.08762,48,105.403,46,179.104,0\H,49,1.09103,48,110.475,46,-61.3232,0\H,49,1.0915,48,110.399,46,59.3962,0\C,39,1.50976,38,122.848,36,-1.37569,0\H,53,1.09144,39,110.135,38,171.975,0\H,53,1.09156,39,111.21,38,-67.4939,0\H,53,1.09291,39,111.796,38,51.7903,0\C,44,1.51138,42,119.574,40,179.468,0\H,57,1.09144,44,110.104,42,-7.00566,0\H,57,1.09164,44,111.284,42,113.49,0\H,57,1.09319,44,111.89,42,-127.081,0\\\@

 Total job time:  2328.83s(wall), 4636.63s(cpu) 
 Mon Apr  2 02:53:41 2018

        *************************************************************
        *                                                           *
        *  Thank you very much for using Q-Chem.  Have a nice day.  *
        *                                                           *
        *************************************************************


0 sent ACK to 0 
now end server 0 ... 
