r0176.ten.osc.edu 10.25.155
Q-Chem Developer Version! Running on 10.25.155.*
                  Welcome to Q-Chem
     A Quantum Leap Into The Future Of Chemistry


 Q-Chem 5.0, Q-Chem, Inc., Pleasanton, CA (2017)

 Yihan Shao,  Zhengting Gan,  E. Epifanovsky,  A. T. B. Gilbert,  M. Wormit,  
 J. Kussmann,  A. W. Lange,  A. Behn,  Jia Deng,  Xintian Feng,  D. Ghosh,  
 M. Goldey,  P. R. Horn,  L. D. Jacobson,  I. Kaliman,  T. Kus,  A. Landau,  
 Jie Liu,  E. I. Proynov,  R. M. Richard,  R. P. Steele,  E. J. Sundstrom,  
 H. L. Woodcock III,  P. M. Zimmerman,  D. Zuev,  B. Albrecht,  E. Alguire,  
 S. A. Baeppler,  Z. Benda,  Y. A. Bernard,  E. J. Berquist,  K. B. Bravaya,  
 D. Casanova,  Chun-Min Chang,  Yunqing Chen,  A. Chien,  K. D. Closser,  
 M. P. Coons,  S. Dasgupta,  M. Diedenhofen,  Hainam Do,  R. G. Edgar,  
 Po-Tung Fang,  S. Fatehi,  Qingguo Feng,  Qinghui Ge,  A. Ghysels,  
 J. Gomes,  J. Gonthier,  A. Gunina,  M. W. D. Hanson-Heine,  
 P. H. P. Harbach,  A. W. Hauser,  J. E. Herr,  E. G. Hohenstein,  
 Z. C. Holden,  Kerwin Hui,  T.-C. Jagau,  Hyunjun Ji,  B. Kaduk,  
 K. Khistyaev,  Jaehoon Kim,  P. Klunzinger,  K. Koh,  D. Kosenkov,  
 T. Kowalczyk,  C. M. Krauter,  A. Kunitsa,  Ka Un Lao,  A. Laurent,  
 K. V. Lawler,  Joonho Lee,  D. Lefrancois,  S. Lehtola,  D. S. Levine,  
 Yi-Pei Li,  You-Sheng Lin,  Fenglai Liu,  E. Livshits,  A. Luenser,  
 P. Manohar,  E. Mansoor,  S. F. Manzer,  Shan-Ping Mao,  Yuezhi Mao,  
 N. Mardirossian,  A. V. Marenich,  L. A. Martinez-Martinez,  S. A. Maurer,  
 N. J. Mayhall,  S. C. McKenzie,  J.-M. Mewes,  A. F. Morrison,  K. Nanda,  
 T. S. Nguyen-Beck,  R. Olivares-Amaya,  J. A. Parkhill,  T. M. Perrine,  
 F. Plasser,  S. Prager,  A. Prociuk,  D. R. Rehn,  F. Rob,  M. Schneider,  
 N. Sergueev,  S. M. Sharada,  S. Sharma,  D. W. Small,  T. Stauch,  
 T. Stein,  Yu-Chuan Su,  A. J. W. Thom,  T. Tsuchimochi,  L. Vogt,  
 O. Vydrov,  M. A. Watson,  J. Wenzel,  M. de Wergifosse,  T. A. Wesolowski,  
 A. White,  J. Witte,  A. Yamada,  Jun Yang,  K. Yao,  S. Yeganeh,  
 S. R. Yost,  Zhi-Qiang You,  A. Zech,  Igor Ying Zhang,  Xing Zhang,  
 Yan Zhao,  Ying Zhu,  B. R. Brooks,  G. K. L. Chan,  C. J. Cramer,  
 M. S. Gordon,  W. J. Hehre,  A. Klamt,  M. W. Schmidt,  C. D. Sherrill,  
 D. G. Truhlar,  A. Aspuru-Guzik,  R. Baer,  A. T. Bell,  N. A. Besley,  
 Jeng-Da Chai,  A. Dreuw,  B. D. Dunietz,  T. R. Furlani,  Chao-Ping Hsu,  
 Yousung Jung,  Jing Kong,  D. S. Lambrecht,  WanZhen Liang,  C. Ochsenfeld,  
 V. A. Rassolov,  L. V. Slipchenko,  J. E. Subotnik,  T. Van Voorhis,  
 J. M. Herbert,  A. I. Krylov,  P. M. W. Gill,  M. Head-Gordon

 Contributors to earlier versions of Q-Chem not listed above: 
 R. D. Adamson,  B. Austin,  J. Baker,  G. J. O. Beran,  K. Brandhorst,  
 S. T. Brown,  E. F. C. Byrd,  A. K. Chakraborty,  C.-L. Cheng,  
 Siu Hung Chien,  D. M. Chipman,  D. L. Crittenden,  H. Dachsel,  
 R. A. DiStasio Jr.,  R. J. Doerksen,  A. D. Dutoi,  L. Fusti-Molnar,  
 W. A. Goddard III,  A. Golubeva-Zadorozhnaya,  S. R. Gwaltney,  G. Hawkins,  
 A. Heyden,  S. Hirata,  G. Kedziora,  F. J. Keil,  C. Kelley,  Jihan Kim,  
 R. A. King,  R. Z. Khaliullin,  P. P. Korambath,  W. Kurlancheek,  
 A. M. Lee,  M. S. Lee,  S. V. Levchenko,  Ching Yeh Lin,  D. Liotard,  
 R. C. Lochan,  I. Lotan,  P. E. Maslen,  N. Nair,  D. P. O'Neill,  
 D. Neuhauser,  E. Neuscamman,  C. M. Oana,  R. Olson,  B. Peters,  
 R. Peverati,  P. A. Pieniazek,  Y. M. Rhee,  J. Ritchie,  M. A. Rohrdanz,  
 E. Rosta,  N. J. Russ,  H. F. Schaefer III,  N. E. Schultz,  N. Shenvi,  
 A. C. Simmonett,  A. Sodt,  D. Stuck,  K. S. Thanthiriwatte,  V. Vanovschi,  
 Tao Wang,  A. Warshel,  C. F. Williams,  Q. Wu,  X. Xu,  W. Zhang

 Please cite Q-Chem as follows:
 Y. Shao et al., Mol. Phys. 113, 184-215 (2015)
 DOI: 10.1080/00268976.2014.952696

 Q-Chem 5.0.1 for Intel X86 EM64T Linux

 Parts of Q-Chem use Armadillo 5.200.1 (Boston Tea Smuggler).
 http://arma.sourceforge.net/

 Q-Chem begins on Sat Oct 14 17:12:26 2017  

Host: r0176.ten.osc.edu
0

     Scratch files written to /tmp/pbstmp.1310452/00//
Processing $rem in /users/PAS0291/osu6415/.qchemrc.
molden_format             true

Checking the input file for inconsistencies... 	...done.

--------------------------------------------------------------
User input:
--------------------------------------------------------------
$molecule
0 1
C 0.37964386 -0.64735783 -0.59542067
C 0.62002482 0.89390522 -0.48796958
C -0.87099078 -1.17009192 0.07839873
C -0.54884806 1.73315827 -0.00200708
O -1.19516566 -2.37977984 -0.43541166
O -1.47970035 -0.64695858 0.97633024
O -1.59716783 1.59002616 -0.84221013
O -0.53470741 2.48515649 0.93714309
C -2.81323060 2.25180544 -0.45017479
C -2.32573445 -3.03820072 0.16659029
C 1.63009860 -1.16824824 0.18418698
C 2.90919865 -0.90734051 -0.64550925
C 3.11633444 0.62064596 -0.40685135
C 1.86615315 0.95413779 0.43149941
O 1.72868326 -0.22237030 1.24954454
H 0.37992697 -0.99585718 -1.62728692
H 0.85455025 1.27895214 -1.48443850
H -3.15673399 1.85596140 0.50680570
H -3.22769432 -2.43776687 0.03795045
H 1.52541920 -2.17455483 0.58457873
H 3.74122520 -1.49127500 -0.24994229
H 2.78277145 -1.16829679 -1.69823987
H 4.02107030 0.81348614 0.17130595
H 3.17172680 1.19803955 -1.33184970
H 1.91448541 1.83596882 1.06304715
H -2.65541730 3.32784921 -0.36469524
H -3.53115805 2.03102439 -1.23732558
H -2.15167218 -3.20009413 1.23138034
H -2.42058948 -3.98734748 -0.35628327
$end

$rem
sym_ignore      true
jobtype         opt
method          b3lyp
basis           6-311++G(d,p)
dft_d           d3_op
mem_total       62000
MEM_STATIC      4000
ao2mo_disk      350000
max_scf_cycles  200
geom_opt_max_cycles 1000
geom_opt_tol_displacement 1
GEOM_OPT_TOL_GRADIENT       1
GEOM_OPT_TOL_ENERGY         1
$end

--------------------------------------------------------------
 Adding empirical dispersion correction 
 ----------------------------------------------------------------
 Doing -D3(op) with
 s6 =   1.00000
 s8 =   0.78311
 a1 =   0.30000
 a2 =   4.25000
 n  =  10.00000
 -D3 energy without 3body term =     -0.0304273678 hartrees
 ----------------------------------------------------------------
             Standard Nuclear Orientation (Angstroms)
    I     Atom           X                Y                Z
 ----------------------------------------------------------------
    1      C       0.3796438600    -0.6473578300    -0.5954206700
    2      C       0.6200248200     0.8939052200    -0.4879695800
    3      C      -0.8709907800    -1.1700919200     0.0783987300
    4      C      -0.5488480600     1.7331582700    -0.0020070800
    5      O      -1.1951656600    -2.3797798400    -0.4354116600
    6      O      -1.4797003500    -0.6469585800     0.9763302400
    7      O      -1.5971678300     1.5900261600    -0.8422101300
    8      O      -0.5347074100     2.4851564900     0.9371430900
    9      C      -2.8132306000     2.2518054400    -0.4501747900
   10      C      -2.3257344500    -3.0382007200     0.1665902900
   11      C       1.6300986000    -1.1682482400     0.1841869800
   12      C       2.9091986500    -0.9073405100    -0.6455092500
   13      C       3.1163344400     0.6206459600    -0.4068513500
   14      C       1.8661531500     0.9541377900     0.4314994100
   15      O       1.7286832600    -0.2223703000     1.2495445400
   16      H       0.3799269700    -0.9958571800    -1.6272869200
   17      H       0.8545502500     1.2789521400    -1.4844385000
   18      H      -3.1567339900     1.8559614000     0.5068057000
   19      H      -3.2276943200    -2.4377668700     0.0379504500
   20      H       1.5254192000    -2.1745548300     0.5845787300
   21      H       3.7412252000    -1.4912750000    -0.2499422900
   22      H       2.7827714500    -1.1682967900    -1.6982398700
   23      H       4.0210703000     0.8134861400     0.1713059500
   24      H       3.1717268000     1.1980395500    -1.3318497000
   25      H       1.9144854100     1.8359688200     1.0630471500
   26      H      -2.6554173000     3.3278492100    -0.3646952400
   27      H      -3.5311580500     2.0310243900    -1.2373255800
   28      H      -2.1516721800    -3.2000941300     1.2313803400
   29      H      -2.4205894800    -3.9873474800    -0.3562832700
 ----------------------------------------------------------------
 Nuclear Repulsion Energy =  1110.8669497490 hartrees
 There are       57 alpha and       57 beta electrons
 Requested basis set is 6-311++G(d,p)
 There are 160 shells and 428 basis functions

 Total QAlloc Memory Limit  62000 MB
 Mega-Array Size      3911 MB
 MEM_STATIC part      4000 MB
 A cutoff of  1.0D-11 yielded  10526 shell pairs
 There are     76901 function pairs (     82091 Cartesian)
 
 -------------------------------------------------------
 OpenMP Integral Computing Module                       
 Release: version 1.0, May 2013, Q-Chem Inc. Pittsburgh 
 -------------------------------------------------------
 Integral Job Info:
 Integral job number is                      11
 Integral operator is                         1
 short-range coefficients                     0
 long-range coefficients              100000000
 Omega coefficients                           0
 if combine SR and LR in K                    0
 Integral screening is                        0
 Integral computing path is                   2
 max size of driver memory is            800000
 size of driver memory is                593474
 size of scratch memory is              2361544
 max col of scratch BK array               1296
 max len of scratch array in speh3          155
 max len of scratch index in speh4           18
 max int batch size is                      520
 min int batch size is                       52
 fixed nKL is                                52
 max L of basis functions is                  2
 order of int derivative is                   0
 number of shells is                        160
 number of basis is                         443
 number of cartesian basis is               443
 number of contracted shell pairs         10526
 number of primitive shell pairs          23901
 maxK2 (contraction) of shell pair           36
 max number of K2 of shell pair               1
 max number of CS2 of shell pair           1942
 max number of PS2 of shell pair           3438
 mem total for path MDJ                  142472
 -------------------------------------------------------
 Smallest overlap matrix eigenvalue = 9.27E-07

 Q-Chem warning in module /fs/scratch/osu6415/qchem-kaunlao-vdw/stvman/mkSTV.C, line 281:

 Overlap eigenvalue is smaller than square root of threshold

 Linear dependence detected in AO basis
 Number of orthogonalized atomic orbitals = 427
 Maximum deviation from orthogonality = 9.087E-11

 Scale SEOQF with 1.000000e-01/1.000000e-01/1.000000e-01

 Standard Electronic Orientation quadrupole field applied
 Nucleus-field energy     =     0.0000000319 hartrees
 Guess from superposition of atomic densities
 Warning:  Energy on first SCF cycle will be non-variational
 A restricted hybrid HF-DFT SCF calculation will be
 performed using Pulay DIIS extrapolation
 Exchange:     0.2000 Hartree-Fock + 0.0800 Slater + 0.7200 B88
 Correlation:  0.1900 VWN1RPA + 0.8100 LYP
 Using SG-1 standard quadrature grid
 Dispersion:   Grimme D3
 SCF converges when DIIS error is below 1.0E-08
 using 20 threads for integral computing
 -------------------------------------------------------
 OpenMP Integral computing Module                
 Release: version 1.0, May 2013, Q-Chem Inc. Pittsburgh 
 -------------------------------------------------------
 -------------------------------------------------------
 OpenMP BLAS3 based DFT computing Module                
 Release: version 1.0, May 2013, Q-Chem Inc. Pittsburgh 
 -------------------------------------------------------
 ---------------------------------------
  Cycle       Energy         DIIS Error
 ---------------------------------------
    1    -768.9308182572      3.09E-02
    2    -765.5755142901      3.93E-03
    3    -765.0596088084      6.84E-03
    4    -765.8226505778      1.47E-03
    5    -765.8593567306      4.39E-04
    6    -765.8621878706      1.39E-04
    7    -765.8624923463      4.46E-05
    8    -765.8625260214      1.14E-05
    9    -765.8625282794      3.82E-06
   10    -765.8625284584      1.90E-06
   11    -765.8625285192      3.51E-07
   12    -765.8625285211      1.64E-07
   13    -765.8625285218      3.62E-08
   14    -765.8625285213      1.58E-08
   15    -765.8625285252      3.44E-09 Convergence criterion met
 ---------------------------------------
 SCF time:  CPU 725.52 s  wall 38.12 s
 SCF   energy in the final basis set = -765.86252853
 Total energy in the final basis set = -765.86252853
 
 --------------------------------------------------------------
 
                    Orbital Energies (a.u.)
 --------------------------------------------------------------
 
 Alpha MOs
 -- Occupied --
-19.177 -19.167 -19.131 -19.120 -19.111 -10.308 -10.302 -10.240
-10.232 -10.229 -10.222 -10.207 -10.203 -10.183 -10.180  -1.118
 -1.108  -1.064  -1.031  -1.023  -0.831  -0.785  -0.777  -0.738
 -0.725  -0.654  -0.605  -0.597  -0.577  -0.559  -0.546  -0.520
 -0.504  -0.492  -0.487  -0.485  -0.478  -0.471  -0.459  -0.431
 -0.421  -0.419  -0.412  -0.397  -0.386  -0.374  -0.368  -0.366
 -0.360  -0.358  -0.339  -0.333  -0.320  -0.307  -0.291  -0.281
 -0.273
 -- Virtual --
 -0.020  -0.011  -0.004   0.001   0.007   0.012   0.013   0.022
  0.027   0.030   0.037   0.039   0.046   0.048   0.051   0.061
  0.064   0.072   0.079   0.088   0.089   0.092   0.098   0.101
  0.104   0.109   0.113   0.114   0.117   0.120   0.123   0.125
  0.130   0.133   0.137   0.140   0.145   0.147   0.149   0.152
  0.153   0.158   0.159   0.162   0.163   0.175   0.176   0.179
  0.182   0.184   0.189   0.191   0.195   0.197   0.203   0.207
  0.212   0.221   0.228   0.229   0.233   0.240   0.246   0.250
  0.255   0.268   0.271   0.275   0.279   0.287   0.291   0.294
  0.298   0.303   0.309   0.314   0.316   0.325   0.327   0.332
  0.336   0.346   0.349   0.351   0.355   0.358   0.361   0.367
  0.372   0.375   0.384   0.386   0.388   0.400   0.403   0.408
  0.410   0.415   0.430   0.432   0.450   0.465   0.477   0.481
  0.489   0.497   0.515   0.522   0.527   0.542   0.557   0.558
  0.573   0.584   0.588   0.597   0.610   0.617   0.625   0.627
  0.635   0.646   0.651   0.655   0.665   0.670   0.678   0.681
  0.685   0.697   0.702   0.711   0.712   0.735   0.738   0.745
  0.749   0.757   0.762   0.771   0.776   0.781   0.790   0.803
  0.817   0.829   0.843   0.879   0.918   0.926   0.953   0.962
  0.982   1.001   1.029   1.037   1.043   1.058   1.078   1.090
  1.109   1.127   1.140   1.167   1.184   1.194   1.202   1.209
  1.227   1.234   1.238   1.256   1.263   1.283   1.298   1.310
  1.320   1.332   1.338   1.362   1.374   1.394   1.404   1.415
  1.419   1.434   1.444   1.459   1.465   1.473   1.501   1.514
  1.533   1.537   1.545   1.548   1.559   1.578   1.580   1.581
  1.597   1.615   1.618   1.626   1.642   1.668   1.676   1.680
  1.699   1.705   1.708   1.714   1.717   1.728   1.754   1.762
  1.781   1.794   1.799   1.807   1.819   1.842   1.851   1.868
  1.877   1.901   1.909   1.930   1.935   1.946   1.959   1.961
  1.988   1.997   2.017   2.037   2.039   2.077   2.092   2.109
  2.115   2.136   2.144   2.168   2.173   2.178   2.192   2.219
  2.234   2.260   2.288   2.303   2.360   2.363   2.424   2.437
  2.454   2.461   2.471   2.498   2.501   2.505   2.515   2.520
  2.535   2.542   2.567   2.579   2.589   2.628   2.643   2.658
  2.672   2.689   2.716   2.738   2.752   2.774   2.798   2.822
  2.830   2.839   2.850   2.861   2.874   2.888   2.910   2.927
  2.937   2.943   2.974   2.985   3.012   3.024   3.040   3.055
  3.057   3.070   3.096   3.112   3.119   3.125   3.152   3.176
  3.209   3.228   3.234   3.237   3.267   3.291   3.332   3.356
  3.382   3.401   3.416   3.459   3.590   3.602   3.649   3.675
  3.715   3.772   3.791   3.835   3.845   3.898   3.935   4.009
  4.028   4.055   4.080   4.102   4.112   4.124   4.142   4.174
  4.212   4.249   4.403   4.488   5.027   5.065   5.108   5.154
  5.191   5.257   5.301   5.379   5.413   5.491   5.598   5.629
  5.646   5.872   5.894  23.821  23.839  23.841  23.882  23.895
 23.924  23.935  23.943  23.971  24.046  49.902  49.912  49.958
 50.030  50.044
 --------------------------------------------------------------
 
          Ground-State Mulliken Net Atomic Charges

     Atom                 Charge (a.u.)
  ----------------------------------------
      1 C                     0.033889
      2 C                     0.099430
      3 C                    -0.647452
      4 C                    -0.404004
      5 O                    -0.028798
      6 O                    -0.202049
      7 O                    -0.045179
      8 O                    -0.220140
      9 C                    -0.191447
     10 C                    -0.237197
     11 C                     0.353603
     12 C                    -0.469303
     13 C                    -0.465278
     14 C                    -0.141918
     15 O                    -0.141437
     16 H                     0.284033
     17 H                     0.234898
     18 H                     0.190240
     19 H                     0.172418
     20 H                     0.267233
     21 H                     0.180024
     22 H                     0.123944
     23 H                     0.192307
     24 H                     0.125105
     25 H                     0.286735
     26 H                     0.165826
     27 H                     0.149019
     28 H                     0.184343
     29 H                     0.151155
  ----------------------------------------
  Sum of atomic charges =     0.000000

 -----------------------------------------------------------------
                    Cartesian Multipole Moments
 -----------------------------------------------------------------
    Charge (ESU x 10^10)
                 0.0000
    Dipole Moment (Debye)
         X       0.0016      Y      -2.1289      Z      -3.7198
       Tot       4.2859
    Quadrupole Moments (Debye-Ang)
        XX     -76.7908     XY       2.2695     YY     -83.6446
        XZ      -0.8937     YZ      -5.2497     ZZ     -95.1375
    Octopole Moments (Debye-Ang^2)
       XXX     -37.1767    XXY       1.8418    XYY     -24.5066
       YYY     -32.0566    XXZ      -5.5844    XYZ       5.4694
       YYZ      -2.1449    XZZ      -3.7785    YZZ      -3.5203
       ZZZ      -4.5080
    Hexadecapole Moments (Debye-Ang^3)
      XXXX   -1929.2928   XXXY     -11.0000   XXYY    -510.7101
      XYYY      43.2969   YYYY   -1524.3576   XXXZ      30.0548
      XXYZ      -1.2928   XYYZ      12.1153   YYYZ     -45.6788
      XXZZ    -413.8617   XYZZ       7.4981   YYZZ    -331.3132
      XZZZ      -2.3924   YZZZ       4.7476   ZZZZ    -357.3475
 -----------------------------------------------------------------
 Calculating analytic gradient of the SCF energy
 Gradient of SCF Energy
            1           2           3           4           5           6
    1   0.0001469  -0.0000076  -0.0000901  -0.0000443   0.0000517   0.0000051
    2  -0.0000807  -0.0000065   0.0000618   0.0000550  -0.0000308  -0.0000352
    3  -0.0000211   0.0000250   0.0000621   0.0000723   0.0000428  -0.0000678
            7           8           9          10          11          12
    1  -0.0000220  -0.0000137   0.0000166   0.0000098  -0.0000442   0.0000090
    2   0.0000029  -0.0000225  -0.0000527  -0.0000411   0.0000191   0.0000440
    3  -0.0000049  -0.0000852  -0.0000947  -0.0000806  -0.0001198   0.0000615
           13          14          15          16          17          18
    1   0.0000079   0.0000140  -0.0000244  -0.0000425   0.0000418  -0.0000111
    2  -0.0000249   0.0000929  -0.0000304   0.0000087   0.0000144   0.0000129
    3   0.0000869  -0.0001171   0.0000614   0.0000008   0.0000233  -0.0000108
           19          20          21          22          23          24
    1   0.0000029   0.0000118  -0.0000097   0.0000282   0.0000081  -0.0000195
    2   0.0000042   0.0000068  -0.0000079   0.0000109   0.0000593  -0.0000092
    3  -0.0000014   0.0000376   0.0000401   0.0000263   0.0000058   0.0000209
           25          26          27          28          29
    1  -0.0000236  -0.0000115   0.0000078  -0.0000101   0.0000126
    2  -0.0000491   0.0000019  -0.0000125   0.0000005   0.0000082
    3   0.0001072  -0.0000085  -0.0000248  -0.0000103  -0.0000270
 Max gradient component =       1.469E-04
 RMS gradient           =       4.610E-05
 Gradient time:  CPU 244.55 s  wall 18.39 s
 Geometry Optimization Parameters
   NAtoms,    NIC,     NZ,  NCons,   NDum,   NFix, NCnnct, MaxDiis
       29     227       0       0       0       0       0       0


** GEOMETRY OPTIMIZATION IN DELOCALIZED INTERNAL COORDINATES **
   Searching for a Minimum

   Optimization Cycle:   1

                       Coordinates (Angstroms)
     ATOM                X               Y               Z
      1  C         0.3796438600   -0.6473578300   -0.5954206700
      2  C         0.6200248200    0.8939052200   -0.4879695800
      3  C        -0.8709907800   -1.1700919200    0.0783987300
      4  C        -0.5488480600    1.7331582700   -0.0020070800
      5  O        -1.1951656600   -2.3797798400   -0.4354116600
      6  O        -1.4797003500   -0.6469585800    0.9763302400
      7  O        -1.5971678300    1.5900261600   -0.8422101300
      8  O        -0.5347074100    2.4851564900    0.9371430900
      9  C        -2.8132306000    2.2518054400   -0.4501747900
     10  C        -2.3257344500   -3.0382007200    0.1665902900
     11  C         1.6300986000   -1.1682482400    0.1841869800
     12  C         2.9091986500   -0.9073405100   -0.6455092500
     13  C         3.1163344400    0.6206459600   -0.4068513500
     14  C         1.8661531500    0.9541377900    0.4314994100
     15  O         1.7286832600   -0.2223703000    1.2495445400
     16  H         0.3799269700   -0.9958571800   -1.6272869200
     17  H         0.8545502500    1.2789521400   -1.4844385000
     18  H        -3.1567339900    1.8559614000    0.5068057000
     19  H        -3.2276943200   -2.4377668700    0.0379504500
     20  H         1.5254192000   -2.1745548300    0.5845787300
     21  H         3.7412252000   -1.4912750000   -0.2499422900
     22  H         2.7827714500   -1.1682967900   -1.6982398700
     23  H         4.0210703000    0.8134861400    0.1713059500
     24  H         3.1717268000    1.1980395500   -1.3318497000
     25  H         1.9144854100    1.8359688200    1.0630471500
     26  H        -2.6554173000    3.3278492100   -0.3646952400
     27  H        -3.5311580500    2.0310243900   -1.2373255800
     28  H        -2.1516721800   -3.2000941300    1.2313803400
     29  H        -2.4205894800   -3.9873474800   -0.3562832700
   Point Group: c1    Number of degrees of freedom:    81


   Energy is   -765.862528525


 Attempting to Generate Delocalized Internal Coordinates

 81 Hessian modes will be used to form the next step
  Hessian Eigenvalues:
     0.003210    0.006691    0.007302    0.007363    0.010331    0.010499
     0.010633    0.010830    0.021773    0.022085    0.022117    0.026577
     0.030803    0.036176    0.039590    0.041651    0.045396    0.049390
     0.051659    0.055012    0.055738    0.056734    0.059273    0.062333
     0.064359    0.064738    0.073826    0.075107    0.092783    0.094320
     0.097322    0.101183    0.101557    0.105883    0.106151    0.113797
     0.123128    0.158696    0.160000    0.160000    0.160000    0.160000
     0.160000    0.160000    0.166709    0.235636    0.240690    0.247269
     0.249494    0.249783    0.250000    0.250000    0.250000    0.250000
     0.258371    0.271262    0.280840    0.304819    0.309788    0.335702
     0.343868    0.345899    0.346030    0.346805    0.346859    0.346971
     0.347078    0.347121    0.347269    0.349136    0.350351    0.350434
     0.350700    0.352009    0.353105    0.395612    0.397358    0.542469
     0.547934    1.026637    1.032286

 Minimum Search - Taking Simple RFO Step
 Searching for Lamda that Minimizes Along All modes
 Value Taken    Lamda =  -0.00000184
 Step Taken.  Stepsize is  0.014970

                             Maximum     Tolerance    Cnvgd?
         Gradient           0.000073      0.000001      NO
         Displacement       0.006510      0.000001      NO
         Energy change     *********      0.000000      NO


 New Cartesian Coordinates Obtained by Inverse Iteration

 Displacement from previous Coordinates is:  0.034916
 Adding empirical dispersion correction 
 ----------------------------------------------------------------
 Doing -D3(op) with
 s6 =   1.00000
 s8 =   0.78311
 a1 =   0.30000
 a2 =   4.25000
 n  =  10.00000
 -D3 energy without 3body term =     -0.0304330908 hartrees
 ----------------------------------------------------------------
             Standard Nuclear Orientation (Angstroms)
    I     Atom           X                Y                Z
 ----------------------------------------------------------------
    1      C       0.3803921531    -0.6468810232    -0.5948895535
    2      C       0.6203820201     0.8944823219    -0.4892022652
    3      C      -0.8709523620    -1.1692825927     0.0776568598
    4      C      -0.5483785807     1.7332964099    -0.0024264817
    5      O      -1.1954963459    -2.3785127946    -0.4370033771
    6      O      -1.4802093305    -0.6460260848     0.9751865855
    7      O      -1.5973238231     1.5899756496    -0.8418115259
    8      O      -0.5344063614     2.4837626342     0.9379998144
    9      C      -2.8139786127     2.2493478039    -0.4474130294
   10      C      -2.3266978534    -3.0366626519     0.1641197277
   11      C       1.6300558346    -1.1666998599     0.1869200368
   12      C       2.9091755381    -0.9086303474    -0.6436123354
   13      C       3.1171292212     0.6197826040    -0.4084589653
   14      C       1.8671859466     0.9560641432     0.4292672416
   15      O       1.7291682883    -0.2183485594     1.2500770542
   16      H       0.3825186424    -0.9966428990    -1.6263270895
   17      H       0.8535632626     1.2787276733    -1.4863010675
   18      H      -3.1564621367     1.8505889381     0.5087071869
   19      H      -3.2286678041    -2.4366827014     0.0335380008
   20      H       1.5245223268    -2.1720895776     0.5893624716
   21      H       3.7410679925    -1.4919510671    -0.2468630809
   22      H       2.7823334969    -1.1719719143    -1.6957018369
   23      H       4.0217883339     0.8127909151     0.1697535683
   24      H       3.1734826659     1.1953262749    -1.3345588472
   25      H       1.9163400864     1.8398014825     1.0580625608
   26      H      -2.6574314496     3.3253613226    -0.3594875909
   27      H      -3.5320637715     2.0295976936    -1.2347292919
   28      H      -2.1539950042    -3.1975913022     1.2292641985
   29      H      -2.4205404738    -3.9863557314    -0.3579832488
 ----------------------------------------------------------------
 Nuclear Repulsion Energy =  1110.9310633057 hartrees
 There are       57 alpha and       57 beta electrons
 Applying Cartesian multipole field
    Component          Value
    ---------          -----
     (2,0,0)        1.00000E-11
     (0,2,0)        2.00000E-11
     (0,0,2)       -3.00000E-11
 Nucleus-field energy     =     0.0000000318 hartrees
 Requested basis set is 6-311++G(d,p)
 There are 160 shells and 428 basis functions
 A cutoff of  1.0D-11 yielded  10526 shell pairs
 There are     76912 function pairs (     82102 Cartesian)
 Smallest overlap matrix eigenvalue = 9.25E-07

 Q-Chem warning in module /fs/scratch/osu6415/qchem-kaunlao-vdw/stvman/mkSTV.C, line 281:

 Overlap eigenvalue is smaller than square root of threshold

 Linear dependence detected in AO basis
 Number of orthogonalized atomic orbitals = 427
 Maximum deviation from orthogonality = 7.689E-11
 Guess MOs from SCF MO coefficient file
 Reading MOs from coefficient file
 Reading MOs from coefficient file
 A restricted hybrid HF-DFT SCF calculation will be
 performed using Pulay DIIS extrapolation
 Exchange:     0.2000 Hartree-Fock + 0.0800 Slater + 0.7200 B88
 Correlation:  0.1900 VWN1RPA + 0.8100 LYP
 Using SG-1 standard quadrature grid
 Dispersion:   Grimme D3
 SCF converges when DIIS error is below 1.0E-08
 Geometry optimization detected.  Setting ReadMinima to 0
 Setting SaveMinima to 0
 using 20 threads for integral computing
 -------------------------------------------------------
 OpenMP Integral computing Module                
 Release: version 1.0, May 2013, Q-Chem Inc. Pittsburgh 
 -------------------------------------------------------
 -------------------------------------------------------
 OpenMP BLAS3 based DFT computing Module                
 Release: version 1.0, May 2013, Q-Chem Inc. Pittsburgh 
 -------------------------------------------------------
 ---------------------------------------
  Cycle       Energy         DIIS Error
 ---------------------------------------
    1    -765.8624575614      4.66E-05
    2    -765.8625286190      4.61E-06
    3    -765.8625282477      7.20E-06
    4    -765.8625290894      1.89E-06
    5    -765.8625291405      6.18E-07
    6    -765.8625291475      1.32E-07
    7    -765.8625291477      6.92E-08
    8    -765.8625291486      1.35E-08
    9    -765.8625291473      4.49E-09 Convergence criterion met
 ---------------------------------------
 SCF time:  CPU 427.56 s  wall 22.27 s
 SCF   energy in the final basis set = -765.86252915
 Total energy in the final basis set = -765.86252915
 
 --------------------------------------------------------------
 
                    Orbital Energies (a.u.)
 --------------------------------------------------------------
 
 Alpha MOs
 -- Occupied --
-19.177 -19.167 -19.131 -19.120 -19.111 -10.309 -10.302 -10.240
-10.232 -10.229 -10.222 -10.207 -10.203 -10.183 -10.180  -1.118
 -1.108  -1.064  -1.031  -1.023  -0.832  -0.785  -0.777  -0.738
 -0.725  -0.654  -0.605  -0.597  -0.577  -0.559  -0.546  -0.520
 -0.504  -0.492  -0.487  -0.485  -0.478  -0.471  -0.459  -0.431
 -0.421  -0.420  -0.412  -0.397  -0.386  -0.374  -0.368  -0.366
 -0.360  -0.358  -0.339  -0.333  -0.320  -0.307  -0.291  -0.281
 -0.273
 -- Virtual --
 -0.020  -0.011  -0.004   0.001   0.007   0.012   0.013   0.022
  0.027   0.030   0.037   0.039   0.046   0.048   0.051   0.061
  0.064   0.072   0.079   0.088   0.089   0.092   0.098   0.101
  0.104   0.109   0.114   0.114   0.117   0.120   0.123   0.125
  0.130   0.133   0.137   0.140   0.145   0.147   0.149   0.152
  0.153   0.158   0.159   0.162   0.163   0.175   0.176   0.179
  0.182   0.184   0.189   0.191   0.195   0.197   0.203   0.207
  0.212   0.221   0.228   0.229   0.233   0.240   0.246   0.250
  0.255   0.268   0.271   0.275   0.279   0.287   0.291   0.293
  0.298   0.303   0.309   0.314   0.316   0.325   0.327   0.332
  0.336   0.346   0.349   0.350   0.355   0.358   0.361   0.367
  0.372   0.376   0.384   0.385   0.388   0.400   0.403   0.408
  0.410   0.415   0.430   0.432   0.450   0.465   0.477   0.481
  0.489   0.497   0.515   0.522   0.527   0.542   0.557   0.558
  0.573   0.584   0.588   0.597   0.610   0.617   0.625   0.627
  0.635   0.646   0.651   0.655   0.665   0.670   0.678   0.681
  0.685   0.697   0.702   0.711   0.712   0.735   0.738   0.745
  0.749   0.757   0.762   0.771   0.776   0.782   0.790   0.803
  0.817   0.829   0.843   0.879   0.918   0.926   0.953   0.961
  0.982   1.001   1.029   1.037   1.043   1.058   1.078   1.090
  1.109   1.128   1.140   1.167   1.185   1.194   1.202   1.209
  1.227   1.234   1.239   1.257   1.263   1.283   1.298   1.310
  1.320   1.332   1.339   1.362   1.374   1.395   1.404   1.415
  1.419   1.434   1.444   1.459   1.465   1.473   1.501   1.514
  1.533   1.537   1.545   1.548   1.559   1.578   1.580   1.581
  1.597   1.615   1.618   1.626   1.642   1.668   1.676   1.680
  1.699   1.705   1.708   1.714   1.717   1.728   1.754   1.762
  1.782   1.794   1.799   1.807   1.819   1.842   1.851   1.868
  1.877   1.901   1.909   1.930   1.935   1.946   1.959   1.961
  1.988   1.997   2.017   2.037   2.039   2.077   2.092   2.109
  2.115   2.136   2.144   2.168   2.173   2.178   2.192   2.219
  2.234   2.260   2.287   2.303   2.360   2.363   2.424   2.437
  2.454   2.461   2.471   2.498   2.501   2.505   2.515   2.520
  2.535   2.542   2.567   2.578   2.589   2.628   2.643   2.658
  2.672   2.688   2.716   2.738   2.752   2.774   2.798   2.822
  2.830   2.839   2.850   2.862   2.874   2.888   2.910   2.927
  2.937   2.943   2.973   2.986   3.012   3.024   3.040   3.055
  3.057   3.070   3.096   3.112   3.120   3.125   3.152   3.176
  3.209   3.228   3.234   3.237   3.267   3.291   3.332   3.356
  3.382   3.402   3.416   3.459   3.590   3.602   3.649   3.675
  3.715   3.772   3.791   3.835   3.844   3.898   3.935   4.009
  4.028   4.055   4.080   4.102   4.112   4.124   4.142   4.174
  4.212   4.249   4.403   4.488   5.026   5.065   5.108   5.155
  5.190   5.258   5.301   5.379   5.413   5.491   5.598   5.629
  5.646   5.873   5.894  23.821  23.839  23.841  23.882  23.895
 23.924  23.935  23.943  23.971  24.046  49.902  49.912  49.958
 50.030  50.044
 --------------------------------------------------------------
 
          Ground-State Mulliken Net Atomic Charges

     Atom                 Charge (a.u.)
  ----------------------------------------
      1 C                     0.035209
      2 C                     0.099252
      3 C                    -0.648596
      4 C                    -0.402202
      5 O                    -0.028718
      6 O                    -0.202364
      7 O                    -0.045073
      8 O                    -0.220299
      9 C                    -0.191130
     10 C                    -0.237211
     11 C                     0.353176
     12 C                    -0.468019
     13 C                    -0.465987
     14 C                    -0.143605
     15 O                    -0.141526
     16 H                     0.284143
     17 H                     0.234931
     18 H                     0.190186
     19 H                     0.172399
     20 H                     0.267336
     21 H                     0.180017
     22 H                     0.123813
     23 H                     0.192307
     24 H                     0.125159
     25 H                     0.286532
     26 H                     0.165770
     27 H                     0.148997
     28 H                     0.184324
     29 H                     0.151177
  ----------------------------------------
  Sum of atomic charges =     0.000000

 -----------------------------------------------------------------
                    Cartesian Multipole Moments
 -----------------------------------------------------------------
    Charge (ESU x 10^10)
                 0.0000
    Dipole Moment (Debye)
         X       0.0025      Y      -2.1331      Z      -3.7192
       Tot       4.2875
    Quadrupole Moments (Debye-Ang)
        XX     -76.7854     XY       2.2719     YY     -83.6418
        XZ      -0.9004     YZ      -5.2559     ZZ     -95.1479
    Octopole Moments (Debye-Ang^2)
       XXX     -37.2144    XXY       1.7904    XYY     -24.4723
       YYY     -32.0831    XXZ      -5.5701    XYZ       5.4089
       YYZ      -2.1158    XZZ      -3.7815    YZZ      -3.5974
       ZZZ      -4.4946
    Hexadecapole Moments (Debye-Ang^3)
      XXXX   -1930.0838   XXXY     -11.1345   XXYY    -510.6843
      XYYY      43.1583   YYYY   -1522.9857   XXXZ      30.0247
      XXYZ      -1.3827   XYYZ      12.1087   YYYZ     -45.8418
      XXZZ    -414.0166   XYZZ       7.3890   YYZZ    -331.0818
      XZZZ      -2.4917   YZZZ       4.2928   ZZZZ    -357.2045
 -----------------------------------------------------------------
 Calculating analytic gradient of the SCF energy
 Gradient of SCF Energy
            1           2           3           4           5           6
    1   0.0001412  -0.0000878  -0.0000041   0.0000641   0.0000324  -0.0000253
    2  -0.0000124  -0.0000769  -0.0000047   0.0001347  -0.0000238   0.0000350
    3  -0.0000779   0.0001255   0.0000900  -0.0001471   0.0000078  -0.0000791
            7           8           9          10          11          12
    1  -0.0000511  -0.0000405   0.0000113  -0.0000039  -0.0000626  -0.0000124
    2  -0.0000593  -0.0000584  -0.0000396  -0.0000022   0.0000048   0.0000098
    3   0.0000281   0.0000293  -0.0000446  -0.0000535  -0.0000310   0.0000306
           13          14          15          16          17          18
    1   0.0000320   0.0000250  -0.0000016  -0.0000171   0.0000057  -0.0000217
    2  -0.0000023   0.0000485   0.0000230   0.0000092   0.0000187   0.0000058
    3   0.0000590  -0.0000204   0.0000764  -0.0000152   0.0000212  -0.0000255
           19          20          21          22          23          24
    1   0.0000077   0.0000033  -0.0000079   0.0000269   0.0000046  -0.0000024
    2  -0.0000058  -0.0000046   0.0000032   0.0000141   0.0000124   0.0000067
    3  -0.0000155   0.0000010   0.0000444   0.0000180   0.0000153   0.0000296
           25          26          27          28          29
    1  -0.0000249  -0.0000098   0.0000044  -0.0000001   0.0000146
    2  -0.0000052  -0.0000013  -0.0000145  -0.0000130  -0.0000019
    3   0.0000283  -0.0000228  -0.0000291  -0.0000161  -0.0000266
 Max gradient component =       1.471E-04
 RMS gradient           =       4.410E-05
 Gradient time:  CPU 240.52 s  wall 17.31 s
 Geometry Optimization Parameters
   NAtoms,    NIC,     NZ,  NCons,   NDum,   NFix, NCnnct, MaxDiis
       29     227       0       0       0       0       0       0

 Cartesian Hessian Update
 Hessian Updated using BFGS Update


** GEOMETRY OPTIMIZATION IN DELOCALIZED INTERNAL COORDINATES **
   Searching for a Minimum

   Optimization Cycle:   2

                       Coordinates (Angstroms)
     ATOM                X               Y               Z
      1  C         0.3803921531   -0.6468810232   -0.5948895535
      2  C         0.6203820201    0.8944823219   -0.4892022652
      3  C        -0.8709523620   -1.1692825927    0.0776568598
      4  C        -0.5483785807    1.7332964099   -0.0024264817
      5  O        -1.1954963459   -2.3785127946   -0.4370033771
      6  O        -1.4802093305   -0.6460260848    0.9751865855
      7  O        -1.5973238231    1.5899756496   -0.8418115259
      8  O        -0.5344063614    2.4837626342    0.9379998144
      9  C        -2.8139786127    2.2493478039   -0.4474130294
     10  C        -2.3266978534   -3.0366626519    0.1641197277
     11  C         1.6300558346   -1.1666998599    0.1869200368
     12  C         2.9091755381   -0.9086303474   -0.6436123354
     13  C         3.1171292212    0.6197826040   -0.4084589653
     14  C         1.8671859466    0.9560641432    0.4292672416
     15  O         1.7291682883   -0.2183485594    1.2500770542
     16  H         0.3825186424   -0.9966428990   -1.6263270895
     17  H         0.8535632626    1.2787276733   -1.4863010675
     18  H        -3.1564621367    1.8505889381    0.5087071869
     19  H        -3.2286678041   -2.4366827014    0.0335380008
     20  H         1.5245223268   -2.1720895776    0.5893624716
     21  H         3.7410679925   -1.4919510671   -0.2468630809
     22  H         2.7823334969   -1.1719719143   -1.6957018369
     23  H         4.0217883339    0.8127909151    0.1697535683
     24  H         3.1734826659    1.1953262749   -1.3345588472
     25  H         1.9163400864    1.8398014825    1.0580625608
     26  H        -2.6574314496    3.3253613226   -0.3594875909
     27  H        -3.5320637715    2.0295976936   -1.2347292919
     28  H        -2.1539950042   -3.1975913022    1.2292641985
     29  H        -2.4205404738   -3.9863557314   -0.3579832488
   Point Group: c1    Number of degrees of freedom:    81


   Energy is   -765.862529147

 Hessian Updated using BFGS Update

 75 Hessian modes will be used to form the next step
  Hessian Eigenvalues:
     0.002148    0.003760    0.006908    0.007611    0.009926    0.010473
     0.010798    0.018576    0.021748    0.021983    0.026126    0.028492
     0.031203    0.036211    0.040372    0.040848    0.045476    0.050729
     0.051675    0.055049    0.056211    0.056870    0.060350    0.062348
     0.064554    0.064766    0.073824    0.075162    0.092892    0.093954
     0.098374    0.101207    0.101639    0.105925    0.106137    0.113705
     0.124904    0.159275    0.159616    0.160313    0.166715    0.234369
     0.242953    0.247335    0.249488    0.249675    0.249969    0.252957
     0.258993    0.271961    0.281175    0.306065    0.309619    0.336169
     0.343881    0.345935    0.346022    0.346794    0.346830    0.346940
     0.347039    0.347144    0.347277    0.349321    0.350309    0.350394
     0.350644    0.351745    0.353183    0.395600    0.397141    0.542477
     0.548029    1.025498    1.032221

 Minimum Search - Taking Simple RFO Step
 Searching for Lamda that Minimizes Along All modes
 Value Taken    Lamda =  -0.00000341
 Step Taken.  Stepsize is  0.033995

                             Maximum     Tolerance    Cnvgd?
         Gradient           0.000093      0.000001      NO
         Displacement       0.018956      0.000001      NO
         Energy change     -0.000001      0.000000      NO


 New Cartesian Coordinates Obtained by Inverse Iteration

 Displacement from previous Coordinates is:  0.058772
 Adding empirical dispersion correction 
 ----------------------------------------------------------------
 Doing -D3(op) with
 s6 =   1.00000
 s8 =   0.78311
 a1 =   0.30000
 a2 =   4.25000
 n  =  10.00000
 -D3 energy without 3body term =     -0.0304199357 hartrees
 ----------------------------------------------------------------
             Standard Nuclear Orientation (Angstroms)
    I     Atom           X                Y                Z
 ----------------------------------------------------------------
    1      C       0.3802158066    -0.6475154193    -0.5928581308
    2      C       0.6188112911     0.8942152477    -0.4899190608
    3      C      -0.8711001337    -1.1713671389     0.0781725565
    4      C      -0.5496749045     1.7316596090    -0.0004371331
    5      O      -1.1961630556    -2.3790395680    -0.4398131366
    6      O      -1.4783555759    -0.6518159410     0.9792975451
    7      O      -1.5970011481     1.5952169132    -0.8429488025
    8      O      -0.5348870927     2.4800409893     0.9417321639
    9      C      -2.8133815989     2.2543716865    -0.4470086509
   10      C      -2.3255858301    -3.0397965855     0.1618436023
   11      C       1.6298975089    -1.1649850845     0.1911556415
   12      C       2.9080553943    -0.9099604725    -0.6418663846
   13      C       3.1163778850     0.6191064001    -0.4114381626
   14      C       1.8671154909     0.9583936469     0.4262150674
   15      O       1.7298008958    -0.2130671938     1.2510171706
   16      H       0.3851846532    -0.9988630303    -1.6237215237
   17      H       0.8489767977     1.2775109381    -1.4881073888
   18      H      -3.1598692533     1.8481503880     0.5044843048
   19      H      -3.2292388961    -2.4426023309     0.0302830497
   20      H       1.5241681127    -2.1691139643     0.5966251877
   21      H       3.7407398163    -1.4917984986    -0.2445978170
   22      H       2.7795417618    -1.1765410133    -1.6929323913
   23      H       4.0208839155     0.8124412347     0.1668989010
   24      H       3.1737074394     1.1924868561    -1.3388369872
   25      H       1.9173768041     1.8451392257     1.0506481226
   26      H      -2.6545498098     3.3292106027    -0.3498664899
   27      H      -3.5293693791     2.0428289867    -1.2385201847
   28      H      -2.1524988592    -3.1994720507     1.2270793771
   29      H      -2.4166761364    -3.9902576732    -0.3594347259
 ----------------------------------------------------------------
 Nuclear Repulsion Energy =  1110.7401132497 hartrees
 There are       57 alpha and       57 beta electrons
 Applying Cartesian multipole field
    Component          Value
    ---------          -----
     (2,0,0)        1.00000E-11
     (0,2,0)        2.00000E-11
     (0,0,2)       -3.00000E-11
 Nucleus-field energy     =     0.0000000319 hartrees
 Requested basis set is 6-311++G(d,p)
 There are 160 shells and 428 basis functions
 A cutoff of  1.0D-11 yielded  10524 shell pairs
 There are     76880 function pairs (     82066 Cartesian)
 Smallest overlap matrix eigenvalue = 9.21E-07

 Q-Chem warning in module /fs/scratch/osu6415/qchem-kaunlao-vdw/stvman/mkSTV.C, line 281:

 Overlap eigenvalue is smaller than square root of threshold

 Linear dependence detected in AO basis
 Number of orthogonalized atomic orbitals = 427
 Maximum deviation from orthogonality = 7.708E-11
 Guess MOs from SCF MO coefficient file
 Reading MOs from coefficient file
 Reading MOs from coefficient file
 A restricted hybrid HF-DFT SCF calculation will be
 performed using Pulay DIIS extrapolation
 Exchange:     0.2000 Hartree-Fock + 0.0800 Slater + 0.7200 B88
 Correlation:  0.1900 VWN1RPA + 0.8100 LYP
 Using SG-1 standard quadrature grid
 Dispersion:   Grimme D3
 SCF converges when DIIS error is below 1.0E-08
 Geometry optimization detected.  Setting ReadMinima to 0
 Setting SaveMinima to 0
 using 20 threads for integral computing
 -------------------------------------------------------
 OpenMP Integral computing Module                
 Release: version 1.0, May 2013, Q-Chem Inc. Pittsburgh 
 -------------------------------------------------------
 -------------------------------------------------------
 OpenMP BLAS3 based DFT computing Module                
 Release: version 1.0, May 2013, Q-Chem Inc. Pittsburgh 
 -------------------------------------------------------
 ---------------------------------------
  Cycle       Energy         DIIS Error
 ---------------------------------------
    1    -765.8625504172      9.38E-05
    2    -765.8625273520      8.25E-06
    3    -765.8625270663      1.10E-05
    4    -765.8625289762      3.46E-06
    5    -765.8625291329      1.38E-06
    6    -765.8625291651      3.71E-07
    7    -765.8625291670      1.56E-07
    8    -765.8625291670      2.10E-08
    9    -765.8625291683      1.09E-08
   10    -765.8625291722      5.83E-09 Convergence criterion met
 ---------------------------------------
 SCF time:  CPU 475.98 s  wall 25.90 s
 SCF   energy in the final basis set = -765.86252917
 Total energy in the final basis set = -765.86252917
 
 --------------------------------------------------------------
 
                    Orbital Energies (a.u.)
 --------------------------------------------------------------
 
 Alpha MOs
 -- Occupied --
-19.177 -19.167 -19.131 -19.120 -19.111 -10.309 -10.302 -10.240
-10.232 -10.229 -10.222 -10.207 -10.203 -10.183 -10.180  -1.118
 -1.108  -1.064  -1.031  -1.023  -0.832  -0.785  -0.777  -0.738
 -0.725  -0.654  -0.605  -0.597  -0.577  -0.559  -0.546  -0.520
 -0.504  -0.492  -0.487  -0.485  -0.478  -0.471  -0.459  -0.431
 -0.421  -0.420  -0.412  -0.397  -0.385  -0.374  -0.368  -0.366
 -0.360  -0.358  -0.339  -0.333  -0.320  -0.307  -0.291  -0.281
 -0.273
 -- Virtual --
 -0.020  -0.011  -0.004   0.001   0.007   0.012   0.013   0.022
  0.027   0.030   0.037   0.039   0.046   0.048   0.051   0.061
  0.064   0.072   0.079   0.088   0.089   0.092   0.098   0.101
  0.104   0.109   0.113   0.114   0.117   0.120   0.123   0.125
  0.130   0.133   0.137   0.140   0.145   0.147   0.149   0.152
  0.153   0.158   0.159   0.162   0.163   0.175   0.176   0.179
  0.182   0.184   0.189   0.192   0.195   0.197   0.203   0.207
  0.212   0.221   0.228   0.229   0.233   0.240   0.246   0.250
  0.255   0.268   0.271   0.275   0.279   0.287   0.291   0.293
  0.298   0.303   0.308   0.314   0.316   0.325   0.327   0.332
  0.336   0.346   0.349   0.350   0.355   0.358   0.361   0.367
  0.372   0.376   0.384   0.385   0.388   0.400   0.403   0.408
  0.410   0.415   0.430   0.433   0.450   0.465   0.477   0.481
  0.489   0.497   0.515   0.522   0.527   0.542   0.557   0.558
  0.572   0.584   0.588   0.597   0.610   0.617   0.625   0.627
  0.635   0.646   0.651   0.655   0.665   0.670   0.678   0.681
  0.685   0.697   0.702   0.711   0.712   0.736   0.738   0.745
  0.749   0.757   0.762   0.771   0.775   0.782   0.790   0.803
  0.817   0.830   0.843   0.879   0.918   0.927   0.952   0.961
  0.983   1.000   1.029   1.037   1.044   1.058   1.078   1.090
  1.109   1.127   1.139   1.167   1.185   1.193   1.202   1.209
  1.227   1.234   1.239   1.257   1.263   1.282   1.298   1.310
  1.320   1.331   1.339   1.363   1.373   1.394   1.404   1.415
  1.420   1.434   1.444   1.459   1.466   1.472   1.501   1.514
  1.533   1.537   1.546   1.548   1.559   1.578   1.580   1.580
  1.597   1.615   1.618   1.626   1.642   1.668   1.676   1.680
  1.699   1.705   1.708   1.714   1.717   1.729   1.754   1.762
  1.782   1.794   1.799   1.807   1.819   1.843   1.851   1.867
  1.877   1.901   1.909   1.931   1.935   1.945   1.959   1.961
  1.988   1.997   2.017   2.037   2.039   2.077   2.092   2.109
  2.115   2.136   2.144   2.168   2.173   2.178   2.191   2.219
  2.233   2.259   2.287   2.303   2.360   2.364   2.425   2.437
  2.454   2.461   2.471   2.498   2.501   2.504   2.514   2.520
  2.535   2.542   2.567   2.578   2.588   2.628   2.644   2.658
  2.672   2.688   2.716   2.738   2.752   2.774   2.798   2.822
  2.830   2.839   2.850   2.861   2.873   2.888   2.909   2.926
  2.937   2.943   2.973   2.986   3.012   3.024   3.041   3.054
  3.057   3.070   3.096   3.111   3.120   3.124   3.152   3.176
  3.209   3.228   3.233   3.237   3.267   3.291   3.332   3.355
  3.382   3.401   3.416   3.459   3.590   3.602   3.649   3.675
  3.715   3.772   3.791   3.834   3.844   3.899   3.935   4.009
  4.028   4.056   4.080   4.102   4.112   4.124   4.142   4.174
  4.211   4.249   4.403   4.488   5.027   5.066   5.107   5.153
  5.190   5.258   5.301   5.379   5.413   5.491   5.598   5.629
  5.646   5.873   5.894  23.821  23.839  23.842  23.882  23.895
 23.924  23.934  23.943  23.971  24.046  49.902  49.912  49.958
 50.030  50.044
 --------------------------------------------------------------
 
          Ground-State Mulliken Net Atomic Charges

     Atom                 Charge (a.u.)
  ----------------------------------------
      1 C                     0.041736
      2 C                     0.100917
      3 C                    -0.649868
      4 C                    -0.406857
      5 O                    -0.028514
      6 O                    -0.202245
      7 O                    -0.045312
      8 O                    -0.219784
      9 C                    -0.190080
     10 C                    -0.237342
     11 C                     0.349526
     12 C                    -0.465426
     13 C                    -0.467098
     14 C                    -0.145172
     15 O                    -0.141758
     16 H                     0.284382
     17 H                     0.235444
     18 H                     0.189997
     19 H                     0.172435
     20 H                     0.267430
     21 H                     0.179981
     22 H                     0.123608
     23 H                     0.192330
     24 H                     0.125241
     25 H                     0.286190
     26 H                     0.165758
     27 H                     0.148991
     28 H                     0.184279
     29 H                     0.151208
  ----------------------------------------
  Sum of atomic charges =     0.000000

 -----------------------------------------------------------------
                    Cartesian Multipole Moments
 -----------------------------------------------------------------
    Charge (ESU x 10^10)
                 0.0000
    Dipole Moment (Debye)
         X       0.0018      Y      -2.1299      Z      -3.7255
       Tot       4.2914
    Quadrupole Moments (Debye-Ang)
        XX     -76.7857     XY       2.2451     YY     -83.5655
        XZ      -0.8947     YZ      -5.2682     ZZ     -95.2036
    Octopole Moments (Debye-Ang^2)
       XXX     -37.1989    XXY       1.8448    XYY     -24.5271
       YYY     -31.9387    XXZ      -5.6227    XYZ       5.3576
       YYZ      -2.1008    XZZ      -3.7415    YZZ      -3.6448
       ZZZ      -4.6696
    Hexadecapole Moments (Debye-Ang^3)
      XXXX   -1929.1289   XXXY     -11.2715   XXYY    -510.6612
      XYYY      43.2001   YYYY   -1523.7399   XXXZ      29.9616
      XXYZ      -1.4811   XYYZ      12.1664   YYYZ     -45.6578
      XXZZ    -414.0220   XYZZ       7.2460   YYZZ    -331.6543
      XZZZ      -2.5054   YZZZ       4.0910   ZZZZ    -357.8801
 -----------------------------------------------------------------
 Calculating analytic gradient of the SCF energy
 Gradient of SCF Energy
            1           2           3           4           5           6
    1   0.0000552  -0.0000897  -0.0001384  -0.0002713   0.0000622   0.0000536
    2   0.0000848   0.0001206   0.0000698  -0.0006262  -0.0000516  -0.0001707
    3   0.0000509   0.0000284  -0.0001488   0.0001249   0.0000402   0.0001275
            7           8           9          10          11          12
    1   0.0001185   0.0000952   0.0000250  -0.0000242  -0.0000108  -0.0000296
    2   0.0003201   0.0002242   0.0000010   0.0000760  -0.0000350  -0.0000491
    3  -0.0001922  -0.0000454   0.0000747   0.0000064   0.0000818  -0.0000239
           13          14          15          16          17          18
    1   0.0000443   0.0000094  -0.0000101   0.0000411   0.0000171  -0.0000053
    2   0.0000448  -0.0000455   0.0000802   0.0000095   0.0000062  -0.0000428
    3  -0.0000062   0.0001657   0.0000651  -0.0000168  -0.0000319  -0.0000633
           19          20          21          22          23          24
    1   0.0000194  -0.0000160   0.0000157   0.0000177  -0.0000164   0.0000368
    2  -0.0000238  -0.0000131   0.0000371   0.0000136  -0.0000669   0.0000394
    3  -0.0000491  -0.0000514   0.0000445   0.0000153   0.0000529   0.0000384
           25          26          27          28          29
    1  -0.0000222  -0.0000087  -0.0000024   0.0000169   0.0000171
    2   0.0000889  -0.0000095  -0.0000121  -0.0000430  -0.0000270
    3  -0.0001270  -0.0000611  -0.0000506  -0.0000280  -0.0000209
 Max gradient component =       6.262E-04
 RMS gradient           =       1.057E-04
 Gradient time:  CPU 239.69 s  wall 16.91 s
 Geometry Optimization Parameters
   NAtoms,    NIC,     NZ,  NCons,   NDum,   NFix, NCnnct, MaxDiis
       29     227       0       0       0       0       0       0

 Cartesian Hessian Update
 Hessian Updated using BFGS Update


** GEOMETRY OPTIMIZATION IN DELOCALIZED INTERNAL COORDINATES **
   Searching for a Minimum

   Optimization Cycle:   3

                       Coordinates (Angstroms)
     ATOM                X               Y               Z
      1  C         0.3802158066   -0.6475154193   -0.5928581308
      2  C         0.6188112911    0.8942152477   -0.4899190608
      3  C        -0.8711001337   -1.1713671389    0.0781725565
      4  C        -0.5496749045    1.7316596090   -0.0004371331
      5  O        -1.1961630556   -2.3790395680   -0.4398131366
      6  O        -1.4783555759   -0.6518159410    0.9792975451
      7  O        -1.5970011481    1.5952169132   -0.8429488025
      8  O        -0.5348870927    2.4800409893    0.9417321639
      9  C        -2.8133815989    2.2543716865   -0.4470086509
     10  C        -2.3255858301   -3.0397965855    0.1618436023
     11  C         1.6298975089   -1.1649850845    0.1911556415
     12  C         2.9080553943   -0.9099604725   -0.6418663846
     13  C         3.1163778850    0.6191064001   -0.4114381626
     14  C         1.8671154909    0.9583936469    0.4262150674
     15  O         1.7298008958   -0.2130671938    1.2510171706
     16  H         0.3851846532   -0.9988630303   -1.6237215237
     17  H         0.8489767977    1.2775109381   -1.4881073888
     18  H        -3.1598692533    1.8481503880    0.5044843048
     19  H        -3.2292388961   -2.4426023309    0.0302830497
     20  H         1.5241681127   -2.1691139643    0.5966251877
     21  H         3.7407398163   -1.4917984986   -0.2445978170
     22  H         2.7795417618   -1.1765410133   -1.6929323913
     23  H         4.0208839155    0.8124412347    0.1668989010
     24  H         3.1737074394    1.1924868561   -1.3388369872
     25  H         1.9173768041    1.8451392257    1.0506481226
     26  H        -2.6545498098    3.3292106027   -0.3498664899
     27  H        -3.5293693791    2.0428289867   -1.2385201847
     28  H        -2.1524988592   -3.1994720507    1.2270793771
     29  H        -2.4166761364   -3.9902576732   -0.3594347259
   Point Group: c1    Number of degrees of freedom:    81


   Energy is   -765.862529172

 Hessian Updated using BFGS Update

 77 Hessian modes will be used to form the next step
  Hessian Eigenvalues:
     0.002706    0.004696    0.007123    0.007728    0.009850    0.010481
     0.010841    0.021705    0.021978    0.022241    0.026142    0.031050
     0.035496    0.038642    0.039796    0.042784    0.046374    0.051605
     0.053643    0.055388    0.056534    0.056749    0.061075    0.064218
     0.064719    0.065017    0.073847    0.075451    0.092962    0.095544
     0.101112    0.101243    0.101725    0.105917    0.106143    0.116417
     0.129742    0.159512    0.159998    0.160056    0.165416    0.170692
     0.233123    0.243142    0.247384    0.249546    0.249717    0.249976
     0.251187    0.257967    0.260341    0.271946    0.281157    0.306113
     0.310676    0.336266    0.344106    0.345923    0.346032    0.346811
     0.346826    0.346933    0.347034    0.347152    0.347275    0.349239
     0.350284    0.350390    0.350632    0.351846    0.353185    0.395589
     0.397210    0.542483    0.548321    1.025451    1.033223

 Minimum Search - Taking Simple RFO Step
 Searching for Lamda that Minimizes Along All modes
 Value Taken    Lamda =  -0.00000738
 Step Taken.  Stepsize is  0.019546

                             Maximum     Tolerance    Cnvgd?
         Gradient           0.000436      0.000001      NO
         Displacement       0.008417      0.000001      NO
         Energy change     -0.000000      0.000000      NO


 New Cartesian Coordinates Obtained by Inverse Iteration

 Displacement from previous Coordinates is:  0.043475
 Adding empirical dispersion correction 
 ----------------------------------------------------------------
 Doing -D3(op) with
 s6 =   1.00000
 s8 =   0.78311
 a1 =   0.30000
 a2 =   4.25000
 n  =  10.00000
 -D3 energy without 3body term =     -0.0304311524 hartrees
 ----------------------------------------------------------------
             Standard Nuclear Orientation (Angstroms)
    I     Atom           X                Y                Z
 ----------------------------------------------------------------
    1      C       0.3808735678    -0.6472643819    -0.5937482756
    2      C       0.6202825898     0.8943907894    -0.4902116335
    3      C      -0.8707992399    -1.1697680372     0.0777994460
    4      C      -0.5483105851     1.7326489904    -0.0020348211
    5      O      -1.1965978615    -2.3777440569    -0.4390117659
    6      O      -1.4792359365    -0.6477542847     0.9766599602
    7      O      -1.5974725607     1.5902821430    -0.8412961607
    8      O      -0.5337010471     2.4829384147     0.9385477842
    9      C      -2.8141315618     2.2489747847    -0.4455517380
   10      C      -2.3279004362    -3.0362013150     0.1616311296
   11      C       1.6305875309    -1.1656371815     0.1894993013
   12      C       2.9095029276    -0.9093365412    -0.6419981604
   13      C       3.1171250161     0.6196554750    -0.4103374512
   14      C       1.8675860275     0.9575599234     0.4272566141
   15      O       1.7298629313    -0.2150668903     1.2504885757
   16      H       0.3846453210    -0.9983498739    -1.6246941669
   17      H       0.8519455948     1.2776783745    -1.4880357494
   18      H      -3.1569424561     1.8475374597     0.5093216459
   19      H      -3.2302205454    -2.4371387101     0.0292643844
   20      H       1.5249578869    -2.1700935116     0.5942123000
   21      H       3.7418547116    -1.4914190016    -0.2443828099
   22      H       2.7821518159    -1.1751426695    -1.6933932631
   23      H       4.0216505617     0.8138298876     0.1677098270
   24      H       3.1735560324     1.1934042707    -1.3375517929
   25      H       1.9172347820     1.8428043319     1.0538966406
   26      H      -2.6573337446     3.3246825222    -0.3547170144
   27      H      -3.5320005763     2.0315100198    -1.2337179260
   28      H      -2.1562370636    -3.1958673423     1.2271102815
   29      H      -2.4204317827    -3.9865368293    -0.3595694413
 ----------------------------------------------------------------
 Nuclear Repulsion Energy =  1110.9052517779 hartrees
 There are       57 alpha and       57 beta electrons
 Applying Cartesian multipole field
    Component          Value
    ---------          -----
     (2,0,0)        1.00000E-11
     (0,2,0)        2.00000E-11
     (0,0,2)       -3.00000E-11
 Nucleus-field energy     =     0.0000000318 hartrees
 Requested basis set is 6-311++G(d,p)
 There are 160 shells and 428 basis functions
 A cutoff of  1.0D-11 yielded  10526 shell pairs
 There are     76912 function pairs (     82102 Cartesian)
 Smallest overlap matrix eigenvalue = 9.23E-07

 Q-Chem warning in module /fs/scratch/osu6415/qchem-kaunlao-vdw/stvman/mkSTV.C, line 281:

 Overlap eigenvalue is smaller than square root of threshold

 Linear dependence detected in AO basis
 Number of orthogonalized atomic orbitals = 427
 Maximum deviation from orthogonality = 1.004E-10
 Guess MOs from SCF MO coefficient file
 Reading MOs from coefficient file
 Reading MOs from coefficient file
 A restricted hybrid HF-DFT SCF calculation will be
 performed using Pulay DIIS extrapolation
 Exchange:     0.2000 Hartree-Fock + 0.0800 Slater + 0.7200 B88
 Correlation:  0.1900 VWN1RPA + 0.8100 LYP
 Using SG-1 standard quadrature grid
 Dispersion:   Grimme D3
 SCF converges when DIIS error is below 1.0E-08
 Geometry optimization detected.  Setting ReadMinima to 0
 Setting SaveMinima to 0
 using 20 threads for integral computing
 -------------------------------------------------------
 OpenMP Integral computing Module                
 Release: version 1.0, May 2013, Q-Chem Inc. Pittsburgh 
 -------------------------------------------------------
 -------------------------------------------------------
 OpenMP BLAS3 based DFT computing Module                
 Release: version 1.0, May 2013, Q-Chem Inc. Pittsburgh 
 -------------------------------------------------------
 ---------------------------------------
  Cycle       Energy         DIIS Error
 ---------------------------------------
    1    -765.8624325411      6.26E-05
    2    -765.8625297061      5.32E-06
    3    -765.8625294072      8.09E-06
    4    -765.8625304567      2.00E-06
    5    -765.8625305058      9.30E-07
    6    -765.8625305202      2.42E-07
    7    -765.8625305208      9.98E-08
    8    -765.8625305215      2.07E-08
    9    -765.8625305202      1.29E-08
   10    -765.8625305155      3.68E-09 Convergence criterion met
 ---------------------------------------
 SCF time:  CPU 472.47 s  wall 24.84 s
 SCF   energy in the final basis set = -765.86253052
 Total energy in the final basis set = -765.86253052
 
 --------------------------------------------------------------
 
                    Orbital Energies (a.u.)
 --------------------------------------------------------------
 
 Alpha MOs
 -- Occupied --
-19.177 -19.167 -19.131 -19.120 -19.111 -10.309 -10.302 -10.240
-10.232 -10.229 -10.222 -10.207 -10.203 -10.183 -10.180  -1.118
 -1.108  -1.064  -1.031  -1.023  -0.831  -0.785  -0.777  -0.738
 -0.725  -0.654  -0.605  -0.597  -0.577  -0.559  -0.546  -0.520
 -0.504  -0.492  -0.487  -0.485  -0.478  -0.471  -0.459  -0.431
 -0.421  -0.420  -0.412  -0.397  -0.385  -0.374  -0.368  -0.366
 -0.360  -0.358  -0.339  -0.333  -0.320  -0.307  -0.291  -0.281
 -0.273
 -- Virtual --
 -0.020  -0.011  -0.004   0.001   0.007   0.012   0.013   0.022
  0.027   0.030   0.037   0.039   0.046   0.048   0.051   0.061
  0.064   0.072   0.079   0.088   0.089   0.092   0.098   0.101
  0.104   0.109   0.114   0.114   0.117   0.120   0.123   0.125
  0.130   0.133   0.137   0.140   0.145   0.147   0.149   0.152
  0.153   0.158   0.159   0.162   0.163   0.175   0.176   0.179
  0.182   0.184   0.189   0.191   0.195   0.197   0.203   0.207
  0.212   0.221   0.228   0.229   0.233   0.240   0.246   0.250
  0.255   0.268   0.271   0.275   0.279   0.287   0.291   0.293
  0.298   0.303   0.308   0.314   0.316   0.325   0.327   0.332
  0.336   0.346   0.349   0.350   0.355   0.358   0.361   0.367
  0.372   0.376   0.384   0.385   0.388   0.400   0.403   0.408
  0.410   0.415   0.430   0.432   0.450   0.465   0.477   0.481
  0.489   0.497   0.515   0.522   0.527   0.542   0.557   0.558
  0.573   0.584   0.588   0.597   0.610   0.617   0.625   0.627
  0.635   0.647   0.651   0.655   0.665   0.670   0.678   0.681
  0.685   0.697   0.702   0.711   0.712   0.735   0.738   0.745
  0.749   0.757   0.762   0.771   0.776   0.782   0.790   0.803
  0.817   0.830   0.843   0.879   0.918   0.926   0.953   0.961
  0.982   1.000   1.029   1.037   1.044   1.058   1.078   1.090
  1.109   1.128   1.139   1.167   1.185   1.194   1.202   1.209
  1.227   1.234   1.239   1.257   1.263   1.283   1.298   1.310
  1.320   1.331   1.339   1.362   1.374   1.395   1.404   1.415
  1.419   1.434   1.444   1.459   1.466   1.473   1.501   1.514
  1.533   1.537   1.545   1.548   1.559   1.578   1.580   1.581
  1.597   1.615   1.618   1.626   1.642   1.668   1.676   1.680
  1.699   1.705   1.708   1.714   1.717   1.729   1.754   1.762
  1.782   1.794   1.799   1.807   1.819   1.843   1.851   1.867
  1.877   1.901   1.909   1.930   1.935   1.946   1.959   1.961
  1.988   1.997   2.017   2.037   2.039   2.077   2.092   2.109
  2.115   2.136   2.144   2.168   2.173   2.178   2.191   2.219
  2.233   2.260   2.287   2.303   2.360   2.364   2.424   2.437
  2.454   2.461   2.471   2.498   2.501   2.505   2.514   2.520
  2.535   2.542   2.567   2.578   2.589   2.628   2.644   2.658
  2.672   2.688   2.716   2.738   2.752   2.774   2.798   2.822
  2.830   2.839   2.850   2.861   2.874   2.888   2.910   2.927
  2.937   2.943   2.973   2.986   3.012   3.024   3.041   3.055
  3.057   3.070   3.096   3.111   3.120   3.124   3.152   3.176
  3.209   3.228   3.234   3.237   3.267   3.291   3.332   3.355
  3.382   3.402   3.416   3.459   3.590   3.602   3.649   3.675
  3.715   3.772   3.791   3.834   3.844   3.899   3.935   4.009
  4.028   4.055   4.080   4.102   4.112   4.124   4.142   4.174
  4.212   4.249   4.403   4.488   5.027   5.066   5.108   5.154
  5.190   5.258   5.301   5.379   5.413   5.491   5.598   5.629
  5.646   5.873   5.894  23.821  23.839  23.842  23.882  23.895
 23.924  23.934  23.943  23.971  24.046  49.902  49.912  49.958
 50.030  50.044
 --------------------------------------------------------------
 
          Ground-State Mulliken Net Atomic Charges

     Atom                 Charge (a.u.)
  ----------------------------------------
      1 C                     0.038297
      2 C                     0.099495
      3 C                    -0.649648
      4 C                    -0.403279
      5 O                    -0.028542
      6 O                    -0.202477
      7 O                    -0.045109
      8 O                    -0.220215
      9 C                    -0.190715
     10 C                    -0.237282
     11 C                     0.352013
     12 C                    -0.467613
     13 C                    -0.465614
     14 C                    -0.144699
     15 O                    -0.141634
     16 H                     0.284283
     17 H                     0.235101
     18 H                     0.190115
     19 H                     0.172384
     20 H                     0.267303
     21 H                     0.180041
     22 H                     0.123668
     23 H                     0.192294
     24 H                     0.125218
     25 H                     0.286382
     26 H                     0.165745
     27 H                     0.148971
     28 H                     0.184326
     29 H                     0.151189
  ----------------------------------------
  Sum of atomic charges =     0.000000

 -----------------------------------------------------------------
                    Cartesian Multipole Moments
 -----------------------------------------------------------------
    Charge (ESU x 10^10)
                -0.0000
    Dipole Moment (Debye)
         X       0.0011      Y      -2.1340      Z      -3.7202
       Tot       4.2888
    Quadrupole Moments (Debye-Ang)
        XX     -76.7770     XY       2.2614     YY     -83.6293
        XZ      -0.9039     YZ      -5.2598     ZZ     -95.1661
    Octopole Moments (Debye-Ang^2)
       XXX     -37.2712    XXY       1.7752    XYY     -24.4763
       YYY     -32.0666    XXZ      -5.5761    XYZ       5.3568
       YYZ      -2.1063    XZZ      -3.7774    YZZ      -3.6192
       ZZZ      -4.5380
    Hexadecapole Moments (Debye-Ang^3)
      XXXX   -1930.5253   XXXY     -11.3513   XXYY    -510.6639
      XYYY      42.9305   YYYY   -1522.4646   XXXZ      29.9936
      XXYZ      -1.4502   XYYZ      12.1277   YYYZ     -45.9190
      XXZZ    -414.1510   XYZZ       7.2210   YYZZ    -331.0522
      XZZZ      -2.5423   YZZZ       3.9731   ZZZZ    -357.2624
 -----------------------------------------------------------------
 Calculating analytic gradient of the SCF energy
 Gradient of SCF Energy
            1           2           3           4           5           6
    1   0.0000113  -0.0000261   0.0000084   0.0000014   0.0000217  -0.0000269
    2   0.0000600   0.0000110  -0.0000169  -0.0000714  -0.0000155   0.0000067
    3   0.0000027   0.0000043   0.0000254  -0.0000096  -0.0000049  -0.0000367
            7           8           9          10          11          12
    1   0.0000174  -0.0000142   0.0000011  -0.0000128  -0.0000143   0.0000186
    2   0.0000091   0.0000301  -0.0000085   0.0000161  -0.0000319  -0.0000053
    3  -0.0000281   0.0000120  -0.0000065  -0.0000289   0.0000030   0.0000387
           13          14          15          16          17          18
    1  -0.0000118  -0.0000012  -0.0000134   0.0000216   0.0000101  -0.0000115
    2   0.0000309  -0.0000225   0.0000001   0.0000038   0.0000027  -0.0000131
    3  -0.0000077   0.0000540   0.0000234   0.0000054  -0.0000124  -0.0000361
           19          20          21          22          23          24
    1   0.0000121  -0.0000005   0.0000155   0.0000123  -0.0000196   0.0000139
    2  -0.0000134   0.0000088   0.0000201   0.0000097   0.0000019   0.0000170
    3  -0.0000291   0.0000106   0.0000318   0.0000315   0.0000532   0.0000280
           25          26          27          28          29
    1  -0.0000195  -0.0000105  -0.0000002   0.0000052   0.0000120
    2   0.0000239  -0.0000090  -0.0000118  -0.0000196  -0.0000131
    3  -0.0000084  -0.0000341  -0.0000373  -0.0000216  -0.0000230
 Max gradient component =       7.139E-05
 RMS gradient           =       2.212E-05
 Gradient time:  CPU 239.51 s  wall 17.40 s
 Geometry Optimization Parameters
   NAtoms,    NIC,     NZ,  NCons,   NDum,   NFix, NCnnct, MaxDiis
       29     227       0       0       0       0       0       0

 Cartesian Hessian Update
 Hessian Updated using BFGS Update


** GEOMETRY OPTIMIZATION IN DELOCALIZED INTERNAL COORDINATES **
   Searching for a Minimum

   Optimization Cycle:   4

                       Coordinates (Angstroms)
     ATOM                X               Y               Z
      1  C         0.3808735678   -0.6472643819   -0.5937482756
      2  C         0.6202825898    0.8943907894   -0.4902116335
      3  C        -0.8707992399   -1.1697680372    0.0777994460
      4  C        -0.5483105851    1.7326489904   -0.0020348211
      5  O        -1.1965978615   -2.3777440569   -0.4390117659
      6  O        -1.4792359365   -0.6477542847    0.9766599602
      7  O        -1.5974725607    1.5902821430   -0.8412961607
      8  O        -0.5337010471    2.4829384147    0.9385477842
      9  C        -2.8141315618    2.2489747847   -0.4455517380
     10  C        -2.3279004362   -3.0362013150    0.1616311296
     11  C         1.6305875309   -1.1656371815    0.1894993013
     12  C         2.9095029276   -0.9093365412   -0.6419981604
     13  C         3.1171250161    0.6196554750   -0.4103374512
     14  C         1.8675860275    0.9575599234    0.4272566141
     15  O         1.7298629313   -0.2150668903    1.2504885757
     16  H         0.3846453210   -0.9983498739   -1.6246941669
     17  H         0.8519455948    1.2776783745   -1.4880357494
     18  H        -3.1569424561    1.8475374597    0.5093216459
     19  H        -3.2302205454   -2.4371387101    0.0292643844
     20  H         1.5249578869   -2.1700935116    0.5942123000
     21  H         3.7418547116   -1.4914190016   -0.2443828099
     22  H         2.7821518159   -1.1751426695   -1.6933932631
     23  H         4.0216505617    0.8138298876    0.1677098270
     24  H         3.1735560324    1.1934042707   -1.3375517929
     25  H         1.9172347820    1.8428043319    1.0538966406
     26  H        -2.6573337446    3.3246825222   -0.3547170144
     27  H        -3.5320005763    2.0315100198   -1.2337179260
     28  H        -2.1562370636   -3.1958673423    1.2271102815
     29  H        -2.4204317827   -3.9865368293   -0.3595694413
   Point Group: c1    Number of degrees of freedom:    81


   Energy is   -765.862530516

 Hessian Updated using BFGS Update

 79 Hessian modes will be used to form the next step
  Hessian Eigenvalues:
     0.002711    0.004835    0.007086    0.007563    0.009749    0.010476
     0.010966    0.021441    0.021828    0.022010    0.026151    0.031035
     0.035607    0.038830    0.040127    0.043070    0.046223    0.051625
     0.053492    0.055406    0.056566    0.056786    0.060947    0.064062
     0.064656    0.065326    0.073841    0.075512    0.092970    0.095431
     0.101147    0.101549    0.101619    0.105874    0.106142    0.116411
     0.129645    0.159521    0.159986    0.160000    0.160056    0.165332
     0.169860    0.233103    0.243548    0.247388    0.249549    0.249717
     0.249968    0.250000    0.251297    0.258419    0.260413    0.271967
     0.281180    0.305549    0.310379    0.336244    0.343906    0.345936
     0.346022    0.346796    0.346827    0.346915    0.347035    0.347133
     0.347276    0.349254    0.350296    0.350390    0.350636    0.351652
     0.353177    0.395595    0.397201    0.542500    0.548179    1.025449
     1.032359

 Minimum Search - Taking Simple RFO Step
 Searching for Lamda that Minimizes Along All modes
 Value Taken    Lamda =   0.00000000
 Step Taken.  Stepsize is  0.004499

                             Maximum     Tolerance    Cnvgd?
         Gradient           0.000027      0.000001      NO
         Displacement       0.002567      0.000001      NO
         Energy change     -0.000001      0.000000      NO


 New Cartesian Coordinates Obtained by Inverse Iteration

 Displacement from previous Coordinates is:  0.005284
 Adding empirical dispersion correction 
 ----------------------------------------------------------------
 Doing -D3(op) with
 s6 =   1.00000
 s8 =   0.78311
 a1 =   0.30000
 a2 =   4.25000
 n  =  10.00000
 -D3 energy without 3body term =     -0.0304321746 hartrees
 ----------------------------------------------------------------
             Standard Nuclear Orientation (Angstroms)
    I     Atom           X                Y                Z
 ----------------------------------------------------------------
    1      C       0.3808532399    -0.6471803542    -0.5939097949
    2      C       0.6204530251     0.8944990256    -0.4902595556
    3      C      -0.8708158555    -1.1695272587     0.0777068803
    4      C      -0.5481974898     1.7329762211    -0.0024030029
    5      O      -1.1971282923    -2.3771972636    -0.4394803506
    6      O      -1.4781228134    -0.6482438172     0.9777567677
    7      O      -1.5975247126     1.5899974657    -0.8413707761
    8      O      -0.5338681442     2.4829801594     0.9383890098
    9      C      -2.8142941078     2.2485032823    -0.4456474861
   10      C      -2.3280880221    -3.0358119038     0.1616313400
   11      C       1.6305474660    -1.1656053051     0.1893256231
   12      C       2.9094872468    -0.9092865668    -0.6420949730
   13      C       3.1173066958     0.6196174898    -0.4100814524
   14      C       1.8676603914     0.9575465846     0.4273745046
   15      O       1.7297872924    -0.2151715424     1.2504197081
   16      H       0.3844967793    -0.9981939034    -1.6248852910
   17      H       0.8523516591     1.2777812471    -1.4879992398
   18      H      -3.1569249936     1.8472045791     0.5093551083
   19      H      -3.2306062124    -2.4370202505     0.0292929729
   20      H       1.5248842053    -2.1700994825     0.5939571877
   21      H       3.7416654101    -1.4916396783    -0.2445207665
   22      H       2.7821929032    -1.1748647796    -1.6935624205
   23      H       4.0219060252     0.8137010667     0.1678954675
   24      H       3.1737495760     1.1934334130    -1.3372435352
   25      H       1.9172883058     1.8425484831     1.0543594396
   26      H      -2.6577002629     3.3242581691    -0.3549981826
   27      H      -3.5321888131     2.0307368636    -1.2336975354
   28      H      -2.1561824839    -3.1950615498     1.2271293223
   29      H      -2.4204861179    -3.9863036341    -0.3592932494
 ----------------------------------------------------------------
 Nuclear Repulsion Energy =  1110.9083499191 hartrees
 There are       57 alpha and       57 beta electrons
 Applying Cartesian multipole field
    Component          Value
    ---------          -----
     (2,0,0)        1.00000E-11
     (0,2,0)        2.00000E-11
     (0,0,2)       -3.00000E-11
 Nucleus-field energy     =     0.0000000318 hartrees
 Requested basis set is 6-311++G(d,p)
 There are 160 shells and 428 basis functions
 A cutoff of  1.0D-11 yielded  10526 shell pairs
 There are     76912 function pairs (     82102 Cartesian)
 Smallest overlap matrix eigenvalue = 9.23E-07

 Q-Chem warning in module /fs/scratch/osu6415/qchem-kaunlao-vdw/stvman/mkSTV.C, line 281:

 Overlap eigenvalue is smaller than square root of threshold

 Linear dependence detected in AO basis
 Number of orthogonalized atomic orbitals = 427
 Maximum deviation from orthogonality = 8.373E-11
 Guess MOs from SCF MO coefficient file
 Reading MOs from coefficient file
 Reading MOs from coefficient file
 A restricted hybrid HF-DFT SCF calculation will be
 performed using Pulay DIIS extrapolation
 Exchange:     0.2000 Hartree-Fock + 0.0800 Slater + 0.7200 B88
 Correlation:  0.1900 VWN1RPA + 0.8100 LYP
 Using SG-1 standard quadrature grid
 Dispersion:   Grimme D3
 SCF converges when DIIS error is below 1.0E-08
 Geometry optimization detected.  Setting ReadMinima to 0
 Setting SaveMinima to 0
 using 20 threads for integral computing
 -------------------------------------------------------
 OpenMP Integral computing Module                
 Release: version 1.0, May 2013, Q-Chem Inc. Pittsburgh 
 -------------------------------------------------------
 -------------------------------------------------------
 OpenMP BLAS3 based DFT computing Module                
 Release: version 1.0, May 2013, Q-Chem Inc. Pittsburgh 
[...]
     0.00009308      0.00026931      0.00018488
    -0.05773192     -0.35763960     -0.02536737
     0.17334533      0.05503129      0.19266207
     0.09066565     -0.07474871      0.49389966
    -0.02744988     -0.31505710     -0.17479848
vibration 69
     0.00005374      0.00017306      0.00022418
    -0.00042100     -0.00093233      0.00251811
    -0.00006530     -0.00130730     -0.00084474
    -0.00153093     -0.00063718     -0.00168014
     0.00105192      0.00103776     -0.00029319
    -0.00029220      0.00019609      0.00043052
     0.00215757     -0.00066310      0.00003250
    -0.00000149      0.00050433      0.00062689
     0.02530005     -0.01869914     -0.01687977
     0.02077454      0.00525599     -0.01414727
    -0.00008408      0.00006140     -0.00005849
     0.00021832     -0.00025972     -0.00014742
     0.00074394      0.00070380     -0.00044176
    -0.00005194      0.00005209      0.00000554
     0.00003669      0.00000367      0.00002459
    -0.00026508     -0.00069529     -0.00159992
     0.00687012      0.01096913     -0.02906791
    -0.15556495     -0.19476462      0.44542233
    -0.30397096      0.20790653     -0.05074717
    -0.00003072     -0.00049076      0.00014776
    -0.00281873      0.00202480     -0.00154764
     0.00045003      0.00078233      0.00334141
    -0.00796684     -0.00156276     -0.00559728
    -0.00033529     -0.00654311      0.01092103
     0.00002567     -0.00087110     -0.00059241
     0.08145985      0.50529157      0.03585095
    -0.24448597     -0.07757137     -0.27175205
     0.06421374     -0.05299294      0.35040244
    -0.01949737     -0.22298400     -0.12372737
vibration 70
    -0.00031706      0.00236083      0.00720725
     0.00855891      0.01345537     -0.03545075
    -0.00003549     -0.00001093      0.00023032
    -0.00017006     -0.00008676     -0.00118241
     0.00000324      0.00001142     -0.00001433
     0.00002171     -0.00001495     -0.00003441
     0.00008902     -0.00003211      0.00006981
     0.00008523      0.00021265      0.00024703
     0.00122467     -0.00085830     -0.00068158
    -0.00038190     -0.00009160      0.00026842
     0.00002547      0.00218548     -0.00072569
     0.01865647     -0.02445279     -0.02650924
    -0.02850583     -0.02750539      0.01975958
     0.00081804      0.00122192      0.00053415
    -0.00002230      0.00001242      0.00014563
     0.00246734     -0.02839429     -0.08582782
    -0.10490069     -0.15774065      0.42818428
    -0.00707459     -0.00828967      0.01940973
     0.00528999     -0.00358017      0.00086370
    -0.00142490     -0.02635054      0.00903677
    -0.27451586      0.18515213     -0.14256017
     0.06258429      0.10446178      0.45279704
     0.31392103      0.05920304      0.21372324
     0.01335016      0.26458358     -0.44416274
    -0.00285540     -0.01312651     -0.00775866
     0.00344587      0.02204840      0.00150617
    -0.01079389     -0.00343129     -0.01212526
    -0.00112830      0.00101287     -0.00650261
     0.00033708      0.00368146      0.00204193
vibration 71
     0.00017931      0.00127411      0.00496562
     0.01428878      0.02301690     -0.06114780
    -0.00006953     -0.00016562      0.00012588
    -0.00022156     -0.00006679     -0.00182374
     0.00000446      0.00000372     -0.00002498
     0.00003537     -0.00000152     -0.00002710
     0.00009155     -0.00005968      0.00010093
     0.00014935      0.00032434      0.00038492
     0.00134788     -0.00101384     -0.00066767
    -0.00013889     -0.00008210      0.00012457
     0.00044866     -0.00207604      0.00057452
    -0.01805410      0.02435691      0.02549131
     0.00705338      0.00229073      0.00155501
     0.00070859     -0.00035177     -0.00059604
    -0.00005612     -0.00024812      0.00010749
    -0.00096554     -0.01873662     -0.06025001
    -0.18006325     -0.27104602      0.73789294
    -0.00766235     -0.00860358      0.02044287
     0.00198659     -0.00134981      0.00030998
     0.00066447      0.02336993     -0.00735967
     0.26602078     -0.17999971      0.13867333
    -0.06118201     -0.10114076     -0.43671345
    -0.07880139     -0.01660233     -0.04980165
    -0.00152628     -0.01690725      0.03218187
    -0.00001918      0.00613798      0.00307853
     0.00370591      0.02415378      0.00163714
    -0.01137272     -0.00366204     -0.01287124
    -0.00048510      0.00045332     -0.00299845
     0.00014188      0.00184470      0.00104055
vibration 72
    -0.00031596      0.00244545      0.00726163
     0.00496631      0.00828607     -0.02280422
    -0.00008396     -0.00001496      0.00024722
    -0.00012907      0.00000401     -0.00061429
     0.00003769      0.00003977     -0.00001751
     0.00006065     -0.00002346     -0.00004878
     0.00009529     -0.00003687      0.00005621
     0.00011132      0.00008817      0.00015815
     0.00006396     -0.00009682      0.00012642
    -0.00041173     -0.00011749      0.00036535
    -0.00047285      0.00347498     -0.00158502
     0.01565385     -0.02403522     -0.02719551
     0.03855547      0.03193023     -0.01514342
    -0.00085933     -0.00215781     -0.00185707
    -0.00005210     -0.00011214      0.00033472
     0.00258942     -0.02833060     -0.08522375
    -0.06627031     -0.10051454      0.27392386
    -0.00010157      0.00016706     -0.00019762
     0.00556978     -0.00371527      0.00088596
    -0.00283247     -0.04805041      0.01774122
    -0.24285404      0.16489748     -0.12824372
     0.06234694      0.10493203      0.44566344
    -0.43178762     -0.08299886     -0.28875878
    -0.01248842     -0.28137495      0.46984329
     0.00481499      0.03504536      0.02172632
     0.00019140      0.00121345      0.00004480
    -0.00054438     -0.00023378     -0.00076414
    -0.00129153      0.00118714     -0.00765768
     0.00035546      0.00369953      0.00203591
vibration 73
    -0.00015080      0.00327473      0.01025503
    -0.00136361     -0.00227738      0.00538554
     0.00018206      0.00026445      0.00020956
    -0.00001538      0.00006819      0.00012111
    -0.00002227     -0.00001939     -0.00002337
    -0.00000715     -0.00004155     -0.00003127
     0.00001150      0.00000116     -0.00001742
    -0.00000208     -0.00004695     -0.00004749
    -0.00001313      0.00014044     -0.00005558
    -0.00003572      0.00000247     -0.00007345
    -0.00132709     -0.00740801      0.00256000
    -0.04296785      0.01864755     -0.05256926
     0.03132204     -0.01191747      0.05201957
     0.00032291     -0.00211963     -0.00062904
     0.00000029      0.00014595     -0.00010063
     0.00417316     -0.04034222     -0.12003829
     0.01557264      0.02475223     -0.06784899
    -0.00002195     -0.00016829      0.00028809
     0.00028008     -0.00020841      0.00007099
     0.00889703      0.08707543     -0.03424353
     0.46545674     -0.32033447      0.22083823
     0.04432214      0.10260476      0.40543143
    -0.39588458     -0.08319865     -0.24912743
     0.02343904      0.22683848     -0.37077320
     0.00116229      0.01948749      0.01313563
    -0.00021239     -0.00157458     -0.00014423
     0.00027235      0.00009656      0.00028081
     0.00013154     -0.00000434      0.00046410
    -0.00002645      0.00012621      0.00008471
vibration 74
     0.00134712     -0.02167301     -0.06463938
     0.00106024      0.00240483     -0.00453750
    -0.00059049     -0.00135303     -0.00117027
    -0.00031771      0.00039289     -0.00004745
     0.00004021      0.00019958      0.00016740
    -0.00026061      0.00034778      0.00035480
     0.00010587     -0.00002970      0.00004409
     0.00005168     -0.00005923     -0.00003839
     0.00001393      0.00002316      0.00017423
     0.00052859      0.00016448      0.00020033
     0.00160598      0.00824935     -0.00361043
     0.01699441     -0.00812846      0.01843313
     0.02544155     -0.00801984      0.03931728
     0.00050940     -0.00252436     -0.00105163
    -0.00005656      0.00028543      0.00017333
    -0.01415791      0.25447780      0.76460149
    -0.01624590     -0.02411662      0.05806450
     0.00036845      0.00058536     -0.00121287
    -0.00522637      0.00342149     -0.00083463
    -0.01122472     -0.09898717      0.03876714
    -0.18900267      0.13225336     -0.09010131
    -0.01431284     -0.03503369     -0.12798004
    -0.32111324     -0.06839026     -0.20293159
     0.01710113      0.16422917     -0.26557508
     0.00172518      0.02721421      0.01847240
    -0.00007458     -0.00043906      0.00001318
    -0.00047454     -0.00026473     -0.00066595
    -0.00014401     -0.00062858      0.00187847
    -0.00009533     -0.00339900     -0.00202295
vibration 75
     0.00107433     -0.01503191     -0.04452004
     0.00195647      0.00359054     -0.00788047
    -0.00031005     -0.00100063     -0.00072768
    -0.00009091      0.00005535     -0.00018116
    -0.00001171      0.00015840      0.00011588
    -0.00023587      0.00024481      0.00028915
     0.00004098     -0.00000226      0.00004656
     0.00001416      0.00007396      0.00009021
    -0.00003089     -0.00044992      0.00032551
     0.00109790     -0.00036236      0.00080965
    -0.00072424     -0.00499654      0.00057758
    -0.03174867      0.01156739     -0.04527037
    -0.02789054      0.00972973     -0.04462324
    -0.00004061      0.00178541     -0.00017562
     0.00016402      0.00003230      0.00074961
    -0.00702175      0.17565273      0.52879345
    -0.02305561     -0.03900593      0.09932429
     0.00090423      0.00133472     -0.00306164
    -0.01100344      0.00742210     -0.00156975
     0.00395356      0.04937683     -0.01980814
     0.33685472     -0.23462072      0.16034645
     0.04370990      0.09730274      0.38129105
     0.35366546      0.07642124      0.22424550
    -0.01973450     -0.19241234      0.31038462
    -0.00110537     -0.00967746     -0.00585758
     0.00064429      0.00438856      0.00042329
    -0.00087849     -0.00039984     -0.00098606
    -0.00132233      0.00048267     -0.00594345
     0.00004012     -0.00250419     -0.00129480
vibration 76
    -0.00011683     -0.00020534     -0.00104058
     0.00006792      0.00010517     -0.00021682
     0.00011236     -0.00012871      0.00011856
    -0.00007217     -0.00001057     -0.00004029
     0.00026028     -0.00018613      0.00028851
     0.00005961     -0.00006989      0.00010108
     0.00002990     -0.00000215      0.00002080
     0.00001896      0.00000465      0.00002178
     0.00104387      0.00280496     -0.00132678
    -0.05694040      0.04311598     -0.06254230
    -0.00013848     -0.00096810      0.00040119
    -0.00023319      0.00003838     -0.00049419
    -0.00026737      0.00015360     -0.00052360
    -0.00000881     -0.00001709     -0.00007607
     0.00000690     -0.00002395      0.00002312
     0.00004696      0.00349261      0.01034718
    -0.00062784     -0.00102594      0.00261048
    -0.00669971     -0.00823732      0.02018177
     0.57231400     -0.39862187      0.07956142
     0.00133501      0.01129891     -0.00460499
     0.00229841     -0.00165508      0.00114999
     0.00051474      0.00117233      0.00469026
     0.00355985      0.00075392      0.00222695
    -0.00027016     -0.00253898      0.00409883
     0.00003293      0.00071422      0.00054861
    -0.00402206     -0.02493031     -0.00228858
    -0.00161215     -0.00014580     -0.00225541
     0.11480847     -0.08796624      0.68861559
    -0.01427548     -0.02238136     -0.02934617
vibration 77
     0.00003672      0.00007426      0.00025599
    -0.00009569     -0.00020584      0.00023006
    -0.00012661      0.00010785      0.00013387
     0.00002124      0.00000913     -0.00026924
     0.00001874     -0.00003063     -0.00000970
     0.00009728     -0.00004110     -0.00005576
     0.00015987      0.00027047     -0.00011929
    -0.00006582      0.00018887     -0.00000504
    -0.02768194     -0.07921215      0.04476453
    -0.00194625      0.00131798     -0.00229915
    -0.00000845      0.00010324     -0.00006332
     0.00008381     -0.00002022      0.00015653
     0.00012846     -0.00010066      0.00028674
    -0.00000266      0.00005305      0.00006244
     0.00000772      0.00001409     -0.00000655
     0.00008717     -0.00103538     -0.00327046
     0.00014887      0.00077238     -0.00123370
     0.20556091      0.25185976     -0.61780473
     0.01909531     -0.01316213      0.00261932
    -0.00010687     -0.00120064      0.00051311
    -0.00076871      0.00059689     -0.00040332
    -0.00018778     -0.00037403     -0.00145883
    -0.00169800     -0.00035230     -0.00106483
     0.00015901      0.00150741     -0.00246734
    -0.00000222     -0.00087916     -0.00056306
     0.11437613      0.69591360      0.06524906
     0.00833428     -0.01062933      0.02336620
     0.00414433     -0.00318939      0.02455998
    -0.00026133      0.00101753      0.00000596
vibration 78
    -0.00015216     -0.00141666     -0.00520678
    -0.00017914      0.00123737     -0.00138071
    -0.00020309     -0.00084951      0.00036952
    -0.00013280      0.00007925     -0.00006778
     0.00001519      0.00035796     -0.00003032
     0.00009466      0.00010453     -0.00013921
     0.00008753     -0.00001495      0.00002024
     0.00007426     -0.00002108      0.00001227
    -0.00000595     -0.00001862      0.00031573
     0.00081939     -0.00035813      0.00072903
    -0.00832449     -0.07836120      0.03206123
     0.01009560     -0.00534625      0.00616944
     0.00261567      0.00107442      0.00125132
    -0.00010196     -0.00277112     -0.00295055
    -0.00006817     -0.00032943     -0.00027932
     0.00050792      0.01850506      0.05935970
    -0.00353201     -0.00583931      0.01482527
     0.00090721      0.00102039     -0.00249948
    -0.00821863      0.00552546     -0.00110889
     0.09412488      0.90413851     -0.36921804
    -0.11156796      0.07443696     -0.05029787
    -0.00398388     -0.00848998     -0.02518231
    -0.02557880     -0.00535098     -0.01661779
     0.00026514      0.00082051     -0.00015496
     0.00284599      0.04753569      0.03352092
     0.00001000     -0.00035666     -0.00000240
    -0.00099976     -0.00038038     -0.00114707
    -0.00090465      0.00085632     -0.00684584
     0.00013570     -0.00128211     -0.00059204
vibration 79
    -0.00001547     -0.00005366     -0.00016070
     0.00003101      0.00005704      0.00000552
    -0.00002529     -0.00010520     -0.00007156
     0.00061457     -0.00078632     -0.00071788
     0.00002587      0.00004629      0.00001937
    -0.00000918      0.00004698      0.00003156
     0.00019143      0.00014970      0.00027727
    -0.00015165      0.00034815      0.00037703
    -0.04385693     -0.02898288     -0.07877368
    -0.00022068      0.00044101      0.00013094
    -0.00002298     -0.00025229      0.00008514
     0.00003678     -0.00004670     -0.00003471
     0.00008369      0.00002334      0.00002421
     0.00005902      0.00077146      0.00055307
    -0.00000485      0.00001315      0.00000258
    -0.00007884      0.00068027      0.00189829
    -0.00044913     -0.00012373      0.00082515
    -0.10908302     -0.13654219      0.28153198
     0.00277678     -0.00179007      0.00039060
     0.00024862      0.00272552     -0.00113847
    -0.00047957      0.00032744     -0.00022846
     0.00006785      0.00013528      0.00060755
    -0.00089763     -0.00016143     -0.00052797
    -0.00001218     -0.00009120      0.00018600
    -0.00043398     -0.00896531     -0.00634031
     0.04333875      0.29816051      0.00590283
     0.58024757      0.18398905      0.64784956
     0.00000986      0.00007494     -0.00003794
    -0.00031742     -0.00349653     -0.00199771
vibration 80
    -0.00003215      0.00002319     -0.00006463
     0.00001712      0.00001111     -0.00002991
     0.00096430      0.00004497     -0.00078749
     0.00002642      0.00002463     -0.00001415
    -0.00007176      0.00028548      0.00023721
    -0.00035315      0.00009562      0.00039124
    -0.00000625     -0.00001458      0.00000629
    -0.00000671     -0.00000910     -0.00000037
    -0.00015139      0.00005982     -0.00047844
     0.00821195     -0.07375347     -0.05864355
    -0.00000028     -0.00004803      0.00002928
     0.00002496     -0.00003325     -0.00003641
     0.00000804      0.00001549     -0.00000480
    -0.00000387     -0.00020503     -0.00015253
    -0.00001225      0.00000227      0.00000521
    -0.00028907      0.00029662      0.00144009
    -0.00014988     -0.00015156      0.00039035
    -0.00096278     -0.00109939      0.00267492
    -0.23399039      0.15024770     -0.05203360
     0.00006773      0.00035223     -0.00022424
    -0.00050782      0.00028421     -0.00021798
     0.00008958      0.00011277      0.00061186
    -0.00014830     -0.00001992     -0.00009952
    -0.00000159     -0.00013062      0.00020129
     0.00016303      0.00247609      0.00175676
    -0.00011089     -0.00040856     -0.00010501
     0.00274876      0.00091481      0.00301995
     0.06339462     -0.06061838      0.31400936
     0.06890476      0.78147622      0.43500600
vibration 81
     0.00053350      0.00088345      0.00160432
     0.00014235     -0.00013642      0.00111601
     0.00010661      0.00014114     -0.00005828
    -0.00000078     -0.00086298     -0.00112504
    -0.00002930     -0.00004642      0.00000712
    -0.00003430     -0.00000074      0.00004241
    -0.00012101      0.00012150      0.00009530
     0.00034970      0.00026886      0.00047675
    -0.00046475     -0.00044840     -0.00087763
     0.00001083      0.00022217      0.00016616
     0.00058878      0.00551911     -0.00141836
    -0.00117435      0.00134949      0.00062489
    -0.00475067     -0.00049253     -0.00152274
    -0.00474245     -0.07041978     -0.04978661
    -0.00000396     -0.00027636      0.00032468
    -0.00009555     -0.00553430     -0.01666395
     0.00122764      0.00295078     -0.01038409
    -0.00135588     -0.00158124      0.00324102
     0.00039420     -0.00025377      0.00012556
    -0.00499987     -0.04762019      0.02018347
     0.00965275     -0.00591287      0.00448594
    -0.00055517     -0.00129237     -0.00763377
     0.05118606      0.00919344      0.02883091
     0.00173442      0.00174581     -0.00649828
     0.05035068      0.80762588      0.57499842
     0.00060990      0.00486156      0.00017164
     0.00583360      0.00202018      0.00682886
    -0.00019385      0.00015031     -0.00080849
    -0.00024389     -0.00246639     -0.00134821
[INT]
    0.514384
    0.724331
    3.736477
    0.550133
    1.044181
    0.323968
    0.886796
    2.159791
    0.295809
    2.355933
    3.314001
    8.188422
    5.619709
    5.071213
   11.661752
    9.909307
    9.749766
   22.074808
   13.949436
    1.332842
    4.139542
    7.607065
    7.108548
    5.886240
   19.954526
    3.358438
    2.044680
    3.414508
   11.513750
    4.186928
   26.044887
   33.658301
   16.848536
    3.806858
   30.379263
   18.406816
   35.001635
   21.129189
   13.889872
   55.817751
   15.268060
   28.046861
  212.707614
    4.014051
   97.566471
   59.289420
  262.015054
   19.418994
   24.331812
   25.734038
    4.138810
   17.238459
    1.854789
   36.970009
   24.484482
   79.399606
   37.169836
   19.340075
   10.325868
    8.149804
   10.908953
    2.326998
   12.776017
    6.096370
    6.022809
   65.637484
  396.212548
   22.435394
   48.330513
   14.908751
   15.479968
   36.020327
    0.891121
    8.248484
   36.005766
   18.636826
   15.441383
   21.859555
   14.088498
   14.335941
    5.642568

======= END OF MOLDEN-FORMATTED INPUT FILE =======


        *************************************************************
        *                                                           *
        *  Thank you very much for using Q-Chem.  Have a nice day.  *
        *                                                           *
        *************************************************************


