r0239.ten.osc.edu 10.25.157
Q-Chem Developer Version! Running on 10.25.157.*
                  Welcome to Q-Chem
     A Quantum Leap Into The Future Of Chemistry


 Q-Chem 5.0, Q-Chem, Inc., Pleasanton, CA (2017)

 Yihan Shao,  Zhengting Gan,  E. Epifanovsky,  A. T. B. Gilbert,  M. Wormit,  
 J. Kussmann,  A. W. Lange,  A. Behn,  Jia Deng,  Xintian Feng,  D. Ghosh,  
 M. Goldey,  P. R. Horn,  L. D. Jacobson,  I. Kaliman,  T. Kus,  A. Landau,  
 Jie Liu,  E. I. Proynov,  R. M. Richard,  R. P. Steele,  E. J. Sundstrom,  
 H. L. Woodcock III,  P. M. Zimmerman,  D. Zuev,  B. Albrecht,  E. Alguire,  
 S. A. Baeppler,  Z. Benda,  Y. A. Bernard,  E. J. Berquist,  K. B. Bravaya,  
 D. Casanova,  Chun-Min Chang,  Yunqing Chen,  A. Chien,  K. D. Closser,  
 M. P. Coons,  S. Dasgupta,  M. Diedenhofen,  Hainam Do,  R. G. Edgar,  
 Po-Tung Fang,  S. Fatehi,  Qingguo Feng,  Qinghui Ge,  A. Ghysels,  
 J. Gomes,  J. Gonthier,  A. Gunina,  M. W. D. Hanson-Heine,  
 P. H. P. Harbach,  A. W. Hauser,  J. E. Herr,  E. G. Hohenstein,  
 Z. C. Holden,  Kerwin Hui,  T.-C. Jagau,  Hyunjun Ji,  B. Kaduk,  
 K. Khistyaev,  Jaehoon Kim,  P. Klunzinger,  K. Koh,  D. Kosenkov,  
 T. Kowalczyk,  C. M. Krauter,  A. Kunitsa,  Ka Un Lao,  A. Laurent,  
 K. V. Lawler,  Joonho Lee,  D. Lefrancois,  S. Lehtola,  D. S. Levine,  
 Yi-Pei Li,  You-Sheng Lin,  Fenglai Liu,  E. Livshits,  A. Luenser,  
 P. Manohar,  E. Mansoor,  S. F. Manzer,  Shan-Ping Mao,  Yuezhi Mao,  
 N. Mardirossian,  A. V. Marenich,  L. A. Martinez-Martinez,  S. A. Maurer,  
 N. J. Mayhall,  S. C. McKenzie,  J.-M. Mewes,  A. F. Morrison,  K. Nanda,  
 T. S. Nguyen-Beck,  R. Olivares-Amaya,  J. A. Parkhill,  T. M. Perrine,  
 F. Plasser,  S. Prager,  A. Prociuk,  D. R. Rehn,  F. Rob,  M. Schneider,  
 N. Sergueev,  S. M. Sharada,  S. Sharma,  D. W. Small,  T. Stauch,  
 T. Stein,  Yu-Chuan Su,  A. J. W. Thom,  T. Tsuchimochi,  L. Vogt,  
 O. Vydrov,  M. A. Watson,  J. Wenzel,  M. de Wergifosse,  T. A. Wesolowski,  
 A. White,  J. Witte,  A. Yamada,  Jun Yang,  K. Yao,  S. Yeganeh,  
 S. R. Yost,  Zhi-Qiang You,  A. Zech,  Igor Ying Zhang,  Xing Zhang,  
 Yan Zhao,  Ying Zhu,  B. R. Brooks,  G. K. L. Chan,  C. J. Cramer,  
 M. S. Gordon,  W. J. Hehre,  A. Klamt,  M. W. Schmidt,  C. D. Sherrill,  
 D. G. Truhlar,  A. Aspuru-Guzik,  R. Baer,  A. T. Bell,  N. A. Besley,  
 Jeng-Da Chai,  A. Dreuw,  B. D. Dunietz,  T. R. Furlani,  Chao-Ping Hsu,  
 Yousung Jung,  Jing Kong,  D. S. Lambrecht,  WanZhen Liang,  C. Ochsenfeld,  
 V. A. Rassolov,  L. V. Slipchenko,  J. E. Subotnik,  T. Van Voorhis,  
 J. M. Herbert,  A. I. Krylov,  P. M. W. Gill,  M. Head-Gordon

 Contributors to earlier versions of Q-Chem not listed above: 
 R. D. Adamson,  B. Austin,  J. Baker,  G. J. O. Beran,  K. Brandhorst,  
 S. T. Brown,  E. F. C. Byrd,  A. K. Chakraborty,  C.-L. Cheng,  
 Siu Hung Chien,  D. M. Chipman,  D. L. Crittenden,  H. Dachsel,  
 R. A. DiStasio Jr.,  R. J. Doerksen,  A. D. Dutoi,  L. Fusti-Molnar,  
 W. A. Goddard III,  A. Golubeva-Zadorozhnaya,  S. R. Gwaltney,  G. Hawkins,  
 A. Heyden,  S. Hirata,  G. Kedziora,  F. J. Keil,  C. Kelley,  Jihan Kim,  
 R. A. King,  R. Z. Khaliullin,  P. P. Korambath,  W. Kurlancheek,  
 A. M. Lee,  M. S. Lee,  S. V. Levchenko,  Ching Yeh Lin,  D. Liotard,  
 R. C. Lochan,  I. Lotan,  P. E. Maslen,  N. Nair,  D. P. O'Neill,  
 D. Neuhauser,  E. Neuscamman,  C. M. Oana,  R. Olson,  B. Peters,  
 R. Peverati,  P. A. Pieniazek,  Y. M. Rhee,  J. Ritchie,  M. A. Rohrdanz,  
 E. Rosta,  N. J. Russ,  H. F. Schaefer III,  N. E. Schultz,  N. Shenvi,  
 A. C. Simmonett,  A. Sodt,  D. Stuck,  K. S. Thanthiriwatte,  V. Vanovschi,  
 Tao Wang,  A. Warshel,  C. F. Williams,  Q. Wu,  X. Xu,  W. Zhang

 Please cite Q-Chem as follows:
 Y. Shao et al., Mol. Phys. 113, 184-215 (2015)
 DOI: 10.1080/00268976.2014.952696

 Q-Chem 5.0.1 for Intel X86 EM64T Linux

 Parts of Q-Chem use Armadillo 5.200.1 (Boston Tea Smuggler).
 http://arma.sourceforge.net/

 Q-Chem begins on Tue Oct 17 15:01:55 2017  

Host: r0239.ten.osc.edu
0

     Scratch files written to /tmp/pbstmp.1311792/2//
Processing $rem in /users/PAS0291/osu6415/.qchemrc.
molden_format             true

Checking the input file for inconsistencies... 	...done.

--------------------------------------------------------------
User input:
--------------------------------------------------------------
$molecule
0 1
  C      1.04900880     -2.31421276      0.69997366
  C     -0.19737092     -1.82366550      1.51746906
  C     -0.18939422     -0.34388384      1.88082709
  C      2.04283641     -1.26288398      0.23584763
  O      0.55221292     -0.17039683      2.99948125
  O     -0.77511689      0.54863083      1.32640594
  O      2.99263495     -1.85001035     -0.52800284
  O      2.04453962     -0.08703264      0.49493139
  C      4.01226639     -0.97669496     -1.05061199
  C      0.78737148      1.19660399      3.38028449
  C      0.35119395     -3.02027272     -0.50322182
  C     -0.24989800     -4.35813595     -0.03193773
  C     -1.47808175     -3.85428973      0.77485198
  C     -1.37451554     -2.31052496      0.60142458
  O     -0.79642295     -2.20074996     -0.71929539
  H      1.63277794     -3.03493579      1.27680883
  H     -0.21862724     -2.35408962      2.47054618
  H      4.55408959     -0.49250421     -0.23685725
  H     -0.15524478      1.70787312      3.58101836
  H     -0.55745478     -4.95395947     -0.89260986
  H      0.45146284     -4.95234401      0.55700438
  H     -2.41200025     -4.20735725      0.33488439
  H     -1.46508768     -4.15818404      1.82354007
  H      4.67597630     -1.61898512     -1.62508232
  H      3.56660684     -0.21343911     -1.69007605
  H      1.32054456      1.71249004      2.58052889
  H      1.39610614      1.14726366      4.28080534
  H      0.95523525     -3.06432824     -1.40497707
  C     -2.70002918     -1.58504448      0.67417415
  H     -3.41618330     -2.07176616      0.00820977
  H     -3.09698007     -1.62730212      1.69279459
  H     -2.59007643     -0.54176787      0.38992029
$end

$rem
sym_ignore      true
jobtype         ts
method          b3lyp
basis           6-311++G(d,p)
dft_d           d3_op
mem_total       62000
MEM_STATIC      4000
ao2mo_disk      350000
max_scf_cycles  200
geom_opt_max_cycles 1000
geom_opt_tol_displacement 1
GEOM_OPT_TOL_GRADIENT       1
GEOM_OPT_TOL_ENERGY         1
geom_opt_dmax    50
$end

--------------------------------------------------------------
 Adding empirical dispersion correction 
 ----------------------------------------------------------------
 Doing -D3(op) with
 s6 =   1.00000
 s8 =   0.78311
 a1 =   0.30000
 a2 =   4.25000
 n  =  10.00000
 -D3 energy without 3body term =     -0.0352318243 hartrees
 ----------------------------------------------------------------
             Standard Nuclear Orientation (Angstroms)
    I     Atom           X                Y                Z
 ----------------------------------------------------------------
    1      C       1.0490088000    -2.3142127600     0.6999736600
    2      C      -0.1973709200    -1.8236655000     1.5174690600
    3      C      -0.1893942200    -0.3438838400     1.8808270900
    4      C       2.0428364100    -1.2628839800     0.2358476300
    5      O       0.5522129200    -0.1703968300     2.9994812500
    6      O      -0.7751168900     0.5486308300     1.3264059400
    7      O       2.9926349500    -1.8500103500    -0.5280028400
    8      O       2.0445396200    -0.0870326400     0.4949313900
    9      C       4.0122663900    -0.9766949600    -1.0506119900
   10      C       0.7873714800     1.1966039900     3.3802844900
   11      C       0.3511939500    -3.0202727200    -0.5032218200
   12      C      -0.2498980000    -4.3581359500    -0.0319377300
   13      C      -1.4780817500    -3.8542897300     0.7748519800
   14      C      -1.3745155400    -2.3105249600     0.6014245800
   15      O      -0.7964229500    -2.2007499600    -0.7192953900
   16      H       1.6327779400    -3.0349357900     1.2768088300
   17      H      -0.2186272400    -2.3540896200     2.4705461800
   18      H       4.5540895900    -0.4925042100    -0.2368572500
   19      H      -0.1552447800     1.7078731200     3.5810183600
   20      H      -0.5574547800    -4.9539594700    -0.8926098600
   21      H       0.4514628400    -4.9523440100     0.5570043800
   22      H      -2.4120002500    -4.2073572500     0.3348843900
   23      H      -1.4650876800    -4.1581840400     1.8235400700
   24      H       4.6759763000    -1.6189851200    -1.6250823200
   25      H       3.5666068400    -0.2134391100    -1.6900760500
   26      H       1.3205445600     1.7124900400     2.5805288900
   27      H       1.3961061400     1.1472636600     4.2808053400
   28      H       0.9552352500    -3.0643282400    -1.4049770700
   29      C      -2.7000291800    -1.5850444800     0.6741741500
   30      H      -3.4161833000    -2.0717661600     0.0082097700
   31      H      -3.0969800700    -1.6273021200     1.6927945900
   32      H      -2.5900764300    -0.5417678700     0.3899202900
 ----------------------------------------------------------------
 Nuclear Repulsion Energy =  1243.5769470015 hartrees
 There are       61 alpha and       61 beta electrons
 Requested basis set is 6-311++G(d,p)
 There are 176 shells and 464 basis functions

 Total QAlloc Memory Limit  62000 MB
 Mega-Array Size      3911 MB
 MEM_STATIC part      4000 MB
 A cutoff of  1.0D-11 yielded  12613 shell pairs
 There are     89334 function pairs (     95249 Cartesian)
 
 -------------------------------------------------------
 OpenMP Integral Computing Module                       
 Release: version 1.0, May 2013, Q-Chem Inc. Pittsburgh 
 -------------------------------------------------------
 Integral Job Info:
 Integral job number is                      11
 Integral operator is                         1
 short-range coefficients                     0
 long-range coefficients              100000000
 Omega coefficients                           0
 if combine SR and LR in K                    0
 Integral screening is                        0
 Integral computing path is                   2
 max size of driver memory is            800000
 size of driver memory is                593474
 size of scratch memory is              2361544
 max col of scratch BK array               1296
 max len of scratch array in speh3          155
 max len of scratch index in speh4           18
 max int batch size is                      520
 min int batch size is                       52
 fixed nKL is                                52
 max L of basis functions is                  2
 order of int derivative is                   0
 number of shells is                        176
 number of basis is                         480
 number of cartesian basis is               480
 number of contracted shell pairs         12613
 number of primitive shell pairs          28109
 maxK2 (contraction) of shell pair           36
 max number of K2 of shell pair               1
 max number of CS2 of shell pair           2376
 max number of PS2 of shell pair           4050
 mem total for path MDJ                  158696
 -------------------------------------------------------
 Smallest overlap matrix eigenvalue = 6.69E-07

 Q-Chem warning in module /fs/scratch/osu6415/qchem-kaunlao-vdw/stvman/mkSTV.C, line 281:

 Overlap eigenvalue is smaller than square root of threshold

 Linear dependence detected in AO basis
 Number of orthogonalized atomic orbitals = 463
 Maximum deviation from orthogonality = 5.695E-11

 Scale SEOQF with 1.000000e-01/1.000000e-01/1.000000e-01

 Standard Electronic Orientation quadrupole field applied
 Nucleus-field energy     =     0.0000000262 hartrees
 Guess from superposition of atomic densities
 Warning:  Energy on first SCF cycle will be non-variational
 A restricted hybrid HF-DFT SCF calculation will be
 performed using Pulay DIIS extrapolation
 Exchange:     0.2000 Hartree-Fock + 0.0800 Slater + 0.7200 B88
 Correlation:  0.1900 VWN1RPA + 0.8100 LYP
 Using SG-1 standard quadrature grid
 Dispersion:   Grimme D3
 SCF converges when DIIS error is below 1.0E-08
 using 20 threads for integral computing
 -------------------------------------------------------
 OpenMP Integral computing Module                
 Release: version 1.0, May 2013, Q-Chem Inc. Pittsburgh 
 -------------------------------------------------------
 -------------------------------------------------------
 OpenMP BLAS3 based DFT computing Module                
 Release: version 1.0, May 2013, Q-Chem Inc. Pittsburgh 
 -------------------------------------------------------
 ---------------------------------------
  Cycle       Energy         DIIS Error
 ---------------------------------------
    1    -808.4289110091      2.94E-02
    2    -804.8668406164      3.83E-03
    3    -804.3542472681      6.40E-03
    4    -805.1467447135      1.47E-03
    5    -805.1905873834      3.82E-04
    6    -805.1929064751      1.53E-04
    7    -805.1933526408      3.62E-05
    8    -805.1933779084      1.02E-05
    9    -805.1933802581      2.21E-06
   10    -805.1933803515      9.64E-07
   11    -805.1933803678      3.72E-07
   12    -805.1933803701      1.42E-07
   13    -805.1933803704      4.47E-08
   14    -805.1933803700      1.53E-08
   15    -805.1933803729      3.80E-09 Convergence criterion met
 ---------------------------------------
 SCF time:  CPU 914.08 s  wall 47.87 s
 SCF   energy in the final basis set = -805.19338037
 Total energy in the final basis set = -805.19338037
 
 --------------------------------------------------------------
 
                    Orbital Energies (a.u.)
 --------------------------------------------------------------
 
 Alpha MOs
 -- Occupied --
-19.178 -19.161 -19.128 -19.123 -19.105 -10.312 -10.298 -10.238
-10.234 -10.233 -10.217 -10.209 -10.201 -10.179 -10.177 -10.156
 -1.121  -1.103  -1.061  -1.034  -1.017  -0.830  -0.793  -0.779
 -0.747  -0.722  -0.685  -0.650  -0.603  -0.591  -0.571  -0.549
 -0.532  -0.511  -0.500  -0.492  -0.488  -0.484  -0.476  -0.468
 -0.457  -0.437  -0.427  -0.423  -0.409  -0.405  -0.395  -0.380
 -0.372  -0.367  -0.364  -0.360  -0.355  -0.350  -0.335  -0.329
 -0.321  -0.301  -0.291  -0.274  -0.270
 -- Virtual --
 -0.021  -0.008  -0.003   0.002   0.003   0.011   0.013   0.022
  0.026   0.030   0.035   0.038   0.042   0.047   0.049   0.057
  0.062   0.067   0.074   0.077   0.080   0.089   0.090   0.094
  0.098   0.103   0.106   0.109   0.112   0.116   0.119   0.125
  0.127   0.131   0.133   0.133   0.138   0.141   0.142   0.144
  0.146   0.149   0.150   0.154   0.158   0.159   0.167   0.168
  0.170   0.172   0.176   0.177   0.183   0.186   0.189   0.191
  0.194   0.201   0.205   0.210   0.215   0.220   0.224   0.227
  0.232   0.236   0.240   0.244   0.245   0.248   0.260   0.265
  0.272   0.275   0.279   0.282   0.286   0.287   0.294   0.302
  0.306   0.316   0.320   0.323   0.326   0.331   0.338   0.340
  0.343   0.348   0.353   0.355   0.357   0.362   0.364   0.373
  0.376   0.380   0.390   0.393   0.395   0.399   0.401   0.410
  0.416   0.420   0.431   0.437   0.448   0.454   0.470   0.474
  0.480   0.493   0.507   0.512   0.527   0.540   0.544   0.554
  0.556   0.563   0.577   0.589   0.591   0.599   0.616   0.621
  0.622   0.626   0.632   0.638   0.649   0.658   0.664   0.668
  0.672   0.680   0.685   0.692   0.700   0.703   0.713   0.715
  0.724   0.730   0.738   0.742   0.746   0.753   0.764   0.768
  0.776   0.787   0.789   0.811   0.812   0.815   0.844   0.862
  0.871   0.903   0.921   0.940   0.952   0.966   0.987   1.008
  1.021   1.042   1.050   1.069   1.076   1.093   1.095   1.109
  1.124   1.166   1.183   1.192   1.196   1.211   1.214   1.223
  1.226   1.244   1.248   1.269   1.272   1.295   1.316   1.332
  1.342   1.346   1.356   1.378   1.390   1.398   1.414   1.426
  1.436   1.444   1.452   1.466   1.470   1.499   1.505   1.510
  1.528   1.535   1.538   1.546   1.561   1.565   1.575   1.584
  1.593   1.597   1.602   1.619   1.623   1.632   1.653   1.667
  1.669   1.680   1.691   1.704   1.711   1.712   1.720   1.724
  1.732   1.744   1.754   1.771   1.780   1.793   1.803   1.812
  1.821   1.832   1.845   1.856   1.862   1.895   1.907   1.916
  1.927   1.942   1.952   1.982   1.990   1.999   2.017   2.030
  2.045   2.059   2.080   2.100   2.107   2.115   2.134   2.145
  2.152   2.159   2.179   2.190   2.219   2.230   2.243   2.251
  2.277   2.312   2.322   2.346   2.401   2.417   2.444   2.458
  2.462   2.466   2.490   2.494   2.508   2.518   2.527   2.528
  2.536   2.545   2.553   2.569   2.585   2.592   2.616   2.644
  2.663   2.668   2.678   2.688   2.709   2.722   2.754   2.769
  2.796   2.798   2.824   2.831   2.846   2.863   2.871   2.886
  2.891   2.903   2.915   2.939   2.958   2.979   2.995   3.016
  3.018   3.032   3.052   3.054   3.066   3.086   3.096   3.117
  3.132   3.144   3.150   3.169   3.209   3.217   3.229   3.263
  3.267   3.300   3.320   3.350   3.375   3.395   3.416   3.451
  3.582   3.603   3.613   3.656   3.680   3.740   3.770   3.795
  3.825   3.834   3.844   3.867   3.943   3.954   4.020   4.049
  4.061   4.100   4.117   4.126   4.140   4.165   4.185   4.252
  4.293   4.429   4.491   5.033   5.054   5.105   5.152   5.213
  5.284   5.322   5.378   5.430   5.498   5.622   5.637   5.660
  5.898   5.910  23.787  23.840  23.846  23.877  23.895  23.922
 23.944  23.950  23.976  23.994  24.044  49.896  49.933  49.984
 50.025  50.051
 --------------------------------------------------------------
 
          Ground-State Mulliken Net Atomic Charges

     Atom                 Charge (a.u.)
  ----------------------------------------
      1 C                    -0.238344
      2 C                     0.294211
      3 C                    -0.272768
      4 C                    -0.778522
      5 O                    -0.010147
      6 O                    -0.190652
      7 O                    -0.055506
      8 O                    -0.190379
      9 C                    -0.238714
     10 C                    -0.172617
     11 C                     0.512939
     12 C                    -0.402641
     13 C                    -0.502614
     14 C                    -0.300647
     15 O                    -0.047509
     16 H                     0.235081
     17 H                     0.297609
     18 H                     0.173398
     19 H                     0.161056
     20 H                     0.182283
     21 H                     0.125250
     22 H                     0.169082
     23 H                     0.138518
     24 H                     0.149769
     25 H                     0.189972
     26 H                     0.192400
     27 H                     0.149104
     28 H                     0.299950
     29 C                    -0.376348
     30 H                     0.151242
     31 H                     0.144936
     32 H                     0.210608
  ----------------------------------------
  Sum of atomic charges =    -0.000000

 -----------------------------------------------------------------
                    Cartesian Multipole Moments
 -----------------------------------------------------------------
    Charge (ESU x 10^10)
                -0.0000
    Dipole Moment (Debye)
         X       2.1817      Y      -2.8561      Z       1.1467
       Tot       3.7726
    Quadrupole Moments (Debye-Ang)
        XX     -85.7804     XY       0.4580     YY     -86.3106
        XZ      -4.1017     YZ      -0.7657     ZZ     -89.8007
    Octopole Moments (Debye-Ang^2)
       XXX     -63.0683    XXY     137.8055    XYY     -36.1195
       YYY     415.9178    XXZ     -83.5571    XYZ       8.6763
       YYZ     -58.3556    XZZ     -23.4626    YZZ     156.6759
       ZZZ    -198.8142
    Hexadecapole Moments (Debye-Ang^3)
      XXXX   -1811.5627   XXXY     -72.8914   XXYY    -822.1159
      XYYY     -38.5393   YYYY   -2804.7728   XXXZ      36.7834
      XXYZ      15.2105   XYYZ      40.4283   YYYZ       6.0835
      XXZZ    -535.1243   XYZZ     -12.4999   YYZZ    -673.3631
      XZZZ     100.3679   YZZZ      65.7567   ZZZZ   -1314.3545
 -----------------------------------------------------------------
 Calculating analytic gradient of the SCF energy
 Gradient of SCF Energy
            1           2           3           4           5           6
    1  -0.0000074   0.0000254  -0.0000170  -0.0000066  -0.0000001   0.0000128
    2   0.0000073  -0.0000250  -0.0000005   0.0000457   0.0000173   0.0000023
    3   0.0000134  -0.0000051   0.0000076   0.0001104  -0.0000019   0.0000190
            7           8           9          10          11          12
    1  -0.0000030   0.0000210   0.0000162  -0.0000010  -0.0000682  -0.0000089
    2   0.0000271  -0.0000334  -0.0000097  -0.0000070   0.0000234  -0.0000033
    3  -0.0000857  -0.0000543   0.0000469  -0.0000081   0.0000354  -0.0000039
           13          14          15          16          17          18
    1   0.0000122   0.0000280   0.0000106   0.0000094   0.0000021  -0.0000100
    2  -0.0000196  -0.0000149   0.0000154   0.0000051   0.0000024   0.0000232
    3   0.0000086   0.0000156  -0.0000748  -0.0000064   0.0000038  -0.0000132
           19          20          21          22          23          24
    1  -0.0000058  -0.0000033   0.0000010   0.0000063   0.0000048  -0.0000033
    2  -0.0000026  -0.0000117  -0.0000009  -0.0000074  -0.0000125   0.0000137
    3   0.0000055   0.0000073   0.0000002  -0.0000027   0.0000035  -0.0000070
           25          26          27          28          29          30
    1  -0.0000183  -0.0000062   0.0000004  -0.0000105   0.0000150  -0.0000010
    2   0.0000031   0.0000007   0.0000023   0.0000095  -0.0000197  -0.0000091
    3  -0.0000216  -0.0000017  -0.0000014   0.0000006  -0.0000080   0.0000047
           31          32
    1   0.0000042   0.0000011
    2  -0.0000105  -0.0000109
    3   0.0000070   0.0000062
 Max gradient component =       1.104E-04
 RMS gradient           =       2.298E-05
 Gradient time:  CPU 305.22 s  wall 22.21 s
 Geometry Optimization Parameters
   NAtoms,    NIC,     NZ,  NCons,   NDum,   NFix, NCnnct, MaxDiis
       32     251       0       0       0       0       0       0


** GEOMETRY OPTIMIZATION IN DELOCALIZED INTERNAL COORDINATES **
   Searching for a Transition State

   Optimization Cycle:   1

                       Coordinates (Angstroms)
     ATOM                X               Y               Z
      1  C         1.0490088000   -2.3142127600    0.6999736600
      2  C        -0.1973709200   -1.8236655000    1.5174690600
      3  C        -0.1893942200   -0.3438838400    1.8808270900
      4  C         2.0428364100   -1.2628839800    0.2358476300
      5  O         0.5522129200   -0.1703968300    2.9994812500
      6  O        -0.7751168900    0.5486308300    1.3264059400
      7  O         2.9926349500   -1.8500103500   -0.5280028400
      8  O         2.0445396200   -0.0870326400    0.4949313900
      9  C         4.0122663900   -0.9766949600   -1.0506119900
     10  C         0.7873714800    1.1966039900    3.3802844900
     11  C         0.3511939500   -3.0202727200   -0.5032218200
     12  C        -0.2498980000   -4.3581359500   -0.0319377300
     13  C        -1.4780817500   -3.8542897300    0.7748519800
     14  C        -1.3745155400   -2.3105249600    0.6014245800
     15  O        -0.7964229500   -2.2007499600   -0.7192953900
     16  H         1.6327779400   -3.0349357900    1.2768088300
     17  H        -0.2186272400   -2.3540896200    2.4705461800
     18  H         4.5540895900   -0.4925042100   -0.2368572500
     19  H        -0.1552447800    1.7078731200    3.5810183600
     20  H        -0.5574547800   -4.9539594700   -0.8926098600
     21  H         0.4514628400   -4.9523440100    0.5570043800
     22  H        -2.4120002500   -4.2073572500    0.3348843900
     23  H        -1.4650876800   -4.1581840400    1.8235400700
     24  H         4.6759763000   -1.6189851200   -1.6250823200
     25  H         3.5666068400   -0.2134391100   -1.6900760500
     26  H         1.3205445600    1.7124900400    2.5805288900
     27  H         1.3961061400    1.1472636600    4.2808053400
     28  H         0.9552352500   -3.0643282400   -1.4049770700
     29  C        -2.7000291800   -1.5850444800    0.6741741500
     30  H        -3.4161833000   -2.0717661600    0.0082097700
     31  H        -3.0969800700   -1.6273021200    1.6927945900
     32  H        -2.5900764300   -0.5417678700    0.3899202900
   Point Group: c1    Number of degrees of freedom:    90


   Energy is   -805.193380373


 Attempting to Generate Delocalized Internal Coordinates

 90 Hessian modes will be used to form the next step
  Hessian Eigenvalues:
     0.002972    0.006036    0.006620    0.007070    0.007484    0.009783
     0.010126    0.010269    0.010565    0.021821    0.021878    0.022573
     0.025831    0.033475    0.035971    0.037838    0.040623    0.044592
     0.048562    0.049104    0.052191    0.054603    0.055782    0.056997
     0.058340    0.060162    0.063737    0.064820    0.066153    0.074338
     0.081736    0.092929    0.098146    0.101210    0.101727    0.103281
     0.105945    0.106230    0.120810    0.123397    0.154563    0.160000
     0.160000    0.160000    0.160000    0.160000    0.160000    0.160000
     0.160000    0.160000    0.173490    0.233605    0.236807    0.249796
     0.249967    0.250000    0.250000    0.250000    0.250000    0.250184
     0.254806    0.264659    0.278755    0.300072    0.304301    0.310695
     0.331122    0.343489    0.345396    0.345562    0.345928    0.346151
     0.346894    0.346935    0.347008    0.347011    0.347038    0.347076
     0.347110    0.350348    0.350813    0.351753    0.352304    0.352480
     0.394976    0.398054    0.543217    0.544118    1.028106    1.033654
**WARNING** Hessian does not have the Desired Local Structure

 Transition State Search - Taking P-RFO Step
 Searching for Lamda that Maximizes Along the Lowest mode
 Value Taken    Lamda =   0.00297190
 Searching for Lamda that Minimizes Along All other modes
 Value Taken    Lamda =   0.00000000
 Calculated Step too Large.  Step scaled by  0.000019
 Step Taken.  Stepsize is  0.050000

                             Maximum     Tolerance    Cnvgd?
         Gradient           0.000054      0.000001      NO
         Displacement       0.015534      0.000001      NO
         Energy change     *********      0.000000      NO


 New Cartesian Coordinates Obtained by Inverse Iteration

 Displacement from previous Coordinates is:  0.122066
 Adding empirical dispersion correction 
 ----------------------------------------------------------------
 Doing -D3(op) with
 s6 =   1.00000
 s8 =   0.78311
 a1 =   0.30000
 a2 =   4.25000
 n  =  10.00000
 -D3 energy without 3body term =     -0.0352279651 hartrees
 ----------------------------------------------------------------
             Standard Nuclear Orientation (Angstroms)
    I     Atom           X                Y                Z
 ----------------------------------------------------------------
    1      C       1.0514879226    -2.3139729787     0.7003641196
    2      C      -0.1961218923    -1.8249378617     1.5168089740
    3      C      -0.1881882890    -0.3461347662     1.8841302337
    4      C       2.0405795416    -1.2605889860     0.2308128181
    5      O       0.5517883462    -0.1758923618     3.0043615160
    6      O      -0.7727683548     0.5480598314     1.3312121000
    7      O       2.9918000533    -1.8470183219    -0.5318026502
    8      O       2.0379157263    -0.0837041025     0.4851522482
    9      C       4.0073336390    -0.9717784674    -1.0591498814
   10      C       0.7868386704     1.1900051894     3.3891694207
   11      C       0.3547543915    -3.0270568864    -0.4990674499
   12      C      -0.2488407759    -4.3612960529    -0.0201290148
   13      C      -1.4824699388    -3.8519901126     0.7748653890
   14      C      -1.3724237273    -2.3092619417     0.5980358173
   15      O      -0.7907175634    -2.2062957988    -0.7216809642
   16      H       1.6386958760    -3.0301150915     1.2794100607
   17      H      -0.2190115922    -2.3577982014     2.4684882766
   18      H       4.5481902060    -0.4821604200    -0.2480036670
   19      H      -0.1559048699     1.7010621477     3.5898458418
   20      H      -0.5506753902    -4.9646015275    -0.8776088843
   21      H       0.4492669032    -4.9500905577     0.5780429968
   22      H      -2.4135430749    -4.2032411150     0.3274757720
   23      H      -1.4796591808    -4.1532601460     1.8243870773
   24      H       4.6729111886    -1.6137420820    -1.6318216002
   25      H       3.5578880604    -0.2128847537    -1.7011508266
   26      H       1.3213947658     1.7078410461     2.5916001284
   27      H       1.3941961876     1.1380495656     4.2904727078
   28      H       0.9602207571    -3.0776847067    -1.3995210113
   29      C      -2.6953059183    -1.5784456204     0.6650511370
   30      H      -3.4114525248    -2.0641799813    -0.0016417769
   31      H      -3.0953121092    -1.6164093501     1.6826449265
   32      H      -2.5804870339    -0.5363756186     0.3783061554
 ----------------------------------------------------------------
 Nuclear Repulsion Energy =  1243.5503314478 hartrees
 There are       61 alpha and       61 beta electrons
 Applying Cartesian multipole field
    Component          Value
    ---------          -----
     (2,0,0)        1.00000E-11
     (0,2,0)        2.00000E-11
     (0,0,2)       -3.00000E-11
 Nucleus-field energy     =     0.0000000261 hartrees
 Requested basis set is 6-311++G(d,p)
 There are 176 shells and 464 basis functions
 A cutoff of  1.0D-11 yielded  12613 shell pairs
 There are     89309 function pairs (     95212 Cartesian)
 Smallest overlap matrix eigenvalue = 6.65E-07

 Q-Chem warning in module /fs/scratch/osu6415/qchem-kaunlao-vdw/stvman/mkSTV.C, line 281:

 Overlap eigenvalue is smaller than square root of threshold

 Linear dependence detected in AO basis
 Number of orthogonalized atomic orbitals = 463
 Maximum deviation from orthogonality = 6.635E-11
 Guess MOs from SCF MO coefficient file
 Reading MOs from coefficient file
 Reading MOs from coefficient file
 A restricted hybrid HF-DFT SCF calculation will be
 performed using Pulay DIIS extrapolation
 Exchange:     0.2000 Hartree-Fock + 0.0800 Slater + 0.7200 B88
 Correlation:  0.1900 VWN1RPA + 0.8100 LYP
 Using SG-1 standard quadrature grid
 Dispersion:   Grimme D3
 SCF converges when DIIS error is below 1.0E-08
 Geometry optimization detected.  Setting ReadMinima to 0
 Setting SaveMinima to 0
 using 20 threads for integral computing
 -------------------------------------------------------
 OpenMP Integral computing Module                
 Release: version 1.0, May 2013, Q-Chem Inc. Pittsburgh 
 -------------------------------------------------------
 -------------------------------------------------------
 OpenMP BLAS3 based DFT computing Module                
 Release: version 1.0, May 2013, Q-Chem Inc. Pittsburgh 
 -------------------------------------------------------
 ---------------------------------------
  Cycle       Energy         DIIS Error
 ---------------------------------------
    1    -805.1940710533      1.74E-04
    2    -805.1933639891      2.20E-05
    3    -805.1933533884      3.28E-05
    4    -805.1933772386      4.24E-06
    5    -805.1933774975      2.01E-06
    6    -805.1933775728      6.32E-07
    7    -805.1933775787      3.62E-07
    8    -805.1933775810      8.28E-08
    9    -805.1933775814      1.80E-08
   10    -805.1933775813      5.12E-09 Convergence criterion met
 ---------------------------------------
 SCF time:  CPU 620.15 s  wall 34.96 s
 SCF   energy in the final basis set = -805.19337758
 Total energy in the final basis set = -805.19337758
 
 --------------------------------------------------------------
 
                    Orbital Energies (a.u.)
 --------------------------------------------------------------
 
 Alpha MOs
 -- Occupied --
-19.178 -19.162 -19.128 -19.123 -19.105 -10.312 -10.298 -10.238
-10.234 -10.233 -10.217 -10.209 -10.201 -10.179 -10.177 -10.156
 -1.121  -1.103  -1.061  -1.034  -1.017  -0.830  -0.793  -0.779
 -0.747  -0.722  -0.685  -0.650  -0.602  -0.592  -0.571  -0.549
 -0.531  -0.511  -0.500  -0.492  -0.488  -0.484  -0.476  -0.468
 -0.458  -0.437  -0.427  -0.423  -0.409  -0.405  -0.394  -0.380
 -0.372  -0.367  -0.364  -0.360  -0.355  -0.350  -0.335  -0.329
 -0.320  -0.302  -0.291  -0.274  -0.270
 -- Virtual --
 -0.021  -0.008  -0.003   0.002   0.003   0.011   0.013   0.022
  0.026   0.030   0.034   0.038   0.042   0.047   0.049   0.057
  0.062   0.067   0.074   0.077   0.080   0.089   0.090   0.094
  0.098   0.103   0.106   0.109   0.112   0.116   0.119   0.124
  0.127   0.131   0.133   0.134   0.138   0.141   0.142   0.144
  0.146   0.149   0.150   0.154   0.158   0.159   0.167   0.168
  0.171   0.172   0.176   0.176   0.183   0.186   0.189   0.191
  0.194   0.201   0.205   0.209   0.215   0.220   0.224   0.227
  0.231   0.237   0.240   0.244   0.245   0.248   0.260   0.265
  0.272   0.275   0.279   0.282   0.286   0.287   0.295   0.302
  0.307   0.316   0.319   0.323   0.327   0.331   0.337   0.340
  0.343   0.348   0.353   0.355   0.357   0.362   0.364   0.373
  0.376   0.380   0.390   0.393   0.395   0.400   0.401   0.409
  0.416   0.420   0.431   0.437   0.448   0.454   0.470   0.474
  0.480   0.493   0.507   0.512   0.527   0.539   0.544   0.555
  0.556   0.564   0.577   0.589   0.592   0.599   0.616   0.621
  0.622   0.626   0.632   0.638   0.649   0.658   0.664   0.668
  0.672   0.680   0.685   0.692   0.700   0.703   0.713   0.715
  0.724   0.730   0.738   0.742   0.745   0.753   0.764   0.768
  0.776   0.786   0.789   0.811   0.812   0.815   0.844   0.862
  0.872   0.902   0.922   0.940   0.952   0.967   0.987   1.008
  1.021   1.042   1.049   1.069   1.076   1.094   1.095   1.109
  1.124   1.167   1.183   1.192   1.196   1.210   1.214   1.222
  1.227   1.244   1.248   1.269   1.272   1.295   1.316   1.333
  1.342   1.346   1.355   1.378   1.390   1.398   1.414   1.425
  1.436   1.444   1.452   1.466   1.471   1.499   1.505   1.510
  1.529   1.535   1.538   1.545   1.562   1.565   1.576   1.584
  1.593   1.597   1.602   1.620   1.623   1.632   1.654   1.666
  1.669   1.680   1.691   1.705   1.711   1.713   1.720   1.724
  1.732   1.744   1.754   1.771   1.780   1.793   1.803   1.811
  1.821   1.832   1.846   1.856   1.862   1.895   1.907   1.916
  1.927   1.942   1.952   1.983   1.989   2.000   2.017   2.030
  2.046   2.058   2.080   2.100   2.107   2.115   2.134   2.145
  2.153   2.159   2.178   2.190   2.219   2.231   2.243   2.251
  2.278   2.313   2.323   2.345   2.401   2.417   2.444   2.458
  2.461   2.466   2.490   2.494   2.508   2.518   2.527   2.528
  2.537   2.545   2.553   2.569   2.585   2.592   2.616   2.644
  2.662   2.668   2.678   2.688   2.709   2.721   2.754   2.769
  2.796   2.799   2.824   2.831   2.846   2.863   2.871   2.885
  2.891   2.903   2.915   2.939   2.958   2.980   2.995   3.016
  3.018   3.031   3.051   3.055   3.066   3.086   3.097   3.118
  3.132   3.144   3.149   3.169   3.209   3.218   3.229   3.263
  3.266   3.300   3.320   3.350   3.375   3.395   3.416   3.451
  3.582   3.604   3.613   3.656   3.681   3.740   3.770   3.795
  3.825   3.834   3.844   3.867   3.943   3.955   4.020   4.049
  4.061   4.099   4.117   4.126   4.140   4.165   4.185   4.252
  4.293   4.429   4.491   5.033   5.055   5.105   5.152   5.213
  5.285   5.321   5.377   5.430   5.497   5.622   5.637   5.660
  5.898   5.910  23.787  23.840  23.845  23.877  23.895  23.922
 23.943  23.950  23.976  23.994  24.044  49.896  49.933  49.984
 50.025  50.052
 --------------------------------------------------------------
 
          Ground-State Mulliken Net Atomic Charges

     Atom                 Charge (a.u.)
  ----------------------------------------
      1 C                    -0.241807
      2 C                     0.299769
      3 C                    -0.273961
      4 C                    -0.777330
      5 O                    -0.010250
      6 O                    -0.190267
      7 O                    -0.055679
      8 O                    -0.190296
      9 C                    -0.238621
     10 C                    -0.171518
     11 C                     0.514638
     12 C                    -0.400555
     13 C                    -0.507108
     14 C                    -0.303116
     15 O                    -0.046992
     16 H                     0.235330
     17 H                     0.297647
     18 H                     0.173359
     19 H                     0.161150
     20 H                     0.182362
     21 H                     0.125111
     22 H                     0.169260
     23 H                     0.138421
     24 H                     0.149647
     25 H                     0.190032
     26 H                     0.192163
     27 H                     0.149088
     28 H                     0.300278
     29 C                    -0.377828
     30 H                     0.151100
     31 H                     0.145280
     32 H                     0.210691
  ----------------------------------------
  Sum of atomic charges =    -0.000000

 -----------------------------------------------------------------
                    Cartesian Multipole Moments
 -----------------------------------------------------------------
    Charge (ESU x 10^10)
                -0.0000
    Dipole Moment (Debye)
         X       2.1781      Y      -2.8514      Z       1.1563
       Tot       3.7699
    Quadrupole Moments (Debye-Ang)
        XX     -85.7820     XY       0.4596     YY     -86.3426
        XZ      -4.0804     YZ      -0.7707     ZZ     -89.7540
    Octopole Moments (Debye-Ang^2)
       XXX     -63.2720    XXY     137.9722    XYY     -36.1312
       YYY     415.9350    XXZ     -83.5779    XYZ       8.7066
       YYZ     -58.3739    XZZ     -23.3508    YZZ     156.8045
       ZZZ    -198.5224
    Hexadecapole Moments (Debye-Ang^3)
      XXXX   -1808.8864   XXXY     -72.1563   XXYY    -821.7070
      XYYY     -38.5531   YYYY   -2804.2630   XXXZ      37.2347
      XXYZ      15.5546   XYYZ      40.4768   YYYZ       6.9351
      XXZZ    -534.7727   XYZZ     -12.4679   YYZZ    -674.2566
      XZZZ     100.9738   YZZZ      66.8173   ZZZZ   -1317.3995
 -----------------------------------------------------------------
 Calculating analytic gradient of the SCF energy
 Gradient of SCF Energy
            1           2           3           4           5           6
    1  -0.0000094   0.0000017   0.0000748  -0.0000056  -0.0001542  -0.0000028
    2   0.0002351  -0.0002187  -0.0000015   0.0000162   0.0000067   0.0000188
    3  -0.0000710   0.0001114   0.0001370   0.0001554   0.0000475  -0.0000824
            7           8           9          10          11          12
    1   0.0000042   0.0000136   0.0000200  -0.0000050  -0.0001755   0.0001635
    2   0.0000311   0.0000116  -0.0000127  -0.0000301  -0.0001477   0.0000526
    3  -0.0000725  -0.0001824   0.0000478  -0.0000202  -0.0000797   0.0001561
           13          14          15          16          17          18
    1  -0.0001610   0.0002436  -0.0000181   0.0000074   0.0000141  -0.0000125
    2  -0.0000551   0.0001340  -0.0000173  -0.0000039   0.0000209   0.0000250
    3  -0.0001246   0.0000057  -0.0000549  -0.0000287   0.0000158  -0.0000148
           19          20          21          22          23          24
    1  -0.0000103  -0.0000252  -0.0000085  -0.0000019  -0.0000071  -0.0000014
    2  -0.0000026   0.0000292  -0.0000255  -0.0000537  -0.0000077   0.0000137
    3   0.0000116  -0.0000058  -0.0000073   0.0000228  -0.0000027  -0.0000055
           25          26          27          28          29          30
    1  -0.0000161   0.0000028   0.0000005  -0.0000068   0.0000438  -0.0000033
    2   0.0000053  -0.0000174   0.0000009   0.0000100  -0.0000038   0.0000093
    3  -0.0000245   0.0000032  -0.0000038   0.0000058   0.0000546   0.0000054
           31          32
    1   0.0000030   0.0000317
    2  -0.0000317   0.0000089
    3   0.0000191  -0.0000183
 Max gradient component =       2.436E-04
 RMS gradient           =       7.241E-05
 Gradient time:  CPU 304.20 s  wall 21.40 s
 Geometry Optimization Parameters
   NAtoms,    NIC,     NZ,  NCons,   NDum,   NFix, NCnnct, MaxDiis
       32     251       0       0       0       0       0       0

 Cartesian Hessian Update
 Hessian Updated using Powell/Murtagh-Sargent Update
  Mixing factors:     0.000030 Powell
                      0.999970 Murtagh-Sargent


** GEOMETRY OPTIMIZATION IN DELOCALIZED INTERNAL COORDINATES **
   Searching for a Transition State

   Optimization Cycle:   2

                       Coordinates (Angstroms)
     ATOM                X               Y               Z
      1  C         1.0514879226   -2.3139729787    0.7003641196
      2  C        -0.1961218923   -1.8249378617    1.5168089740
      3  C        -0.1881882890   -0.3461347662    1.8841302337
      4  C         2.0405795416   -1.2605889860    0.2308128181
      5  O         0.5517883462   -0.1758923618    3.0043615160
      6  O        -0.7727683548    0.5480598314    1.3312121000
      7  O         2.9918000533   -1.8470183219   -0.5318026502
      8  O         2.0379157263   -0.0837041025    0.4851522482
      9  C         4.0073336390   -0.9717784674   -1.0591498814
     10  C         0.7868386704    1.1900051894    3.3891694207
     11  C         0.3547543915   -3.0270568864   -0.4990674499
     12  C        -0.2488407759   -4.3612960529   -0.0201290148
     13  C        -1.4824699388   -3.8519901126    0.7748653890
     14  C        -1.3724237273   -2.3092619417    0.5980358173
     15  O        -0.7907175634   -2.2062957988   -0.7216809642
     16  H         1.6386958760   -3.0301150915    1.2794100607
     17  H        -0.2190115922   -2.3577982014    2.4684882766
     18  H         4.5481902060   -0.4821604200   -0.2480036670
     19  H        -0.1559048699    1.7010621477    3.5898458418
     20  H        -0.5506753902   -4.9646015275   -0.8776088843
     21  H         0.4492669032   -4.9500905577    0.5780429968
     22  H        -2.4135430749   -4.2032411150    0.3274757720
     23  H        -1.4796591808   -4.1532601460    1.8243870773
     24  H         4.6729111886   -1.6137420820   -1.6318216002
     25  H         3.5578880604   -0.2128847537   -1.7011508266
     26  H         1.3213947658    1.7078410461    2.5916001284
     27  H         1.3941961876    1.1380495656    4.2904727078
     28  H         0.9602207571   -3.0776847067   -1.3995210113
     29  C        -2.6953059183   -1.5784456204    0.6650511370
     30  H        -3.4114525248   -2.0641799813   -0.0016417769
     31  H        -3.0953121092   -1.6164093501    1.6826449265
     32  H        -2.5804870339   -0.5363756186    0.3783061554
   Point Group: c1    Number of degrees of freedom:    90


   Energy is   -805.193377581

 Hessian Updated using Powell/Murtagh-Sargent Update
  Mixing factors:     0.999638 Powell
                      0.000362 Murtagh-Sargent

 90 Hessian modes will be used to form the next step
  Hessian Eigenvalues:
    -0.001191    0.006454    0.006981    0.007482    0.008564    0.010049
     0.010267    0.010557    0.011059    0.021836    0.021880    0.022574
     0.025842    0.033503    0.036068    0.037899    0.040627    0.044636
     0.048592    0.049216    0.052206    0.054606    0.055852    0.056997
     0.058340    0.060163    0.063784    0.064834    0.066169    0.074353
     0.081747    0.092931    0.098173    0.101210    0.101728    0.103287
     0.105945    0.106230    0.120951    0.123397    0.154682    0.160000
     0.160000    0.160000    0.160000    0.160000    0.160000    0.160000
     0.160000    0.160015    0.173534    0.233633    0.236824    0.249813
     0.249984    0.250000    0.250000    0.250000    0.250030    0.250191
     0.254835    0.264660    0.278757    0.300073    0.304304    0.310697
     0.331122    0.343489    0.345396    0.345562    0.345929    0.346151
     0.346894    0.346935    0.347008    0.347011    0.347038    0.347076
     0.347111    0.350348    0.350813    0.351754    0.352305    0.352480
     0.394976    0.398056    0.543221    0.544118    1.028106    1.033659

 Transition State Search - Taking P-RFO Step
 Searching for Lamda that Maximizes Along the Lowest mode
 Value Taken    Lamda =   0.00000179
 Searching for Lamda that Minimizes Along All other modes
 Value Taken    Lamda =  -0.00001017
 Step Taken.  Stepsize is  0.047824

                             Maximum     Tolerance    Cnvgd?
         Gradient           0.000240      0.000001      NO
         Displacement       0.014856      0.000001      NO
         Energy change      0.000003      0.000000      NO


 New Cartesian Coordinates Obtained by Inverse Iteration

 Displacement from previous Coordinates is:  0.119565
 Adding empirical dispersion correction 
 ----------------------------------------------------------------
 Doing -D3(op) with
 s6 =   1.00000
 s8 =   0.78311
 a1 =   0.30000
 a2 =   4.25000
 n  =  10.00000
 -D3 energy without 3body term =     -0.0352318885 hartrees
 ----------------------------------------------------------------
             Standard Nuclear Orientation (Angstroms)
    I     Atom           X                Y                Z
 ----------------------------------------------------------------
    1      C       1.0489937386    -2.3141416127     0.6996285379
    2      C      -0.1974060880    -1.8236347606     1.5171886255
    3      C      -0.1893694755    -0.3439019933     1.8806000384
    4      C       2.0423477330    -1.2626039491     0.2351129203
    5      O       0.5523743000    -0.1705888675     2.9992045858
    6      O      -0.7754954254     0.5485517239     1.3264974506
    7      O       2.9925534580    -1.8497399533    -0.5281785240
    8      O       2.0441549751    -0.0869133381     0.4950359407
    9      C       4.0123451262    -0.9764631147    -1.0505825251
   10      C       0.7875180077     1.1963256417     3.3803786413
   11      C       0.3512689543    -3.0206185961    -0.5032749137
   12      C      -0.2497580600    -4.3582673438    -0.0313935163
   13      C      -1.4782131311    -3.8542012608     0.7749769717
   14      C      -1.3746504199    -2.3105028755     0.6013060227
   15      O      -0.7964560236    -2.2011762600    -0.7193729511
   16      H       1.6330467430    -3.0345461586     1.2765767982
   17      H      -0.2185387091    -2.3541432770     2.4702203223
   18      H       4.5549932275    -0.4935690115    -0.2366036992
   19      H      -0.1551042564     1.7075899924     3.5810672327
   20      H      -0.5569787116    -4.9545432344    -0.8918687646
   21      H       0.4516421051    -4.9520269006     0.5579594725
   22      H      -2.4120303760    -4.2073216603     0.3348461053
   23      H      -1.4655143841    -4.1578414688     1.8237370821
   24      H       4.6753041165    -1.6185752934    -1.6261218729
   25      H       3.5668289649    -0.2121835664    -1.6888955667
   26      H       1.3208567712     1.7123968451     2.5808520912
   27      H       1.3960932001     1.1467290584     4.2809942819
   28      H       0.9552839443    -3.0650115117    -1.4050452905
   29      C      -2.7001343847    -1.5848485353     0.6739690471
   30      H      -3.4163655470    -2.0716710706     0.0081651866
   31      H      -3.0970562664    -1.6268197919     1.6926116609
   32      H      -2.5901541066    -0.5416378856     0.3894685988
 ----------------------------------------------------------------
 Nuclear Repulsion Energy =  1243.5825969189 hartrees
 There are       61 alpha and       61 beta electrons
 Applying Cartesian multipole field
    Component          Value
    ---------          -----
     (2,0,0)        1.00000E-11
     (0,2,0)        2.00000E-11
     (0,0,2)       -3.00000E-11
 Nucleus-field energy     =     0.0000000262 hartrees
 Requested basis set is 6-311++G(d,p)
 There are 176 shells and 464 basis functions
 A cutoff of  1.0D-11 yielded  12613 shell pairs
 There are     89334 function pairs (     95249 Cartesian)
 Smallest overlap matrix eigenvalue = 6.69E-07

 Q-Chem warning in module /fs/scratch/osu6415/qchem-kaunlao-vdw/stvman/mkSTV.C, line 281:

 Overlap eigenvalue is smaller than square root of threshold

 Linear dependence detected in AO basis
 Number of orthogonalized atomic orbitals = 463
 Maximum deviation from orthogonality = 8.095E-11
 Guess MOs from SCF MO coefficient file
 Reading MOs from coefficient file
 Reading MOs from coefficient file
 A restricted hybrid HF-DFT SCF calculation will be
 performed using Pulay DIIS extrapolation
 Exchange:     0.2000 Hartree-Fock + 0.0800 Slater + 0.7200 B88
 Correlation:  0.1900 VWN1RPA + 0.8100 LYP
 Using SG-1 standard quadrature grid
 Dispersion:   Grimme D3
 SCF converges when DIIS error is below 1.0E-08
 Geometry optimization detected.  Setting ReadMinima to 0
 Setting SaveMinima to 0
 using 20 threads for integral computing
 -------------------------------------------------------
 OpenMP Integral computing Module                
 Release: version 1.0, May 2013, Q-Chem Inc. Pittsburgh 
 -------------------------------------------------------
 -------------------------------------------------------
 OpenMP BLAS3 based DFT computing Module                
 Release: version 1.0, May 2013, Q-Chem Inc. Pittsburgh 
 -------------------------------------------------------
 ---------------------------------------
  Cycle       Energy         DIIS Error
 ---------------------------------------
    1    -805.1923002567      1.70E-04
    2    -805.1933673897      2.18E-05
    3    -805.1933574282      3.20E-05
    4    -805.1933805444      4.16E-06
    5    -805.1933807948      1.99E-06
    6    -805.1933808678      6.04E-07
    7    -805.1933808735      3.47E-07
    8    -805.1933808761      8.62E-08
    9    -805.1933808760      1.83E-08
   10    -805.1933808758      5.12E-09 Convergence criterion met
 ---------------------------------------
 SCF time:  CPU 635.68 s  wall 34.14 s
 SCF   energy in the final basis set = -805.19338088
 Total energy in the final basis set = -805.19338088
 
 --------------------------------------------------------------
 
                    Orbital Energies (a.u.)
 --------------------------------------------------------------
 
 Alpha MOs
 -- Occupied --
-19.178 -19.161 -19.128 -19.123 -19.105 -10.312 -10.298 -10.238
-10.234 -10.233 -10.217 -10.209 -10.201 -10.179 -10.177 -10.156
 -1.121  -1.103  -1.061  -1.034  -1.017  -0.830  -0.793  -0.779
 -0.747  -0.722  -0.685  -0.650  -0.603  -0.591  -0.571  -0.549
 -0.532  -0.511  -0.500  -0.492  -0.488  -0.484  -0.476  -0.468
 -0.457  -0.437  -0.427  -0.423  -0.409  -0.405  -0.395  -0.380
 -0.372  -0.367  -0.364  -0.360  -0.355  -0.350  -0.334  -0.329
 -0.321  -0.301  -0.291  -0.274  -0.270
 -- Virtual --
 -0.021  -0.008  -0.003   0.002   0.003   0.011   0.013   0.022
  0.026   0.030   0.035   0.038   0.042   0.047   0.049   0.057
  0.062   0.067   0.074   0.077   0.080   0.089   0.090   0.094
  0.098   0.103   0.106   0.109   0.112   0.116   0.119   0.125
  0.127   0.131   0.133   0.133   0.138   0.141   0.142   0.144
  0.146   0.149   0.150   0.154   0.158   0.159   0.167   0.168
  0.170   0.172   0.176   0.177   0.183   0.186   0.189   0.191
  0.194   0.201   0.205   0.210   0.215   0.220   0.224   0.227
  0.232   0.237   0.240   0.244   0.245   0.248   0.260   0.265
  0.272   0.275   0.279   0.282   0.286   0.287   0.294   0.302
  0.306   0.316   0.320   0.323   0.326   0.331   0.338   0.340
  0.343   0.348   0.353   0.355   0.357   0.362   0.364   0.373
  0.376   0.380   0.390   0.394   0.395   0.399   0.401   0.410
  0.416   0.420   0.431   0.437   0.448   0.454   0.470   0.474
  0.480   0.493   0.507   0.512   0.527   0.540   0.544   0.554
  0.556   0.563   0.577   0.589   0.591   0.599   0.616   0.621
  0.622   0.626   0.632   0.638   0.649   0.658   0.664   0.668
  0.672   0.680   0.685   0.692   0.700   0.703   0.713   0.715
  0.724   0.730   0.738   0.742   0.746   0.753   0.764   0.768
  0.776   0.787   0.789   0.811   0.812   0.815   0.844   0.862
  0.871   0.903   0.921   0.940   0.952   0.966   0.987   1.008
  1.021   1.042   1.050   1.069   1.076   1.093   1.095   1.109
  1.124   1.166   1.183   1.192   1.196   1.211   1.214   1.223
  1.226   1.245   1.248   1.269   1.272   1.295   1.316   1.332
  1.342   1.346   1.356   1.378   1.390   1.398   1.414   1.426
  1.436   1.444   1.453   1.466   1.470   1.499   1.505   1.510
  1.528   1.535   1.538   1.546   1.561   1.565   1.575   1.584
  1.593   1.597   1.602   1.619   1.623   1.632   1.653   1.667
  1.669   1.680   1.691   1.704   1.711   1.712   1.720   1.724
  1.732   1.744   1.754   1.771   1.780   1.793   1.803   1.812
  1.821   1.832   1.845   1.856   1.863   1.895   1.907   1.916
  1.927   1.942   1.952   1.982   1.990   1.999   2.017   2.030
  2.045   2.059   2.080   2.100   2.107   2.115   2.134   2.145
  2.152   2.159   2.179   2.190   2.220   2.230   2.243   2.251
  2.277   2.312   2.322   2.346   2.401   2.417   2.444   2.458
  2.462   2.466   2.490   2.494   2.508   2.518   2.527   2.528
  2.536   2.545   2.553   2.569   2.585   2.592   2.616   2.644
  2.663   2.668   2.678   2.688   2.709   2.722   2.754   2.769
  2.796   2.798   2.824   2.831   2.846   2.863   2.871   2.886
  2.891   2.903   2.915   2.939   2.958   2.979   2.995   3.016
  3.018   3.032   3.052   3.054   3.066   3.086   3.096   3.117
  3.132   3.144   3.150   3.169   3.209   3.217   3.229   3.263
  3.267   3.300   3.320   3.350   3.376   3.395   3.416   3.451
  3.582   3.603   3.613   3.656   3.680   3.740   3.770   3.795
  3.825   3.834   3.844   3.867   3.943   3.954   4.021   4.049
  4.061   4.100   4.117   4.126   4.140   4.165   4.185   4.252
  4.293   4.429   4.491   5.033   5.054   5.106   5.152   5.213
  5.284   5.322   5.377   5.430   5.498   5.622   5.637   5.660
  5.898   5.910  23.787  23.840  23.845  23.877  23.895  23.922
 23.944  23.950  23.976  23.994  24.044  49.896  49.933  49.984
 50.025  50.051
 --------------------------------------------------------------
 
          Ground-State Mulliken Net Atomic Charges

     Atom                 Charge (a.u.)
  ----------------------------------------
      1 C                    -0.237733
      2 C                     0.294567
      3 C                    -0.273005
      4 C                    -0.779213
      5 O                    -0.010181
      6 O                    -0.190668
      7 O                    -0.055515
      8 O                    -0.190328
      9 C                    -0.238760
     10 C                    -0.172612
     11 C                     0.513269
     12 C                    -0.402715
     13 C                    -0.502662
     14 C                    -0.300714
     15 O                    -0.047544
     16 H                     0.235147
     17 H                     0.297617
     18 H                     0.173415
     19 H                     0.161055
     20 H                     0.182278
     21 H                     0.125219
     22 H                     0.169091
     23 H                     0.138490
     24 H                     0.149734
     25 H                     0.189998
     26 H                     0.192378
     27 H                     0.149101
     28 H                     0.299988
     29 C                    -0.376510
     30 H                     0.151222
     31 H                     0.144976
     32 H                     0.210614
  ----------------------------------------
  Sum of atomic charges =    -0.000000

 -----------------------------------------------------------------
                    Cartesian Multipole Moments
 -----------------------------------------------------------------
    Charge (ESU x 10^10)
                -0.0000
    Dipole Moment (Debye)
         X       2.1836      Y      -2.8553      Z       1.1456
       Tot       3.7727
    Quadrupole Moments (Debye-Ang)
        XX     -85.7766     XY       0.4551     YY     -86.3154
        XZ      -4.1042     YZ      -0.7654     ZZ     -89.8008
    Octopole Moments (Debye-Ang^2)
       XXX     -63.0373    XXY     137.8041    XYY     -36.0989
       YYY     415.9356    XXZ     -83.5564    XYZ       8.6827
       YYZ     -58.3592    XZZ     -23.4504    YZZ     156.6769
       ZZZ    -198.7818
    Hexadecapole Moments (Debye-Ang^3)
      XXXX   -1811.4779   XXXY     -72.9372   XXYY    -822.1198
      XYYY     -38.6422   YYYY   -2804.8700   XXXZ      36.7853
      XXYZ      15.2109   XYYZ      40.4147   YYYZ       6.1380
      XXZZ    -535.0967   XYZZ     -12.5259   YYZZ    -673.3625
      XZZZ     100.3933   YZZZ      65.7721   ZZZZ   -1314.1965
 -----------------------------------------------------------------
 Calculating analytic gradient of the SCF energy
 Gradient of SCF Energy
            1           2           3           4           5           6
    1   0.0000446   0.0000022   0.0000222  -0.0001183  -0.0000022  -0.0000196
    2  -0.0000049  -0.0000072   0.0000117   0.0000657  -0.0000108  -0.0000110
    3   0.0000513  -0.0000003  -0.0000320  -0.0001273   0.0000025   0.0000112
            7           8           9          10          11          12
    1   0.0000356   0.0000233   0.0000063   0.0000022   0.0000062   0.0000126
    2  -0.0000203  -0.0000178  -0.0000003   0.0000032   0.0000063   0.0000081
    3   0.0000024   0.0000649   0.0000205  -0.0000005  -0.0000486   0.0000039
           13          14          15          16          17          18
    1   0.0000058  -0.0000362   0.0000219  -0.0000007   0.0000022  -0.0000112
    2  -0.0000021   0.0000130  -0.0000302  -0.0000095  -0.0000068   0.0000159
    3   0.0000004   0.0000266   0.0000320  -0.0000047  -0.0000025  -0.0000131
           19          20          21          22          23          24
    1  -0.0000018   0.0000112   0.0000096   0.0000043   0.0000039  -0.0000037
    2  -0.0000021  -0.0000002   0.0000034  -0.0000005  -0.0000012   0.0000096
    3   0.0000044  -0.0000021  -0.0000021   0.0000032   0.0000011  -0.0000061
           25          26          27          28          29          30
    1  -0.0000094  -0.0000070   0.0000002   0.0000066  -0.0000038   0.0000002
    2   0.0000071   0.0000032   0.0000003  -0.0000022  -0.0000026  -0.0000062
    3  -0.0000148   0.0000003  -0.0000004  -0.0000002   0.0000112   0.0000069
           31          32
    1  -0.0000024  -0.0000049
    2  -0.0000070  -0.0000045
    3   0.0000063   0.0000055
 Max gradient component =       1.273E-04
 RMS gradient           =       2.462E-05
 Gradient time:  CPU 309.12 s  wall 21.70 s
 Geometry Optimization Parameters
   NAtoms,    NIC,     NZ,  NCons,   NDum,   NFix, NCnnct, MaxDiis
       32     251       0       0       0       0       0       0

 Cartesian Hessian Update
 Hessian Updated using Powell/Murtagh-Sargent Update
  Mixing factors:     0.997025 Powell
                      0.002975 Murtagh-Sargent


** GEOMETRY OPTIMIZATION IN DELOCALIZED INTERNAL COORDINATES **
   Searching for a Transition State

   Optimization Cycle:   3

                       Coordinates (Angstroms)
     ATOM                X               Y               Z
      1  C         1.0489937386   -2.3141416127    0.6996285379
      2  C        -0.1974060880   -1.8236347606    1.5171886255
      3  C        -0.1893694755   -0.3439019933    1.8806000384
      4  C         2.0423477330   -1.2626039491    0.2351129203
      5  O         0.5523743000   -0.1705888675    2.9992045858
      6  O        -0.7754954254    0.5485517239    1.3264974506
      7  O         2.9925534580   -1.8497399533   -0.5281785240
      8  O         2.0441549751   -0.0869133381    0.4950359407
      9  C         4.0123451262   -0.9764631147   -1.0505825251
     10  C         0.7875180077    1.1963256417    3.3803786413
     11  C         0.3512689543   -3.0206185961   -0.5032749137
     12  C        -0.2497580600   -4.3582673438   -0.0313935163
     13  C        -1.4782131311   -3.8542012608    0.7749769717
     14  C        -1.3746504199   -2.3105028755    0.6013060227
     15  O        -0.7964560236   -2.2011762600   -0.7193729511
     16  H         1.6330467430   -3.0345461586    1.2765767982
     17  H        -0.2185387091   -2.3541432770    2.4702203223
     18  H         4.5549932275   -0.4935690115   -0.2366036992
     19  H        -0.1551042564    1.7075899924    3.5810672327
     20  H        -0.5569787116   -4.9545432344   -0.8918687646
     21  H         0.4516421051   -4.9520269006    0.5579594725
     22  H        -2.4120303760   -4.2073216603    0.3348461053
     23  H        -1.4655143841   -4.1578414688    1.8237370821
     24  H         4.6753041165   -1.6185752934   -1.6261218729
     25  H         3.5668289649   -0.2121835664   -1.6888955667
     26  H         1.3208567712    1.7123968451    2.5808520912
     27  H         1.3960932001    1.1467290584    4.2809942819
     28  H         0.9552839443   -3.0650115117   -1.4050452905
     29  C        -2.7001343847   -1.5848485353    0.6739690471
     30  H        -3.4163655470   -2.0716710706    0.0081651866
     31  H        -3.0970562664   -1.6268197919    1.6926116609
     32  H        -2.5901541066   -0.5416378856    0.3894685988
   Point Group: c1    Number of degrees of freedom:    90


   Energy is   -805.193380876

 Hessian Updated using Powell/Murtagh-Sargent Update
  Mixing factors:     0.998509 Powell
                      0.001491 Murtagh-Sargent

 82 Hessian modes will be used to form the next step
  Hessian Eigenvalues:
    -0.001949    0.006470    0.006954    0.007482    0.008256    0.009942
     0.010246    0.010565    0.012310    0.021841    0.021877    0.022573
     0.025845    0.033510    0.036052    0.037906    0.040627    0.044633
     0.048590    0.049221    0.052207    0.054607    0.055852    0.056997
     0.058340    0.060163    0.063795    0.064832    0.066176    0.074352
     0.081745    0.092931    0.098218    0.101210    0.101728    0.103304
     0.105945    0.106231    0.120979    0.123402    0.154694    0.160000
     0.160001    0.160018    0.173533    0.233630    0.236826    0.249812
     0.249999    0.250000    0.250006    0.250033    0.250192    0.254836
     0.264661    0.278760    0.300073    0.304308    0.310700    0.331122
     0.343489    0.345396    0.345562    0.345929    0.346151    0.346894
     0.346935    0.347011    0.347038    0.347076    0.347111    0.350348
     0.350813    0.351754    0.352304    0.352480    0.394976    0.398057
     0.543221    0.544123    1.028106    1.033659

 Transition State Search - Taking P-RFO Step
 Searching for Lamda that Maximizes Along the Lowest mode
 Value Taken    Lamda =   0.00000040
 Searching for Lamda that Minimizes Along All other modes
 Value Taken    Lamda =  -0.00000103
 Step Taken.  Stepsize is  0.017256

                             Maximum     Tolerance    Cnvgd?
         Gradient           0.000038      0.000001      NO
         Displacement       0.004643      0.000001      NO
         Energy change     -0.000003      0.000000      NO


 New Cartesian Coordinates Obtained by Inverse Iteration

 Displacement from previous Coordinates is:  0.047236
 Adding empirical dispersion correction 
 ----------------------------------------------------------------
 Doing -D3(op) with
 s6 =   1.00000
 s8 =   0.78311
 a1 =   0.30000
 a2 =   4.25000
 n  =  10.00000
 -D3 energy without 3body term =     -0.0352391185 hartrees
 ----------------------------------------------------------------
             Standard Nuclear Orientation (Angstroms)
    I     Atom           X                Y                Z
 ----------------------------------------------------------------
    1      C       1.0494066836    -2.3146610759     0.7022315238
    2      C      -0.1982183205    -1.8243501487     1.5179743967
    3      C      -0.1901505833    -0.3449165057     1.8826620049
    4      C       2.0423891579    -1.2625857875     0.2381312550
    5      O       0.5542080959    -0.1720492282     2.9996118897
    6      O      -0.7761818958     0.5481084666     1.3293976438
    7      O       2.9910057261    -1.8483771439    -0.5281235101
    8      O       2.0428287910    -0.0867209173     0.4972720729
    9      C       4.0085752275    -0.9738190473    -1.0527251391
   10      C       0.7905370594     1.1947445371     3.3805177821
   11      C       0.3532846279    -3.0223283480    -0.5007827111
   12      C      -0.2490101147    -4.3592135154    -0.0280856400
   13      C      -1.4797229448    -3.8538848678     0.7739524951
   14      C      -1.3742805134    -2.3104199063     0.5999353764
   15      O      -0.7935740811    -2.2024069736    -0.7197634521
   16      H       1.6335301719    -3.0341246925     1.2802767614
   17      H      -0.2208638587    -2.3556986770     2.4705032193
   18      H       4.5536838304    -0.4917934010    -0.2398678306
   19      H      -0.1515196413     1.7061923317     3.5833728017
   20      H      -0.5536115742    -4.9574642628    -0.8881254496
   21      H       0.4508850180    -4.9515059594     0.5645219778
   22      H      -2.4122387910    -4.2061873893     0.3304285129
   23      H      -1.4711241265    -4.1573246093     1.8228173843
   24      H       4.6699612752    -1.6147615754    -1.6313683019
   25      H       3.5605191006    -0.2088792443    -1.6884528172
   26      H       1.3222146129     1.7108526250     2.5799042185
   27      H       1.4010905942     1.1448462958     4.2797773641
   28      H       0.9587033142    -3.0682021090    -1.4015344076
   29      C      -2.6992634235    -1.5835621124     0.6696141892
   30      H      -3.4146171610    -2.0702022525     0.0027273496
   31      H      -3.0981705349    -1.6245918806     1.6875125206
   32      H      -2.5878957220    -0.5406126548     0.3847465098
 ----------------------------------------------------------------
 Nuclear Repulsion Energy =  1243.6913043105 hartrees
 There are       61 alpha and       61 beta electrons
 Applying Cartesian multipole field
    Component          Value
    ---------          -----
     (2,0,0)        1.00000E-11
     (0,2,0)        2.00000E-11
     (0,0,2)       -3.00000E-11
 Nucleus-field energy     =     0.0000000262 hartrees
 Requested basis set is 6-311++G(d,p)
 There are 176 shells and 464 basis functions
 A cutoff of  1.0D-11 yielded  12615 shell pairs
 There are     89339 function pairs (     95254 Cartesian)
 Smallest overlap matrix eigenvalue = 6.70E-07

 Q-Chem warning in module /fs/scratch/osu6415/qchem-kaunlao-vdw/stvman/mkSTV.C, line 281:

 Overlap eigenvalue is smaller than square root of threshold

 Linear dependence detected in AO basis
 Number of orthogonalized atomic orbitals = 463
 Maximum deviation from orthogonality = 7.669E-11
 Guess MOs from SCF MO coefficient file
 Reading MOs from coefficient file
 Reading MOs from coefficient file
 A restricted hybrid HF-DFT SCF calculation will be
 performed using Pulay DIIS extrapolation
 Exchange:     0.2000 Hartree-Fock + 0.0800 Slater + 0.7200 B88
 Correlation:  0.1900 VWN1RPA + 0.8100 LYP
 Using SG-1 standard quadrature grid
 Dispersion:   Grimme D3
 SCF converges when DIIS error is below 1.0E-08
 Geometry optimization detected.  Setting ReadMinima to 0
 Setting SaveMinima to 0
 using 20 threads for integral computing
 -------------------------------------------------------
 OpenMP Integral computing Module                
 Release: version 1.0, May 2013, Q-Chem Inc. Pittsburgh 
 -------------------------------------------------------
 -------------------------------------------------------
 OpenMP BLAS3 based DFT computing Module                
 Release: version 1.0, May 2013, Q-Chem Inc. Pittsburgh 
 -------------------------------------------------------
 ---------------------------------------
  Cycle       Energy         DIIS Error
 ---------------------------------------
    1    -805.1936330916      6.16E-05
    2    -805.1933775070      7.17E-06
    3    -805.1933757655      1.23E-05
    4    -805.1933788728      2.22E-06
    5    -805.1933789490      1.01E-06
    6    -805.1933789676      3.07E-07
    7    -805.1933789693      1.02E-07
    8    -805.1933789694      2.50E-08
    9    -805.1933789710      7.47E-09 Convergence criterion met
 ---------------------------------------
 SCF time:  CPU 569.78 s  wall 31.18 s
 SCF   energy in the final basis set = -805.19337897
 Total energy in the final basis set = -805.19337897
 
 --------------------------------------------------------------
 
                    Orbital Energies (a.u.)
 --------------------------------------------------------------
 
 Alpha MOs
 -- Occupied --
-19.178 -19.161 -19.128 -19.123 -19.105 -10.312 -10.298 -10.238
-10.234 -10.233 -10.217 -10.209 -10.201 -10.179 -10.177 -10.156
 -1.121  -1.103  -1.061  -1.034  -1.017  -0.830  -0.793  -0.779
 -0.747  -0.722  -0.685  -0.650  -0.602  -0.591  -0.571  -0.549
 -0.532  -0.511  -0.500  -0.492  -0.488  -0.484  -0.476  -0.468
 -0.457  -0.437  -0.427  -0.422  -0.409  -0.405  -0.395  -0.380
 -0.372  -0.367  -0.364  -0.360  -0.355  -0.350  -0.334  -0.329
 -0.321  -0.301  -0.291  -0.274  -0.270
 -- Virtual --
 -0.021  -0.008  -0.003   0.002   0.003   0.011   0.013   0.022
  0.026   0.030   0.034   0.038   0.042   0.047   0.049   0.057
  0.062   0.067   0.074   0.077   0.080   0.089   0.090   0.094
  0.098   0.103   0.106   0.109   0.112   0.116   0.119   0.125
  0.128   0.131   0.133   0.134   0.138   0.141   0.142   0.144
  0.146   0.149   0.150   0.154   0.158   0.159   0.167   0.168
  0.170   0.172   0.176   0.177   0.183   0.186   0.189   0.191
  0.194   0.201   0.205   0.210   0.215   0.220   0.224   0.227
  0.232   0.237   0.240   0.244   0.245   0.248   0.260   0.265
  0.272   0.275   0.279   0.282   0.286   0.287   0.295   0.302
  0.306   0.316   0.320   0.323   0.327   0.331   0.338   0.339
  0.343   0.348   0.353   0.355   0.357   0.362   0.364   0.373
  0.376   0.380   0.390   0.394   0.395   0.399   0.401   0.410
  0.416   0.420   0.431   0.437   0.448   0.454   0.470   0.474
  0.480   0.493   0.507   0.512   0.527   0.540   0.544   0.555
  0.556   0.563   0.577   0.589   0.591   0.599   0.616   0.621
  0.622   0.626   0.632   0.638   0.649   0.658   0.664   0.668
  0.672   0.680   0.685   0.692   0.700   0.703   0.713   0.715
  0.724   0.730   0.738   0.742   0.746   0.753   0.764   0.768
  0.776   0.787   0.789   0.811   0.812   0.815   0.844   0.862
  0.871   0.903   0.921   0.940   0.952   0.967   0.987   1.007
  1.021   1.042   1.050   1.069   1.076   1.093   1.095   1.109
  1.124   1.166   1.183   1.192   1.196   1.211   1.214   1.223
  1.226   1.245   1.248   1.269   1.272   1.295   1.316   1.332
  1.342   1.346   1.355   1.379   1.390   1.398   1.414   1.426
  1.436   1.445   1.453   1.466   1.471   1.499   1.505   1.510
  1.528   1.535   1.538   1.546   1.561   1.565   1.576   1.584
  1.593   1.597   1.602   1.620   1.623   1.632   1.653   1.667
  1.669   1.680   1.691   1.705   1.711   1.712   1.720   1.724
  1.732   1.744   1.754   1.771   1.780   1.793   1.803   1.811
  1.821   1.832   1.845   1.856   1.863   1.895   1.906   1.916
  1.927   1.942   1.952   1.983   1.990   1.999   2.017   2.030
  2.046   2.059   2.080   2.100   2.107   2.115   2.134   2.145
  2.153   2.159   2.179   2.190   2.219   2.231   2.243   2.251
  2.277   2.313   2.323   2.345   2.401   2.417   2.444   2.458
  2.462   2.466   2.490   2.494   2.508   2.518   2.527   2.528
  2.537   2.545   2.553   2.569   2.585   2.592   2.616   2.644
  2.663   2.668   2.679   2.688   2.709   2.722   2.754   2.769
  2.796   2.798   2.824   2.831   2.846   2.863   2.871   2.885
  2.891   2.903   2.915   2.939   2.958   2.980   2.995   3.016
  3.018   3.032   3.052   3.054   3.066   3.086   3.096   3.118
  3.132   3.144   3.150   3.169   3.209   3.218   3.229   3.263
  3.267   3.300   3.320   3.350   3.375   3.396   3.415   3.451
  3.582   3.603   3.613   3.656   3.681   3.740   3.770   3.795
  3.825   3.834   3.844   3.867   3.943   3.954   4.020   4.049
  4.061   4.100   4.117   4.126   4.140   4.165   4.185   4.252
  4.293   4.429   4.491   5.033   5.054   5.106   5.152   5.213
  5.284   5.322   5.377   5.430   5.498   5.622   5.637   5.660
  5.898   5.910  23.787  23.840  23.845  23.877  23.895  23.922
 23.944  23.950  23.976  23.994  24.044  49.896  49.933  49.984
 50.025  50.052
 --------------------------------------------------------------
 
          Ground-State Mulliken Net Atomic Charges

     Atom                 Charge (a.u.)
  ----------------------------------------
      1 C                    -0.240941
      2 C                     0.294852
      3 C                    -0.270945
      4 C                    -0.777672
      5 O                    -0.010302
      6 O                    -0.190669
      7 O                    -0.055435
      8 O                    -0.190628
      9 C                    -0.238852
     10 C                    -0.172408
     11 C                     0.513347
     12 C                    -0.401010
     13 C                    -0.504952
     14 C                    -0.301091
     15 O                    -0.047192
     16 H                     0.235095
     17 H                     0.297396
     18 H                     0.173403
     19 H                     0.160990
     20 H                     0.182305
     21 H                     0.125145
     22 H                     0.169104
     23 H                     0.138556
     24 H                     0.149706
     25 H                     0.190083
     26 H                     0.192403
     27 H                     0.149147
     28 H                     0.300313
     29 C                    -0.376584
     30 H                     0.151147
     31 H                     0.145076
     32 H                     0.210614
  ----------------------------------------
  Sum of atomic charges =    -0.000000

 -----------------------------------------------------------------
                    Cartesian Multipole Moments
 -----------------------------------------------------------------
    Charge (ESU x 10^10)
                -0.0000
    Dipole Moment (Debye)
         X       2.1823      Y      -2.8540      Z       1.1428
       Tot       3.7701
    Quadrupole Moments (Debye-Ang)
        XX     -85.7865     XY       0.4669     YY     -86.3167
        XZ      -4.0950     YZ      -0.7862     ZZ     -89.8077
    Octopole Moments (Debye-Ang^2)
       XXX     -63.1806    XXY     137.8691    XYY     -36.0956
       YYY     415.9476    XXZ     -83.6149    XYZ       8.6863
       YYZ     -58.4029    XZZ     -23.4271    YZZ     156.6652
       ZZZ    -198.9394
    Hexadecapole Moments (Debye-Ang^3)
      XXXX   -1810.8865   XXXY     -72.8369   XXYY    -821.9892
      XYYY     -38.9298   YYYY   -2804.9301   XXXZ      36.3053
      XXYZ      15.3810   XYYZ      40.2032   YYYZ       6.6312
      XXZZ    -534.7633   XYZZ     -12.5794   YYZZ    -673.5135
      XZZZ      99.7451   YZZZ      66.2169   ZZZZ   -1315.0001
 -----------------------------------------------------------------
 Calculating analytic gradient of the SCF energy
 Gradient of SCF Energy
            1           2           3           4           5           6
    1  -0.0000628   0.0000992  -0.0002855   0.0002176   0.0001241   0.0000968
    2   0.0000136  -0.0000161  -0.0000452  -0.0000580   0.0000271   0.0000159
    3  -0.0000708  -0.0000616   0.0001161   0.0004025  -0.0000632  -0.0000438
            7           8           9          10          11          12
    1  -0.0000864  -0.0001204  -0.0000038   0.0000022  -0.0000254   0.0000128
    2  -0.0000034   0.0000249   0.0000023   0.0000060   0.0000054   0.0000018
    3  -0.0001392  -0.0000764  -0.0000010   0.0000040   0.0000037   0.0000078
           13          14          15          16          17          18
    1   0.0000016  -0.0000116  -0.0000127   0.0000283   0.0000292  -0.0000120
    2  -0.0000002   0.0000066  -0.0000046   0.0000247  -0.0000044   0.0000123
    3   0.0000013  -0.0000112   0.0000052  -0.0000288  -0.0000219  -0.0000047
           19          20          21          22          23          24
    1  -0.0000020   0.0000082   0.0000053   0.0000101  -0.0000030  -0.0000086
    2  -0.0000020  -0.0000095   0.0000121  -0.0000044  -0.0000126   0.0000121
    3  -0.0000010  -0.0000023   0.0000032  -0.0000037   0.0000046  -0.0000112
           25          26          27          28          29          30
    1  -0.0000026  -0.0000064   0.0000029   0.0000081   0.0000012  -0.0000018
    2   0.0000116   0.0000164   0.0000033  -0.0000076  -0.0000025  -0.0000033
    3  -0.0000130   0.0000001  -0.0000014  -0.0000146   0.0000079   0.0000067
           31          32
    1   0.0000014  -0.0000037
    2  -0.0000152  -0.0000071
    3   0.0000066   0.0000000
 Max gradient component =       4.025E-04
 RMS gradient           =       6.616E-05
 Gradient time:  CPU 303.01 s  wall 21.03 s
 Geometry Optimization Parameters
   NAtoms,    NIC,     NZ,  NCons,   NDum,   NFix, NCnnct, MaxDiis
       32     251       0       0       0       0       0       0

 Cartesian Hessian Update
 Hessian Updated using Powell/Murtagh-Sargent Update
  Mixing factors:     0.485696 Powell
                      0.514304 Murtagh-Sargent


** GEOMETRY OPTIMIZATION IN DELOCALIZED INTERNAL COORDINATES **
   Searching for a Transition State

   Optimization Cycle:   4

                       Coordinates (Angstroms)
     ATOM                X               Y               Z
      1  C         1.0494066836   -2.3146610759    0.7022315238
      2  C        -0.1982183205   -1.8243501487    1.5179743967
      3  C        -0.1901505833   -0.3449165057    1.8826620049
      4  C         2.0423891579   -1.2625857875    0.2381312550
      5  O         0.5542080959   -0.1720492282    2.9996118897
      6  O        -0.7761818958    0.5481084666    1.3293976438
      7  O         2.9910057261   -1.8483771439   -0.5281235101
      8  O         2.0428287910   -0.0867209173    0.4972720729
      9  C         4.0085752275   -0.9738190473   -1.0527251391
     10  C         0.7905370594    1.1947445371    3.3805177821
     11  C         0.3532846279   -3.0223283480   -0.5007827111
     12  C        -0.2490101147   -4.3592135154   -0.0280856400
     13  C        -1.4797229448   -3.8538848678    0.7739524951
     14  C        -1.3742805134   -2.3104199063    0.5999353764
     15  O        -0.7935740811   -2.2024069736   -0.7197634521
     16  H         1.6335301719   -3.0341246925    1.2802767614
     17  H        -0.2208638587   -2.3556986770    2.4705032193
     18  H         4.5536838304   -0.4917934010   -0.2398678306
     19  H        -0.1515196413    1.7061923317    3.5833728017
     20  H        -0.5536115742   -4.9574642628   -0.8881254496
     21  H         0.4508850180   -4.9515059594    0.5645219778
     22  H        -2.4122387910   -4.2061873893    0.3304285129
     23  H        -1.4711241265   -4.1573246093    1.8228173843
     24  H         4.6699612752   -1.6147615754   -1.6313683019
     25  H         3.5605191006   -0.2088792443   -1.6884528172
     26  H         1.3222146129    1.7108526250    2.5799042185
     27  H         1.4010905942    1.1448462958    4.2797773641
     28  H         0.9587033142   -3.0682021090   -1.4015344076
     29  C        -2.6992634235   -1.5835621124    0.6696141892
     30  H        -3.4146171610   -2.0702022525    0.0027273496
     31  H        -3.0981705349   -1.6245918806    1.6875125206
     32  H        -2.5878957220   -0.5406126548    0.3847465098
   Point Group: c1    Number of degrees of freedom:    90


   Energy is   -805.193378971

 Hessian Updated using Powell/Murtagh-Sargent Update
  Mixing factors:     0.842943 Powell
[...]
    -0.00000075      0.00006823      0.00001181
    -0.00009109      0.00008715     -0.00006350
     0.00003276      0.00002633      0.00000010
     0.00000915      0.00016253      0.00003314
    -0.00042900     -0.00065742      0.00021051
    -0.00001263     -0.00061523     -0.00005752
     0.00130281     -0.00110815     -0.00306614
    -0.01931399      0.04890135      0.00729315
     0.02792345      0.02061846     -0.02332988
     0.00028031     -0.00100476     -0.00025206
     0.00007412     -0.00008381      0.00012624
    -0.08110301      0.10534474     -0.08280060
     0.00269204      0.06391635     -0.11055325
     0.00511949      0.00436403      0.00763520
    -0.00720766      0.00386240      0.00155201
    -0.15362299     -0.26135879     -0.40045966
     0.37322707     -0.30161496      0.32322863
    -0.33232507     -0.12167232     -0.17176572
     0.01759587     -0.12007548      0.43849636
     0.00407264     -0.00401136     -0.00355525
    -0.00450891      0.00761042     -0.00645782
     0.00412042      0.00390757     -0.00601368
     0.00316684     -0.00026384      0.00467339
    -0.02619641      0.00564486      0.03864368
     0.00246115     -0.00039621     -0.00179632
    -0.01530827     -0.01013529     -0.01486725
    -0.01582204     -0.00123979      0.04108387
     0.00087563      0.01783384     -0.00545421
vibration 80
     0.03440060     -0.04370003      0.03490103
     0.00037794      0.02275731     -0.03940297
    -0.00060851      0.00075594     -0.00106134
     0.00076686     -0.00139152      0.00021382
     0.00001176     -0.00011816      0.00007233
     0.00026945     -0.00025023      0.00020047
    -0.00011409      0.00009049     -0.00002428
    -0.00001862      0.00048250      0.00025478
    -0.00088682     -0.00075376      0.00022085
    -0.00010167      0.00081346      0.00024416
    -0.00071100     -0.00046530      0.00149272
    -0.00233095     -0.01183480     -0.01115343
     0.01252686      0.00534373      0.00480505
     0.00004580      0.00020223      0.00010174
    -0.00029222      0.00018646      0.00008205
    -0.40828095      0.52704046     -0.41888736
    -0.00662210     -0.27032625      0.47001534
     0.00773708      0.00653370      0.01162256
     0.01014330     -0.00534250     -0.00224540
     0.06006371      0.11019392      0.16188473
    -0.03453102      0.02752849     -0.03258000
    -0.15069772     -0.05704611     -0.07319149
     0.00297872     -0.00472297      0.01782156
     0.00655183     -0.00669158     -0.00575243
    -0.00532088      0.00975991     -0.00824178
    -0.00494733     -0.00493084      0.00689284
    -0.00401180      0.00045179     -0.00600404
     0.01169052     -0.00130323     -0.01510977
     0.00142536     -0.00068716     -0.00175614
    -0.00666268     -0.00389252     -0.00619405
    -0.01204318     -0.00101183      0.03006703
     0.00156619      0.01237211     -0.00371601
vibration 81
    -0.02474451      0.03113448     -0.02446736
     0.00129610      0.03107074     -0.05510292
    -0.00060024      0.00018954     -0.00180866
    -0.00085535      0.00083169      0.00015629
     0.00012157     -0.00005377      0.00024076
     0.00031348     -0.00021359      0.00028236
     0.00012990     -0.00004496     -0.00003230
     0.00006477     -0.00028881     -0.00018460
     0.00047315      0.00009032      0.00006272
     0.00005497      0.00047075      0.00034709
     0.00081964      0.00069151     -0.00196714
    -0.00196443      0.00768934      0.00254687
     0.02108043      0.00684878      0.01389970
     0.00102442      0.00033589     -0.00020420
     0.00014104     -0.00031188      0.00040690
     0.29000981     -0.37541232      0.29648581
    -0.01276494     -0.37611595      0.65559970
    -0.00291571     -0.00244305     -0.00433927
     0.00573034     -0.00310123     -0.00134931
    -0.02649081     -0.04845221     -0.07184371
     0.04981660     -0.04174088      0.04427310
    -0.25049643     -0.09522749     -0.12056378
     0.00256284      0.01324218     -0.04344507
    -0.00227968      0.00246535      0.00205401
     0.00054976     -0.00150389      0.00131935
    -0.00307911     -0.00332924      0.00401581
    -0.00303798      0.00055638     -0.00451835
    -0.01710564      0.00129973      0.02405200
     0.00019989     -0.00208433     -0.00581416
     0.01745991      0.01360866      0.01630822
    -0.02333174     -0.00233490      0.05722681
     0.00143186      0.01295812     -0.00511697
vibration 82
     0.00087309     -0.00118168      0.00082173
     0.00026937      0.00988567     -0.01755810
    -0.00043397      0.00038040     -0.00052105
    -0.00014478     -0.00007347      0.00004236
     0.00003574     -0.00005401      0.00006859
     0.00019735     -0.00021665      0.00010451
     0.00002745      0.00002116     -0.00001172
     0.00003452      0.00005703      0.00001435
    -0.00009628     -0.00009322     -0.00002798
     0.00002641      0.00013812      0.00012751
     0.00233476     -0.00002084     -0.00211985
     0.03082230      0.00250222      0.04618731
    -0.03220489     -0.00113439     -0.05148703
    -0.00003824     -0.00014238      0.00004419
    -0.00010299      0.00000935      0.00001289
    -0.01165744      0.01318903     -0.01226340
    -0.00294113     -0.11898620      0.20962718
     0.00091308      0.00081062      0.00133423
     0.00151483     -0.00087382     -0.00039542
    -0.12523019     -0.23902746     -0.34152442
    -0.24388420      0.20964797     -0.20694097
     0.37470767      0.14290199      0.17754140
     0.00703709     -0.12853813      0.43528664
     0.00040092     -0.00038766     -0.00034548
    -0.00036228      0.00071537     -0.00057763
    -0.00083752     -0.00096292      0.00107224
    -0.00103116      0.00014333     -0.00157996
    -0.02039530      0.00159250      0.02963911
     0.00913658      0.00981871      0.03886737
    -0.21970420     -0.15395221     -0.20063418
     0.10812763      0.01411752     -0.26909781
     0.00474471      0.02343859      0.00468748
vibration 83
     0.00243257     -0.00308430      0.00222579
     0.00042253      0.00168958     -0.00269320
     0.00019118      0.00009269      0.00009395
     0.00000104     -0.00015295     -0.00002963
    -0.00004186     -0.00004357     -0.00006114
    -0.00001007      0.00005365      0.00003804
    -0.00002667      0.00002235      0.00002042
    -0.00000338      0.00009572      0.00004439
    -0.00005206      0.00000601      0.00002929
    -0.00030659      0.00019586      0.00009245
     0.00131321      0.00001412     -0.00114802
     0.02144658      0.00107660      0.03147464
    -0.01311509     -0.00146783     -0.01785714
    -0.00083488     -0.00035116     -0.00197654
    -0.00018901      0.00008019      0.00037116
    -0.02825265      0.03546176     -0.02862345
     0.00059705     -0.02023179      0.03621769
     0.00019407      0.00013956      0.00023410
     0.00384251     -0.00203229     -0.00077734
    -0.08376270     -0.15984848     -0.22856042
    -0.17152680      0.14696888     -0.14515768
     0.15408370      0.06126151      0.07305628
     0.00344474     -0.04359450      0.14205475
     0.00039530     -0.00042472     -0.00034626
    -0.00012811      0.00027141     -0.00023790
     0.00002655      0.00000508     -0.00020452
    -0.00005101     -0.00002407      0.00003220
    -0.01175221      0.00098114      0.01712450
    -0.01779693     -0.01754160     -0.07729022
     0.43731139      0.30268568      0.39809140
    -0.21475616     -0.02741613      0.53103133
    -0.01037072     -0.06505394     -0.00179756
vibration 84
    -0.00454263      0.00599227     -0.00445769
     0.00038838      0.00605357     -0.01065530
    -0.00017418      0.00031271     -0.00027316
    -0.00001281      0.00020146      0.00007416
     0.00001790     -0.00005603      0.00002734
     0.00015551     -0.00016425      0.00010921
    -0.00003504     -0.00003570      0.00001895
    -0.00003277     -0.00011411     -0.00004432
     0.00049715      0.00002089      0.00057888
    -0.00005487      0.00015535      0.00013445
    -0.00318665      0.00038380      0.00217482
    -0.03713116     -0.00187491     -0.05441236
    -0.03529978     -0.00224923     -0.05404900
    -0.00026448     -0.00042541     -0.00165454
     0.00031131     -0.00016833      0.00062225
     0.05608427     -0.07017033      0.05703320
    -0.00143449     -0.07256317      0.13044838
    -0.00352972     -0.00319156     -0.00534889
     0.00204160     -0.00114207     -0.00047583
     0.14413804      0.27988395      0.40078886
     0.30036305     -0.25603130      0.25085308
     0.42035432      0.15949612      0.19741183
     0.00489213     -0.13126961      0.44860125
    -0.00032541      0.00034785      0.00042844
    -0.00167943      0.00254960     -0.00204900
    -0.00050783     -0.00058290      0.00058486
    -0.00084452      0.00010237     -0.00123003
     0.02243037     -0.00227140     -0.03252401
    -0.00274585     -0.00183487     -0.01163789
     0.06809289      0.04521155      0.06114687
    -0.03205900     -0.00369343      0.07738988
    -0.00200433     -0.01833015      0.00292319
vibration 85
    -0.00026011      0.00018586     -0.00030053
     0.00004199      0.00010851     -0.00020467
    -0.00004378     -0.00003585     -0.00002246
     0.00011974     -0.00004955      0.00016919
    -0.00003368      0.00001582      0.00003671
    -0.00001419      0.00001880      0.00003873
     0.00021509     -0.00007980      0.00036734
     0.00007998     -0.00002529      0.00009875
    -0.05105470      0.01428273     -0.07673642
     0.01643993     -0.00003421     -0.00919466
    -0.00012135     -0.00001499      0.00015682
    -0.00030826      0.00006647     -0.00039341
    -0.00019153      0.00000823     -0.00037989
     0.00000845     -0.00000140     -0.00004363
    -0.00000045     -0.00000557      0.00003073
     0.00165179     -0.00150332      0.00143371
    -0.00006473     -0.00119782      0.00220893
     0.33111423      0.30627906      0.51921992
    -0.12183961      0.06425670      0.02301004
     0.00084148      0.00163628      0.00237246
     0.00278234     -0.00239099      0.00236266
     0.00233988      0.00090178      0.00108982
     0.00003093     -0.00104277      0.00352577
    -0.02092179      0.01395601     -0.00472801
     0.29298778     -0.48871238      0.39182867
    -0.06566359     -0.06482950      0.10298768
    -0.00741937      0.00095440     -0.01712476
     0.00138826      0.00007234     -0.00198982
    -0.00002052     -0.00002248     -0.00018497
     0.00087675      0.00060613      0.00077473
    -0.00060957     -0.00008013      0.00144746
    -0.00002865     -0.00026764     -0.00000919
vibration 86
    -0.00007584      0.00013513     -0.00006915
    -0.00016969     -0.00004762      0.00013237
     0.00002393      0.00021977     -0.00014775
     0.00003042     -0.00018652     -0.00002602
     0.00024686     -0.00005345     -0.00009828
     0.00011898     -0.00016347     -0.00010262
     0.00002480      0.00001632      0.00009101
     0.00005122      0.00013311      0.00008634
    -0.01038203      0.00300801     -0.01547031
    -0.08095897     -0.00006960      0.04599052
    -0.00003272     -0.00000155     -0.00001688
    -0.00009136      0.00001306     -0.00011896
    -0.00000088     -0.00001174      0.00004061
    -0.00000849     -0.00001373      0.00001227
     0.00002153     -0.00000541     -0.00000348
     0.00072387     -0.00077616      0.00063190
     0.00003482     -0.00014171     -0.00018916
     0.06669730      0.06166803      0.10450704
     0.60013923     -0.31638305     -0.11321178
     0.00032646      0.00057870      0.00077485
     0.00082749     -0.00073279      0.00070320
     0.00001099     -0.00001512      0.00000029
    -0.00002335      0.00017825     -0.00052582
    -0.00348488      0.00213101     -0.00158075
     0.05954443     -0.09931283      0.07965582
     0.32590787      0.32202854     -0.51136928
     0.03326355     -0.00435473      0.07993375
     0.00008266      0.00002582     -0.00005850
    -0.00001630     -0.00005978      0.00027784
    -0.00083112     -0.00065461     -0.00077170
     0.00093036      0.00015112     -0.00226836
     0.00013181      0.00121955     -0.00020376
vibration 87
     0.00076972     -0.00061837      0.00100240
    -0.00020294     -0.00003546      0.00150135
    -0.00002506      0.00011631      0.00007588
     0.00052557     -0.00026062     -0.00093646
    -0.00001629     -0.00005010     -0.00003423
     0.00000094     -0.00004728     -0.00000194
     0.00009727      0.00032471      0.00039417
    -0.00010620      0.00000574      0.00016103
    -0.00008565     -0.00054676     -0.00026321
    -0.00052648      0.00041331     -0.00101598
     0.04747563     -0.00337940     -0.07172645
    -0.00227422     -0.00435988     -0.00477083
    -0.00163209     -0.00083914      0.00070489
    -0.00107086      0.00044665      0.00084063
     0.00035633     -0.00024993      0.00014656
    -0.00804247      0.00896253     -0.00906879
     0.00020626      0.00592771     -0.01094025
     0.00328308      0.00274719      0.00432648
     0.00314918     -0.00165075     -0.00087529
     0.02413704      0.04592183      0.06121128
     0.00013137      0.00242339     -0.00258901
     0.01112311      0.00435832      0.00555074
    -0.00054231      0.00276969     -0.00811958
    -0.00194632      0.00179210      0.00163703
    -0.00123528      0.00200508     -0.00188077
    -0.00290348     -0.00254550      0.00400141
     0.00601734     -0.00064510      0.00891029
    -0.55061008      0.03663554      0.82503081
     0.00007216      0.00048307     -0.00019363
     0.00033751     -0.00000503      0.00001569
    -0.00014397     -0.00003646      0.00095766
    -0.00052895     -0.00622936      0.00167399
vibration 88
    -0.00004975      0.00004315     -0.00005776
     0.00005455     -0.00000441     -0.00000559
    -0.00028608      0.00118465     -0.00011870
    -0.00005730      0.00008124      0.00004822
     0.00024715     -0.00003707      0.00026324
     0.00018024     -0.00049230      0.00015092
     0.00003177     -0.00001996     -0.00002679
     0.00003189     -0.00007037     -0.00002875
     0.00007351     -0.00027827     -0.00026332
    -0.04440572      0.02755953     -0.07902832
    -0.00060836      0.00005288      0.00092034
    -0.00000175      0.00008951      0.00004229
     0.00002115      0.00002181     -0.00004411
     0.00000836      0.00001711      0.00000088
    -0.00000034     -0.00000737     -0.00000609
     0.00056300     -0.00075847      0.00054459
    -0.00004720     -0.00066254      0.00047845
     0.00117914      0.00099047      0.00173751
     0.23025474     -0.11552199     -0.06488290
    -0.00036540     -0.00068206     -0.00092544
     0.00039653     -0.00035944      0.00036526
    -0.00015714     -0.00006570     -0.00009378
     0.00001803     -0.00013059      0.00046161
    -0.00197946      0.00196577      0.00171599
    -0.00018863      0.00032302     -0.00033126
    -0.19884395     -0.16815952      0.26980379
     0.49297488     -0.04905390      0.73089299
     0.00705436     -0.00047831     -0.01062102
    -0.00006697     -0.00032019      0.00017830
    -0.00009336     -0.00016564     -0.00003681
     0.00046940      0.00004380     -0.00114822
     0.00057267      0.00395543     -0.00092502
vibration 89
    -0.00002419     -0.00003082     -0.00008449
     0.00000753      0.00002256     -0.00002508
     0.00003672      0.00002494     -0.00001671
     0.00054584      0.00112805     -0.00014084
    -0.00000752     -0.00000493      0.00000838
    -0.00001463     -0.00000782      0.00000643
     0.00014814     -0.00031165     -0.00015500
    -0.00013379     -0.00052805     -0.00002258
    -0.04396175      0.07232324      0.04241527
    -0.00004547      0.00009207     -0.00038455
     0.00025852     -0.00001292     -0.00037111
    -0.00001801      0.00002779      0.00000013
     0.00001990      0.00000725      0.00001953
     0.00000764      0.00000496      0.00001290
    -0.00000521     -0.00000930     -0.00000646
     0.00034247     -0.00087497      0.00064894
    -0.00002152     -0.00020617      0.00029102
    -0.15558564     -0.11414867     -0.22317361
    -0.00021782      0.00010434     -0.00001938
    -0.00017742     -0.00024711     -0.00031955
     0.00025300     -0.00017579      0.00023894
    -0.00031978     -0.00013390     -0.00016470
     0.00001048      0.00002565     -0.00005257
     0.53990191     -0.53627468     -0.47398791
     0.13240565     -0.20956671      0.19680490
    -0.00111135     -0.00108892      0.00161412
     0.00195512     -0.00020422      0.00284737
    -0.00321794      0.00025635      0.00470088
    -0.00006094     -0.00024837      0.00010364
     0.00016140      0.00009374      0.00019445
     0.00025528     -0.00000279     -0.00065096
     0.00035224      0.00289268     -0.00075856
vibration 90
     0.00009225     -0.00005701      0.00005895
     0.00019566     -0.00018903      0.00028729
     0.00010426     -0.00002381      0.00020634
     0.00001443     -0.00002938     -0.00001607
     0.00001368     -0.00000419     -0.00006409
    -0.00063625     -0.00038413     -0.00029536
    -0.00000574      0.00000824      0.00000480
    -0.00000699      0.00001482      0.00000871
     0.00013955     -0.00021830     -0.00012555
     0.00028891     -0.00012239      0.00024563
     0.00039783     -0.00006355     -0.00042933
    -0.00003344     -0.00005671      0.00003600
    -0.00097771      0.00029771     -0.00088122
    -0.00070683     -0.00120760      0.00040357
     0.00006901      0.00014259     -0.00011883
    -0.00071255      0.00082991     -0.00072950
    -0.00051638      0.00177818     -0.00360170
     0.00044349      0.00031818      0.00062848
    -0.00186303      0.00092881      0.00042766
     0.00049017      0.00061972      0.00080609
    -0.00059274      0.00085099     -0.00088095
     0.01025005      0.00536806      0.00515433
     0.00019685     -0.00177986      0.00587981
    -0.00165225      0.00164411      0.00145273
    -0.00042001      0.00067343     -0.00062632
     0.00044490      0.00032882     -0.00043975
    -0.00195337      0.00021547     -0.00295138
    -0.00337678      0.00035452      0.00492837
    -0.02578708     -0.08355401      0.02271039
     0.15929561      0.10446237      0.15859838
     0.06549756     -0.00512678     -0.18182570
     0.09627252      0.90681170     -0.24729903
[INT]
    0.626012
    0.101277
    2.258013
    2.881981
    0.573936
    0.850328
    0.537464
    0.129428
    0.203011
    1.273840
    3.996021
    1.998368
    3.026302
    5.364618
   13.012375
    2.588550
   12.959585
    3.010566
    8.851741
   10.468160
   18.833231
    7.037852
   10.846810
    1.966552
    6.950489
    4.739288
    9.185922
    6.874677
   17.971998
    5.089183
    6.185915
    5.979621
    8.624691
    5.208139
    9.022066
   12.326824
    8.726837
    9.102185
   45.466873
   19.330251
   24.542173
   52.266371
   22.813960
   46.291470
   43.922941
    1.909688
  242.847243
  193.386833
   12.684200
    8.114852
   24.256091
  112.206813
  174.775513
    6.319526
    2.753092
   11.522914
   17.262539
   14.754416
   11.888999
   60.138332
   58.225168
   17.807552
   18.407720
   10.221530
    2.314021
    7.318620
   10.188855
    4.395901
    9.210896
   10.129609
   10.869437
    7.103360
  149.852392
  309.948420
   17.460620
   38.010795
   36.409726
   27.667831
   30.953254
   12.467218
    9.836032
    2.605694
   13.896413
   49.398701
   16.453739
   15.985167
   14.949015
   15.889282
   13.366782
    1.589503

======= END OF MOLDEN-FORMATTED INPUT FILE =======


        *************************************************************
        *                                                           *
        *  Thank you very much for using Q-Chem.  Have a nice day.  *
        *                                                           *
        *************************************************************


