r0240.ten.osc.edu 10.25.157
Q-Chem Developer Version! Running on 10.25.157.*
                  Welcome to Q-Chem
     A Quantum Leap Into The Future Of Chemistry


 Q-Chem 5.0, Q-Chem, Inc., Pleasanton, CA (2017)

 Yihan Shao,  Zhengting Gan,  E. Epifanovsky,  A. T. B. Gilbert,  M. Wormit,  
 J. Kussmann,  A. W. Lange,  A. Behn,  Jia Deng,  Xintian Feng,  D. Ghosh,  
 M. Goldey,  P. R. Horn,  L. D. Jacobson,  I. Kaliman,  T. Kus,  A. Landau,  
 Jie Liu,  E. I. Proynov,  R. M. Richard,  R. P. Steele,  E. J. Sundstrom,  
 H. L. Woodcock III,  P. M. Zimmerman,  D. Zuev,  B. Albrecht,  E. Alguire,  
 S. A. Baeppler,  Z. Benda,  Y. A. Bernard,  E. J. Berquist,  K. B. Bravaya,  
 D. Casanova,  Chun-Min Chang,  Yunqing Chen,  A. Chien,  K. D. Closser,  
 M. P. Coons,  S. Dasgupta,  M. Diedenhofen,  Hainam Do,  R. G. Edgar,  
 Po-Tung Fang,  S. Fatehi,  Qingguo Feng,  Qinghui Ge,  A. Ghysels,  
 J. Gomes,  J. Gonthier,  A. Gunina,  M. W. D. Hanson-Heine,  
 P. H. P. Harbach,  A. W. Hauser,  J. E. Herr,  E. G. Hohenstein,  
 Z. C. Holden,  Kerwin Hui,  T.-C. Jagau,  Hyunjun Ji,  B. Kaduk,  
 K. Khistyaev,  Jaehoon Kim,  P. Klunzinger,  K. Koh,  D. Kosenkov,  
 T. Kowalczyk,  C. M. Krauter,  A. Kunitsa,  Ka Un Lao,  A. Laurent,  
 K. V. Lawler,  Joonho Lee,  D. Lefrancois,  S. Lehtola,  D. S. Levine,  
 Yi-Pei Li,  You-Sheng Lin,  Fenglai Liu,  E. Livshits,  A. Luenser,  
 P. Manohar,  E. Mansoor,  S. F. Manzer,  Shan-Ping Mao,  Yuezhi Mao,  
 N. Mardirossian,  A. V. Marenich,  L. A. Martinez-Martinez,  S. A. Maurer,  
 N. J. Mayhall,  S. C. McKenzie,  J.-M. Mewes,  A. F. Morrison,  K. Nanda,  
 T. S. Nguyen-Beck,  R. Olivares-Amaya,  J. A. Parkhill,  T. M. Perrine,  
 F. Plasser,  S. Prager,  A. Prociuk,  D. R. Rehn,  F. Rob,  M. Schneider,  
 N. Sergueev,  S. M. Sharada,  S. Sharma,  D. W. Small,  T. Stauch,  
 T. Stein,  Yu-Chuan Su,  A. J. W. Thom,  T. Tsuchimochi,  L. Vogt,  
 O. Vydrov,  M. A. Watson,  J. Wenzel,  M. de Wergifosse,  T. A. Wesolowski,  
 A. White,  J. Witte,  A. Yamada,  Jun Yang,  K. Yao,  S. Yeganeh,  
 S. R. Yost,  Zhi-Qiang You,  A. Zech,  Igor Ying Zhang,  Xing Zhang,  
 Yan Zhao,  Ying Zhu,  B. R. Brooks,  G. K. L. Chan,  C. J. Cramer,  
 M. S. Gordon,  W. J. Hehre,  A. Klamt,  M. W. Schmidt,  C. D. Sherrill,  
 D. G. Truhlar,  A. Aspuru-Guzik,  R. Baer,  A. T. Bell,  N. A. Besley,  
 Jeng-Da Chai,  A. Dreuw,  B. D. Dunietz,  T. R. Furlani,  Chao-Ping Hsu,  
 Yousung Jung,  Jing Kong,  D. S. Lambrecht,  WanZhen Liang,  C. Ochsenfeld,  
 V. A. Rassolov,  L. V. Slipchenko,  J. E. Subotnik,  T. Van Voorhis,  
 J. M. Herbert,  A. I. Krylov,  P. M. W. Gill,  M. Head-Gordon

 Contributors to earlier versions of Q-Chem not listed above: 
 R. D. Adamson,  B. Austin,  J. Baker,  G. J. O. Beran,  K. Brandhorst,  
 S. T. Brown,  E. F. C. Byrd,  A. K. Chakraborty,  C.-L. Cheng,  
 Siu Hung Chien,  D. M. Chipman,  D. L. Crittenden,  H. Dachsel,  
 R. A. DiStasio Jr.,  R. J. Doerksen,  A. D. Dutoi,  L. Fusti-Molnar,  
 W. A. Goddard III,  A. Golubeva-Zadorozhnaya,  S. R. Gwaltney,  G. Hawkins,  
 A. Heyden,  S. Hirata,  G. Kedziora,  F. J. Keil,  C. Kelley,  Jihan Kim,  
 R. A. King,  R. Z. Khaliullin,  P. P. Korambath,  W. Kurlancheek,  
 A. M. Lee,  M. S. Lee,  S. V. Levchenko,  Ching Yeh Lin,  D. Liotard,  
 R. C. Lochan,  I. Lotan,  P. E. Maslen,  N. Nair,  D. P. O'Neill,  
 D. Neuhauser,  E. Neuscamman,  C. M. Oana,  R. Olson,  B. Peters,  
 R. Peverati,  P. A. Pieniazek,  Y. M. Rhee,  J. Ritchie,  M. A. Rohrdanz,  
 E. Rosta,  N. J. Russ,  H. F. Schaefer III,  N. E. Schultz,  N. Shenvi,  
 A. C. Simmonett,  A. Sodt,  D. Stuck,  K. S. Thanthiriwatte,  V. Vanovschi,  
 Tao Wang,  A. Warshel,  C. F. Williams,  Q. Wu,  X. Xu,  W. Zhang

 Please cite Q-Chem as follows:
 Y. Shao et al., Mol. Phys. 113, 184-215 (2015)
 DOI: 10.1080/00268976.2014.952696

 Q-Chem 5.0.1 for Intel X86 EM64T Linux

 Parts of Q-Chem use Armadillo 5.200.1 (Boston Tea Smuggler).
 http://arma.sourceforge.net/

 Q-Chem begins on Tue Oct 17 15:01:55 2017  

Host: r0240.ten.osc.edu
0

     Scratch files written to /tmp/pbstmp.1311793/3//
Processing $rem in /users/PAS0291/osu6415/.qchemrc.
molden_format             true

Checking the input file for inconsistencies... 	...done.

--------------------------------------------------------------
User input:
--------------------------------------------------------------
$molecule
0 1
  C      1.13316797     -2.45623585      0.30792141
  C      0.16579947     -1.88075003      1.40044590
  C      0.23419104     -0.37974680      1.58658888
  C      2.16630111     -1.45552961     -0.18407275
  O      0.04283647     -0.05829890      2.88455063
  O      0.38261842      0.43909951      0.71419111
  O      2.04280665     -1.16504129     -1.48651243
  O      3.03624082     -1.01341787      0.52866059
  C      2.94204311     -0.16308233     -1.99666493
  C      0.03625271      1.34975004      3.18679496
  C      0.12757807     -3.02080729     -0.72790993
  C     -0.43430545     -4.35539199     -0.19633653
  C     -1.35076838     -3.84695163      0.95246665
  C     -1.22887407     -2.30460586      0.80122201
  O     -1.00032046     -2.14455926     -0.60732956
  H      1.72462268     -3.25832224      0.75567522
  H      0.32861749     -2.34752170      2.37006932
  H      3.97849341     -0.48187277     -1.87672824
  H     -0.78141171      1.84806241      2.66314921
  H     -1.01606326     -4.85183896     -0.97431766
  H      0.34595887     -5.04277542      0.13694307
  H     -2.38798935     -4.15199508      0.80235324
  H     -1.04069265     -4.19050479      1.94144863
  H      2.68952030     -0.05853548     -3.04945856
  H      2.78426119      0.77705961     -1.46715221
  H      0.98296528      1.80346531      2.89131392
  H     -0.10249750      1.41404592      4.26362902
  H      0.48299433     -3.02373940     -1.75342082
  C     -2.43316019     -1.50544519      1.24602229
  H     -3.32872278     -1.87884432      0.74497892
  H     -2.57406418     -1.59554821      2.32578396
  H     -2.31493939     -0.44989052      0.99379463
$end

$rem
sym_ignore      true
jobtype         opt
method          b3lyp
basis           6-311++G(d,p)
dft_d           d3_op
mem_total       62000
MEM_STATIC      4000
ao2mo_disk      350000
max_scf_cycles  200
geom_opt_max_cycles 1000
geom_opt_tol_displacement 1
GEOM_OPT_TOL_GRADIENT       1
GEOM_OPT_TOL_ENERGY         1
geom_opt_dmax    50
$end

--------------------------------------------------------------
 Adding empirical dispersion correction 
 ----------------------------------------------------------------
 Doing -D3(op) with
 s6 =   1.00000
 s8 =   0.78311
 a1 =   0.30000
 a2 =   4.25000
 n  =  10.00000
 -D3 energy without 3body term =     -0.0358438293 hartrees
 ----------------------------------------------------------------
             Standard Nuclear Orientation (Angstroms)
    I     Atom           X                Y                Z
 ----------------------------------------------------------------
    1      C       1.1331679700    -2.4562358500     0.3079214100
    2      C       0.1657994700    -1.8807500300     1.4004459000
    3      C       0.2341910400    -0.3797468000     1.5865888800
    4      C       2.1663011100    -1.4555296100    -0.1840727500
    5      O       0.0428364700    -0.0582989000     2.8845506300
    6      O       0.3826184200     0.4390995100     0.7141911100
    7      O       2.0428066500    -1.1650412900    -1.4865124300
    8      O       3.0362408200    -1.0134178700     0.5286605900
    9      C       2.9420431100    -0.1630823300    -1.9966649300
   10      C       0.0362527100     1.3497500400     3.1867949600
   11      C       0.1275780700    -3.0208072900    -0.7279099300
   12      C      -0.4343054500    -4.3553919900    -0.1963365300
   13      C      -1.3507683800    -3.8469516300     0.9524666500
   14      C      -1.2288740700    -2.3046058600     0.8012220100
   15      O      -1.0003204600    -2.1445592600    -0.6073295600
   16      H       1.7246226800    -3.2583222400     0.7556752200
   17      H       0.3286174900    -2.3475217000     2.3700693200
   18      H       3.9784934100    -0.4818727700    -1.8767282400
   19      H      -0.7814117100     1.8480624100     2.6631492100
   20      H      -1.0160632600    -4.8518389600    -0.9743176600
   21      H       0.3459588700    -5.0427754200     0.1369430700
   22      H      -2.3879893500    -4.1519950800     0.8023532400
   23      H      -1.0406926500    -4.1905047900     1.9414486300
   24      H       2.6895203000    -0.0585354800    -3.0494585600
   25      H       2.7842611900     0.7770596100    -1.4671522100
   26      H       0.9829652800     1.8034653100     2.8913139200
   27      H      -0.1024975000     1.4140459200     4.2636290200
   28      H       0.4829943300    -3.0237394000    -1.7534208200
   29      C      -2.4331601900    -1.5054451900     1.2460222900
   30      H      -3.3287227800    -1.8788443200     0.7449789200
   31      H      -2.5740641800    -1.5955482100     2.3257839600
   32      H      -2.3149393900    -0.4498905200     0.9937946300
 ----------------------------------------------------------------
 Nuclear Repulsion Energy =  1251.0962922627 hartrees
 There are       61 alpha and       61 beta electrons
 Requested basis set is 6-311++G(d,p)
 There are 176 shells and 464 basis functions

 Total QAlloc Memory Limit  62000 MB
 Mega-Array Size      3911 MB
 MEM_STATIC part      4000 MB
 A cutoff of  1.0D-11 yielded  12683 shell pairs
 There are     89914 function pairs (     95899 Cartesian)
 
 -------------------------------------------------------
 OpenMP Integral Computing Module                       
 Release: version 1.0, May 2013, Q-Chem Inc. Pittsburgh 
 -------------------------------------------------------
 Integral Job Info:
 Integral job number is                      11
 Integral operator is                         1
 short-range coefficients                     0
 long-range coefficients              100000000
 Omega coefficients                           0
 if combine SR and LR in K                    0
 Integral screening is                        0
 Integral computing path is                   2
 max size of driver memory is            800000
 size of driver memory is                593474
 size of scratch memory is              2361544
 max col of scratch BK array               1296
 max len of scratch array in speh3          155
 max len of scratch index in speh4           18
 max int batch size is                      520
 min int batch size is                       52
 fixed nKL is                                52
 max L of basis functions is                  2
 order of int derivative is                   0
 number of shells is                        176
 number of basis is                         480
 number of cartesian basis is               480
 number of contracted shell pairs         12683
 number of primitive shell pairs          28286
 maxK2 (contraction) of shell pair           36
 max number of K2 of shell pair               1
 max number of CS2 of shell pair           2385
 max number of PS2 of shell pair           4080
 mem total for path MDJ                  160568
 -------------------------------------------------------
 Smallest overlap matrix eigenvalue = 6.45E-07

 Q-Chem warning in module /fs/scratch/osu6415/qchem-kaunlao-vdw/stvman/mkSTV.C, line 281:

 Overlap eigenvalue is smaller than square root of threshold

 Linear dependence detected in AO basis
 Number of orthogonalized atomic orbitals = 463
 Maximum deviation from orthogonality = 9.676E-11

 Scale SEOQF with 1.000000e-01/1.000000e-01/1.000000e-01

 Standard Electronic Orientation quadrupole field applied
 Nucleus-field energy     =     0.0000000203 hartrees
 Guess from superposition of atomic densities
 Warning:  Energy on first SCF cycle will be non-variational
 A restricted hybrid HF-DFT SCF calculation will be
 performed using Pulay DIIS extrapolation
 Exchange:     0.2000 Hartree-Fock + 0.0800 Slater + 0.7200 B88
 Correlation:  0.1900 VWN1RPA + 0.8100 LYP
 Using SG-1 standard quadrature grid
 Dispersion:   Grimme D3
 SCF converges when DIIS error is below 1.0E-08
 using 20 threads for integral computing
 -------------------------------------------------------
 OpenMP Integral computing Module                
 Release: version 1.0, May 2013, Q-Chem Inc. Pittsburgh 
 -------------------------------------------------------
 -------------------------------------------------------
 OpenMP BLAS3 based DFT computing Module                
 Release: version 1.0, May 2013, Q-Chem Inc. Pittsburgh 
 -------------------------------------------------------
 ---------------------------------------
  Cycle       Energy         DIIS Error
 ---------------------------------------
    1    -808.4505786500      2.94E-02
    2    -804.8737273193      3.81E-03
    3    -804.3906824013      6.28E-03
    4    -805.1542550594      1.41E-03
    5    -805.1943226382      3.72E-04
    6    -805.1965468967      1.51E-04
    7    -805.1969824861      3.63E-05
    8    -805.1970070030      1.18E-05
    9    -805.1970098272      3.58E-06
   10    -805.1970100157      1.80E-06
   11    -805.1970100794      3.92E-07
   12    -805.1970100824      1.53E-07
   13    -805.1970100827      3.81E-08
   14    -805.1970100832      1.45E-08
   15    -805.1970100857      3.72E-09 Convergence criterion met
 ---------------------------------------
 SCF time:  CPU 938.81 s  wall 50.00 s
 SCF   energy in the final basis set = -805.19701009
 Total energy in the final basis set = -805.19701009
 
 --------------------------------------------------------------
 
                    Orbital Energies (a.u.)
 --------------------------------------------------------------
 
 Alpha MOs
 -- Occupied --
-19.174 -19.169 -19.128 -19.115 -19.108 -10.304 -10.302 -10.245
-10.229 -10.228 -10.222 -10.203 -10.202 -10.180 -10.179 -10.170
 -1.115  -1.109  -1.062  -1.028  -1.021  -0.829  -0.795  -0.781
 -0.745  -0.725  -0.692  -0.651  -0.603  -0.592  -0.565  -0.560
 -0.527  -0.512  -0.506  -0.490  -0.489  -0.483  -0.476  -0.469
 -0.457  -0.439  -0.432  -0.423  -0.412  -0.400  -0.391  -0.383
 -0.377  -0.370  -0.364  -0.361  -0.354  -0.352  -0.334  -0.332
 -0.316  -0.306  -0.290  -0.277  -0.268
 -- Virtual --
 -0.018  -0.010  -0.002   0.002   0.007   0.010   0.013   0.022
  0.027   0.032   0.035   0.039   0.044   0.048   0.050   0.057
  0.062   0.066   0.072   0.077   0.080   0.085   0.090   0.098
  0.101   0.104   0.105   0.111   0.114   0.115   0.118   0.122
  0.128   0.130   0.132   0.134   0.136   0.139   0.140   0.145
  0.146   0.150   0.151   0.155   0.157   0.161   0.165   0.170
  0.171   0.172   0.176   0.178   0.183   0.186   0.189   0.191
  0.194   0.201   0.205   0.209   0.215   0.216   0.219   0.221
  0.230   0.233   0.237   0.242   0.251   0.251   0.259   0.264
  0.271   0.275   0.281   0.287   0.289   0.294   0.296   0.301
  0.312   0.316   0.318   0.324   0.327   0.331   0.333   0.338
  0.345   0.352   0.356   0.360   0.363   0.365   0.368   0.374
  0.377   0.384   0.387   0.390   0.393   0.399   0.408   0.417
  0.421   0.426   0.428   0.437   0.451   0.455   0.463   0.475
  0.489   0.499   0.503   0.519   0.521   0.529   0.534   0.547
  0.554   0.559   0.575   0.587   0.595   0.606   0.615   0.624
  0.633   0.636   0.643   0.647   0.656   0.661   0.665   0.672
  0.675   0.680   0.686   0.692   0.701   0.709   0.713   0.717
  0.720   0.724   0.731   0.746   0.755   0.760   0.763   0.776
  0.779   0.788   0.793   0.797   0.806   0.818   0.831   0.834
  0.856   0.909   0.922   0.926   0.950   0.996   1.000   1.014
  1.027   1.047   1.053   1.073   1.083   1.092   1.097   1.120
  1.135   1.154   1.182   1.198   1.201   1.215   1.219   1.229
  1.249   1.257   1.265   1.284   1.296   1.304   1.312   1.325
  1.334   1.351   1.364   1.375   1.386   1.390   1.402   1.421
  1.439   1.441   1.449   1.458   1.468   1.482   1.506   1.512
  1.521   1.546   1.550   1.556   1.559   1.571   1.575   1.584
  1.586   1.594   1.611   1.621   1.627   1.635   1.649   1.667
  1.672   1.689   1.701   1.704   1.710   1.715   1.724   1.726
  1.735   1.737   1.770   1.773   1.785   1.796   1.814   1.818
  1.832   1.840   1.847   1.861   1.867   1.885   1.903   1.914
  1.926   1.948   1.971   1.981   1.998   2.005   2.013   2.027
  2.041   2.070   2.091   2.106   2.113   2.118   2.126   2.129
  2.142   2.159   2.167   2.189   2.210   2.214   2.223   2.255
  2.263   2.321   2.330   2.366   2.402   2.427   2.444   2.452
  2.459   2.469   2.492   2.500   2.510   2.515   2.522   2.526
  2.534   2.539   2.550   2.567   2.583   2.594   2.611   2.634
  2.646   2.653   2.673   2.690   2.710   2.724   2.749   2.769
  2.807   2.817   2.834   2.845   2.853   2.856   2.868   2.881
  2.889   2.907   2.930   2.933   2.940   2.992   3.007   3.021
  3.035   3.048   3.054   3.070   3.075   3.094   3.102   3.112
  3.132   3.153   3.173   3.183   3.195   3.216   3.234   3.252
  3.273   3.298   3.321   3.363   3.382   3.394   3.408   3.446
  3.583   3.608   3.616   3.660   3.688   3.728   3.778   3.788
  3.823   3.828   3.845   3.858   3.933   3.964   4.028   4.040
  4.067   4.115   4.124   4.129   4.155   4.165   4.223   4.258
  4.280   4.433   4.494   5.046   5.069   5.130   5.156   5.227
  5.251   5.316   5.396   5.417   5.509   5.628   5.638   5.666
  5.879   5.907  23.783  23.850  23.858  23.883  23.901  23.933
 23.938  23.946  23.977  23.982  24.047  49.911  49.927  49.982
 50.041  50.050
 --------------------------------------------------------------
 
          Ground-State Mulliken Net Atomic Charges

     Atom                 Charge (a.u.)
  ----------------------------------------
      1 C                     0.309389
      2 C                     0.279932
      3 C                    -0.856373
      4 C                    -0.716400
      5 O                     0.011326
      6 O                    -0.153959
      7 O                    -0.001162
      8 O                    -0.190987
      9 C                    -0.194205
     10 C                    -0.217851
     11 C                     0.021196
     12 C                    -0.580266
     13 C                    -0.281861
     14 C                    -0.006032
     15 O                    -0.067097
     16 H                     0.247509
     17 H                     0.303495
     18 H                     0.166653
     19 H                     0.173484
     20 H                     0.183194
     21 H                     0.122396
     22 H                     0.167269
     23 H                     0.143828
     24 H                     0.149703
     25 H                     0.187362
     26 H                     0.182171
     27 H                     0.150529
     28 H                     0.303525
     29 C                    -0.384891
     30 H                     0.175748
     31 H                     0.161842
     32 H                     0.210536
  ----------------------------------------
  Sum of atomic charges =    -0.000000

 -----------------------------------------------------------------
                    Cartesian Multipole Moments
 -----------------------------------------------------------------
    Charge (ESU x 10^10)
                -0.0000
    Dipole Moment (Debye)
         X      -1.0839      Y      -1.4322      Z       0.9585
       Tot       2.0359
    Quadrupole Moments (Debye-Ang)
        XX     -98.2847     XY       1.2534     YY     -82.5153
        XZ      -9.5755     YZ       1.1854     ZZ     -88.2664
    Octopole Moments (Debye-Ang^2)
       XXX    -116.6917    XXY     147.9731    XYY     -27.9133
       YYY     392.1769    XXZ     -74.1317    XYZ       4.3956
       YYZ     -39.0374    XZZ     -22.8850    YZZ     157.5348
       ZZZ    -149.2608
    Hexadecapole Moments (Debye-Ang^3)
      XXXX   -1668.7377   XXXY     -52.7654   XXYY    -728.3632
      XYYY    -110.7747   YYYY   -2736.9534   XXXZ     145.1273
      XXYZ       9.2775   XYYZ      81.1974   YYYZ      12.4580
      XXZZ    -496.2286   XYZZ     -26.6355   YYZZ    -684.0625
      XZZZ     210.6051   YZZZ      65.8871   ZZZZ   -1377.2225
 -----------------------------------------------------------------
 Calculating analytic gradient of the SCF energy
 Gradient of SCF Energy
            1           2           3           4           5           6
    1  -0.0000059  -0.0000049   0.0000008   0.0000021   0.0000141   0.0000120
    2  -0.0000058   0.0000055   0.0000016  -0.0000141   0.0000051   0.0000010
    3   0.0000013   0.0000056   0.0000029  -0.0000050  -0.0000040  -0.0000084
            7           8           9          10          11          12
    1   0.0000019   0.0000040   0.0000053   0.0000152  -0.0000084  -0.0000202
    2  -0.0000168  -0.0000159  -0.0000229   0.0000073  -0.0000041   0.0000012
    3  -0.0000036  -0.0000003  -0.0000010  -0.0000095   0.0000051   0.0000060
           13          14          15          16          17          18
    1  -0.0000105  -0.0000034  -0.0000027  -0.0000102  -0.0000048   0.0000060
    2   0.0000106   0.0000050   0.0000072  -0.0000071   0.0000020  -0.0000302
    3   0.0000084  -0.0000061   0.0000018   0.0000037   0.0000029  -0.0000045
           19          20          21          22          23          24
    1   0.0000221  -0.0000207  -0.0000210  -0.0000157  -0.0000155   0.0000066
    2   0.0000103   0.0000020  -0.0000018   0.0000167   0.0000095  -0.0000247
    3  -0.0000094   0.0000093   0.0000094   0.0000072   0.0000075  -0.0000045
           25          26          27          28          29          30
    1   0.0000132   0.0000225   0.0000189  -0.0000106   0.0000025  -0.0000026
    2  -0.0000210   0.0000005   0.0000098  -0.0000070   0.0000181   0.0000204
    3  -0.0000061  -0.0000081  -0.0000073   0.0000034   0.0000009   0.0000041
           31          32
    1   0.0000010   0.0000090
    2   0.0000216   0.0000160
    3   0.0000016  -0.0000033
 Max gradient component =       3.018E-05
 RMS gradient           =       1.089E-05
 Gradient time:  CPU 309.54 s  wall 22.40 s
 Geometry Optimization Parameters
   NAtoms,    NIC,     NZ,  NCons,   NDum,   NFix, NCnnct, MaxDiis
       32     251       0       0       0       0       0       0


** GEOMETRY OPTIMIZATION IN DELOCALIZED INTERNAL COORDINATES **
   Searching for a Minimum

   Optimization Cycle:   1

                       Coordinates (Angstroms)
     ATOM                X               Y               Z
      1  C         1.1331679700   -2.4562358500    0.3079214100
      2  C         0.1657994700   -1.8807500300    1.4004459000
      3  C         0.2341910400   -0.3797468000    1.5865888800
      4  C         2.1663011100   -1.4555296100   -0.1840727500
      5  O         0.0428364700   -0.0582989000    2.8845506300
      6  O         0.3826184200    0.4390995100    0.7141911100
      7  O         2.0428066500   -1.1650412900   -1.4865124300
      8  O         3.0362408200   -1.0134178700    0.5286605900
      9  C         2.9420431100   -0.1630823300   -1.9966649300
     10  C         0.0362527100    1.3497500400    3.1867949600
     11  C         0.1275780700   -3.0208072900   -0.7279099300
     12  C        -0.4343054500   -4.3553919900   -0.1963365300
     13  C        -1.3507683800   -3.8469516300    0.9524666500
     14  C        -1.2288740700   -2.3046058600    0.8012220100
     15  O        -1.0003204600   -2.1445592600   -0.6073295600
     16  H         1.7246226800   -3.2583222400    0.7556752200
     17  H         0.3286174900   -2.3475217000    2.3700693200
     18  H         3.9784934100   -0.4818727700   -1.8767282400
     19  H        -0.7814117100    1.8480624100    2.6631492100
     20  H        -1.0160632600   -4.8518389600   -0.9743176600
     21  H         0.3459588700   -5.0427754200    0.1369430700
     22  H        -2.3879893500   -4.1519950800    0.8023532400
     23  H        -1.0406926500   -4.1905047900    1.9414486300
     24  H         2.6895203000   -0.0585354800   -3.0494585600
     25  H         2.7842611900    0.7770596100   -1.4671522100
     26  H         0.9829652800    1.8034653100    2.8913139200
     27  H        -0.1024975000    1.4140459200    4.2636290200
     28  H         0.4829943300   -3.0237394000   -1.7534208200
     29  C        -2.4331601900   -1.5054451900    1.2460222900
     30  H        -3.3287227800   -1.8788443200    0.7449789200
     31  H        -2.5740641800   -1.5955482100    2.3257839600
     32  H        -2.3149393900   -0.4498905200    0.9937946300
   Point Group: c1    Number of degrees of freedom:    90


   Energy is   -805.197010086


 Attempting to Generate Delocalized Internal Coordinates

 90 Hessian modes will be used to form the next step
  Hessian Eigenvalues:
     0.003030    0.006514    0.007102    0.007321    0.007562    0.010336
     0.010391    0.010929    0.010953    0.022154    0.022633    0.023563
     0.026147    0.033324    0.036166    0.038602    0.041343    0.045240
     0.048438    0.050302    0.052012    0.054664    0.055613    0.057273
     0.058345    0.059603    0.063586    0.064712    0.065746    0.074716
     0.080595    0.091918    0.099034    0.101376    0.101655    0.103105
     0.105984    0.106298    0.120292    0.122970    0.153114    0.160000
     0.160000    0.160000    0.160000    0.160000    0.160000    0.160000
     0.160000    0.160000    0.173484    0.231100    0.237550    0.249536
     0.249809    0.249844    0.250000    0.250000    0.250000    0.250000
     0.255033    0.267611    0.278167    0.303528    0.309473    0.311284
     0.337931    0.345096    0.345207    0.345804    0.345867    0.345932
     0.346179    0.346377    0.346544    0.346994    0.347039    0.347422
     0.347573    0.348228    0.350014    0.350808    0.350870    0.353546
     0.395665    0.396234    0.548524    0.571729    1.007099    1.020294

 Minimum Search - Taking Simple RFO Step
 Searching for Lamda that Minimizes Along All modes
 Value Taken    Lamda =   0.00000000
 Step Taken.  Stepsize is  0.000711

                             Maximum     Tolerance    Cnvgd?
         Gradient           0.000007      0.000001      NO
         Displacement       0.000255      0.000001      NO
         Energy change     *********      0.000000      NO


 New Cartesian Coordinates Obtained by Inverse Iteration

 Displacement from previous Coordinates is:  0.002024
 Adding empirical dispersion correction 
 ----------------------------------------------------------------
 Doing -D3(op) with
 s6 =   1.00000
 s8 =   0.78311
 a1 =   0.30000
 a2 =   4.25000
 n  =  10.00000
 -D3 energy without 3body term =     -0.0358433040 hartrees
 ----------------------------------------------------------------
             Standard Nuclear Orientation (Angstroms)
    I     Atom           X                Y                Z
 ----------------------------------------------------------------
    1      C       1.1331346587    -2.4561770389     0.3078906405
    2      C       0.1658077244    -1.8807060294     1.4004551235
    3      C       0.2342058025    -0.3796989148     1.5865984089
    4      C       2.1662929597    -1.4554870602    -0.1840843302
    5      O       0.0427833962    -0.0582456191     2.8845532693
    6      O       0.3826305574     0.4391483893     0.7142037836
    7      O       2.0428944364    -1.1650736029    -1.4865517993
    8      O       3.0362758892    -1.0134550413     0.5286436213
    9      C       2.9422430840    -0.1632316118    -1.9967514878
   10      C       0.0361313595     1.3498028355     3.1868153431
   11      C       0.1275077692    -3.0206776208    -0.7279402713
   12      C      -0.4343103992    -4.3553065655    -0.1964290258
   13      C      -1.3507235992    -3.8469597252     0.9524581713
   14      C      -1.2288982234    -2.3045949663     0.8013071152
   15      O      -1.0004187150    -2.1444761074    -0.6072495219
   16      H       1.7245702965    -3.2583052633     0.7555996359
   17      H       0.3286853935    -2.3474671833     2.3700711641
   18      H       3.9786641467    -0.4820474389    -1.8766409740
   19      H      -0.7816390028     1.8480607438     2.6632817358
   20      H      -1.0160996665    -4.8517015244    -0.9744191493
   21      H       0.3459857651    -5.0427008033     0.1367536081
   22      H      -2.3879405528    -4.1520420099     0.8023956825
   23      H      -1.0405710949    -4.1905508662     1.9414016126
   24      H       2.6898573060    -0.0588238606    -3.0495917014
   25      H       2.7844439819     0.7769979456    -1.4674000157
   26      H       0.9827670433     1.8035996287     2.8912192258
   27      H      -0.1024918878     1.4140849399     4.2636665815
   28      H       0.4828869975    -3.0235409134    -1.7534643816
   29      C      -2.4332284336    -1.5055387537     1.2461909777
   30      H      -3.3287578685    -1.8789192878     0.7450742193
   31      H      -2.5741536862    -1.5957931704     2.3259366662
   32      H      -2.3150754175    -0.4499434939     0.9941060221
 ----------------------------------------------------------------
 Nuclear Repulsion Energy =  1251.0882727281 hartrees
 There are       61 alpha and       61 beta electrons
 Applying Cartesian multipole field
    Component          Value
    ---------          -----
     (2,0,0)        1.00000E-11
     (0,2,0)        2.00000E-11
     (0,0,2)       -3.00000E-11
 Nucleus-field energy     =     0.0000000203 hartrees
 Requested basis set is 6-311++G(d,p)
 There are 176 shells and 464 basis functions
 A cutoff of  1.0D-11 yielded  12683 shell pairs
 There are     89914 function pairs (     95899 Cartesian)
 Smallest overlap matrix eigenvalue = 6.45E-07

 Q-Chem warning in module /fs/scratch/osu6415/qchem-kaunlao-vdw/stvman/mkSTV.C, line 281:

 Overlap eigenvalue is smaller than square root of threshold

 Linear dependence detected in AO basis
 Number of orthogonalized atomic orbitals = 463
 Maximum deviation from orthogonality = 1.573E-10
 Guess MOs from SCF MO coefficient file
 Reading MOs from coefficient file
 Reading MOs from coefficient file
 A restricted hybrid HF-DFT SCF calculation will be
 performed using Pulay DIIS extrapolation
 Exchange:     0.2000 Hartree-Fock + 0.0800 Slater + 0.7200 B88
 Correlation:  0.1900 VWN1RPA + 0.8100 LYP
 Using SG-1 standard quadrature grid
 Dispersion:   Grimme D3
 SCF converges when DIIS error is below 1.0E-08
 Geometry optimization detected.  Setting ReadMinima to 0
 Setting SaveMinima to 0
 using 20 threads for integral computing
 -------------------------------------------------------
 OpenMP Integral computing Module                
 Release: version 1.0, May 2013, Q-Chem Inc. Pittsburgh 
 -------------------------------------------------------
 -------------------------------------------------------
 OpenMP BLAS3 based DFT computing Module                
 Release: version 1.0, May 2013, Q-Chem Inc. Pittsburgh 
 -------------------------------------------------------
 ---------------------------------------
  Cycle       Energy         DIIS Error
 ---------------------------------------
    1    -805.1970239848      2.22E-06
    2    -805.1970100558      2.62E-07
    3    -805.1970100546      3.75E-07
    4    -805.1970100580      9.13E-08
    5    -805.1970100577      4.17E-08
    6    -805.1970100583      8.95E-09 Convergence criterion met
 ---------------------------------------
 SCF time:  CPU 375.82 s  wall 20.68 s
 SCF   energy in the final basis set = -805.19701006
 Total energy in the final basis set = -805.19701006
 
 --------------------------------------------------------------
 
                    Orbital Energies (a.u.)
 --------------------------------------------------------------
 
 Alpha MOs
 -- Occupied --
-19.174 -19.169 -19.128 -19.115 -19.108 -10.304 -10.302 -10.245
-10.229 -10.228 -10.222 -10.203 -10.202 -10.180 -10.179 -10.170
 -1.115  -1.109  -1.062  -1.028  -1.021  -0.829  -0.795  -0.781
 -0.745  -0.725  -0.692  -0.651  -0.603  -0.592  -0.565  -0.560
 -0.527  -0.512  -0.506  -0.490  -0.489  -0.483  -0.476  -0.469
 -0.457  -0.439  -0.432  -0.423  -0.412  -0.400  -0.391  -0.383
 -0.377  -0.370  -0.364  -0.361  -0.354  -0.352  -0.334  -0.332
 -0.316  -0.306  -0.290  -0.277  -0.268
 -- Virtual --
 -0.018  -0.010  -0.002   0.002   0.007   0.010   0.013   0.022
  0.027   0.032   0.035   0.039   0.044   0.048   0.050   0.057
  0.062   0.066   0.072   0.077   0.080   0.085   0.090   0.098
  0.101   0.104   0.105   0.111   0.114   0.115   0.118   0.122
  0.128   0.130   0.132   0.134   0.136   0.139   0.140   0.145
  0.146   0.150   0.151   0.155   0.157   0.161   0.165   0.170
  0.171   0.172   0.176   0.178   0.183   0.186   0.189   0.191
  0.194   0.201   0.205   0.209   0.215   0.216   0.219   0.221
  0.230   0.233   0.237   0.242   0.251   0.251   0.259   0.264
  0.271   0.275   0.281   0.287   0.289   0.294   0.296   0.301
  0.312   0.316   0.318   0.324   0.327   0.331   0.333   0.338
  0.345   0.352   0.356   0.360   0.363   0.365   0.368   0.374
  0.377   0.384   0.387   0.390   0.393   0.399   0.408   0.417
  0.421   0.426   0.428   0.437   0.451   0.455   0.463   0.475
  0.489   0.499   0.503   0.519   0.521   0.529   0.534   0.547
  0.554   0.559   0.575   0.587   0.595   0.606   0.615   0.624
  0.633   0.636   0.643   0.647   0.656   0.661   0.665   0.672
  0.675   0.680   0.686   0.692   0.701   0.709   0.713   0.717
  0.720   0.724   0.731   0.746   0.755   0.761   0.763   0.776
  0.779   0.788   0.793   0.797   0.806   0.818   0.831   0.834
  0.856   0.909   0.922   0.926   0.950   0.996   1.000   1.014
  1.027   1.047   1.053   1.073   1.083   1.092   1.097   1.120
  1.135   1.154   1.182   1.198   1.201   1.215   1.219   1.229
  1.249   1.257   1.265   1.284   1.296   1.304   1.312   1.325
  1.334   1.351   1.364   1.375   1.386   1.390   1.402   1.421
  1.439   1.441   1.449   1.458   1.468   1.482   1.506   1.512
  1.521   1.546   1.550   1.556   1.559   1.571   1.575   1.584
  1.586   1.594   1.611   1.621   1.627   1.635   1.649   1.667
  1.672   1.689   1.701   1.704   1.710   1.715   1.724   1.726
  1.735   1.737   1.770   1.773   1.785   1.796   1.814   1.818
  1.832   1.840   1.847   1.861   1.867   1.885   1.903   1.914
  1.926   1.948   1.971   1.981   1.998   2.005   2.013   2.027
  2.041   2.070   2.091   2.106   2.113   2.118   2.126   2.129
  2.142   2.159   2.167   2.189   2.210   2.214   2.223   2.255
  2.263   2.321   2.330   2.366   2.402   2.427   2.444   2.451
  2.459   2.469   2.492   2.500   2.510   2.515   2.522   2.525
  2.534   2.539   2.550   2.567   2.583   2.594   2.611   2.634
  2.646   2.653   2.673   2.690   2.710   2.724   2.749   2.769
  2.807   2.817   2.834   2.845   2.853   2.856   2.868   2.881
  2.889   2.907   2.930   2.933   2.940   2.992   3.007   3.021
  3.035   3.048   3.054   3.070   3.075   3.094   3.102   3.112
  3.132   3.153   3.173   3.183   3.195   3.216   3.234   3.252
  3.273   3.298   3.321   3.363   3.382   3.394   3.408   3.446
  3.583   3.608   3.616   3.660   3.688   3.728   3.778   3.788
  3.823   3.828   3.845   3.858   3.933   3.964   4.028   4.040
  4.067   4.115   4.124   4.129   4.155   4.165   4.223   4.258
  4.280   4.433   4.494   5.046   5.069   5.130   5.156   5.227
  5.251   5.316   5.396   5.417   5.509   5.628   5.638   5.666
  5.879   5.907  23.783  23.850  23.858  23.883  23.900  23.933
 23.938  23.946  23.977  23.982  24.047  49.911  49.927  49.982
 50.041  50.050
 --------------------------------------------------------------
 
          Ground-State Mulliken Net Atomic Charges

     Atom                 Charge (a.u.)
  ----------------------------------------
      1 C                     0.309406
      2 C                     0.279784
      3 C                    -0.856198
      4 C                    -0.716438
      5 O                     0.011302
      6 O                    -0.153962
      7 O                    -0.001181
      8 O                    -0.190993
      9 C                    -0.194215
     10 C                    -0.217861
     11 C                     0.021248
     12 C                    -0.580297
     13 C                    -0.281890
     14 C                    -0.005958
     15 O                    -0.067103
     16 H                     0.247505
     17 H                     0.303494
     18 H                     0.166656
     19 H                     0.173479
     20 H                     0.183192
     21 H                     0.122395
     22 H                     0.167273
     23 H                     0.143830
     24 H                     0.149698
     25 H                     0.187357
     26 H                     0.182173
     27 H                     0.150531
     28 H                     0.303539
     29 C                    -0.384879
     30 H                     0.175745
     31 H                     0.161844
     32 H                     0.210525
  ----------------------------------------
  Sum of atomic charges =    -0.000000

 -----------------------------------------------------------------
                    Cartesian Multipole Moments
 -----------------------------------------------------------------
    Charge (ESU x 10^10)
                -0.0000
    Dipole Moment (Debye)
         X      -1.0838      Y      -1.4322      Z       0.9584
       Tot       2.0358
    Quadrupole Moments (Debye-Ang)
        XX     -98.2841     XY       1.2534     YY     -82.5157
        XZ      -9.5765     YZ       1.1860     ZZ     -88.2656
    Octopole Moments (Debye-Ang^2)
       XXX    -116.6879    XXY     147.9719    XYY     -27.9146
       YYY     392.1762    XXZ     -74.1343    XYZ       4.3955
       YYZ     -39.0373    XZZ     -22.8837    YZZ     157.5328
       ZZZ    -149.2630
    Hexadecapole Moments (Debye-Ang^3)
      XXXX   -1668.8069   XXXY     -52.7602   XXYY    -728.3686
      XYYY    -110.7681   YYYY   -2736.9087   XXXZ     145.1525
      XXYZ       9.2728   XYYZ      81.2101   YYYZ      12.4449
      XXZZ    -496.2420   XYZZ     -26.6358   YYZZ    -684.0589
      XZZZ     210.6383   YZZZ      65.8792   ZZZZ   -1377.2611
 -----------------------------------------------------------------
 Calculating analytic gradient of the SCF energy
 Gradient of SCF Energy
            1           2           3           4           5           6
    1   0.0000001  -0.0000044   0.0000139  -0.0000123   0.0000120   0.0000080
    2  -0.0000143   0.0000070   0.0000005   0.0000002   0.0000062   0.0000005
    3   0.0000016  -0.0000003   0.0000012   0.0000005  -0.0000055  -0.0000060
            7           8           9          10          11          12
    1   0.0000063   0.0000076   0.0000062   0.0000149  -0.0000076  -0.0000169
    2  -0.0000223  -0.0000233  -0.0000218   0.0000087  -0.0000021   0.0000016
    3  -0.0000010  -0.0000041  -0.0000044  -0.0000069   0.0000037   0.0000063
           13          14          15          16          17          18
    1  -0.0000136  -0.0000062  -0.0000055  -0.0000105  -0.0000043   0.0000058
    2   0.0000116   0.0000064   0.0000034  -0.0000093   0.0000035  -0.0000292
    3   0.0000048   0.0000005   0.0000060   0.0000050   0.0000013  -0.0000049
           19          20          21          22          23          24
    1   0.0000223  -0.0000197  -0.0000205  -0.0000158  -0.0000156   0.0000078
    2   0.0000112   0.0000032  -0.0000018   0.0000154   0.0000108  -0.0000238
    3  -0.0000084   0.0000086   0.0000090   0.0000072   0.0000066  -0.0000048
           25          26          27          28          29          30
    1   0.0000133   0.0000215   0.0000189  -0.0000093  -0.0000010  -0.0000029
    2  -0.0000212   0.0000007   0.0000112  -0.0000082   0.0000177   0.0000213
    3  -0.0000066  -0.0000081  -0.0000073   0.0000032   0.0000007   0.0000036
           31          32
    1   0.0000002   0.0000071
    2   0.0000212   0.0000152
    3   0.0000013  -0.0000029
 Max gradient component =       2.917E-05
 RMS gradient           =       1.106E-05
 Gradient time:  CPU 305.01 s  wall 21.64 s
 Geometry Optimization Parameters
   NAtoms,    NIC,     NZ,  NCons,   NDum,   NFix, NCnnct, MaxDiis
       32     251       0       0       0       0       0       0

 Cartesian Hessian Update
 Hessian Updated using BFGS Update
**WARNING** Hereditary positive definiteness endangered
**WARNING** Small Scalar Product
 Hessian Update Skipped this cycle


** GEOMETRY OPTIMIZATION IN DELOCALIZED INTERNAL COORDINATES **
   Searching for a Minimum

   Optimization Cycle:   2

                       Coordinates (Angstroms)
     ATOM                X               Y               Z
      1  C         1.1331346587   -2.4561770389    0.3078906405
      2  C         0.1658077244   -1.8807060294    1.4004551235
      3  C         0.2342058025   -0.3796989148    1.5865984089
      4  C         2.1662929597   -1.4554870602   -0.1840843302
      5  O         0.0427833962   -0.0582456191    2.8845532693
      6  O         0.3826305574    0.4391483893    0.7142037836
      7  O         2.0428944364   -1.1650736029   -1.4865517993
      8  O         3.0362758892   -1.0134550413    0.5286436213
      9  C         2.9422430840   -0.1632316118   -1.9967514878
     10  C         0.0361313595    1.3498028355    3.1868153431
     11  C         0.1275077692   -3.0206776208   -0.7279402713
     12  C        -0.4343103992   -4.3553065655   -0.1964290258
     13  C        -1.3507235992   -3.8469597252    0.9524581713
     14  C        -1.2288982234   -2.3045949663    0.8013071152
     15  O        -1.0004187150   -2.1444761074   -0.6072495219
     16  H         1.7245702965   -3.2583052633    0.7555996359
     17  H         0.3286853935   -2.3474671833    2.3700711641
     18  H         3.9786641467   -0.4820474389   -1.8766409740
     19  H        -0.7816390028    1.8480607438    2.6632817358
     20  H        -1.0160996665   -4.8517015244   -0.9744191493
     21  H         0.3459857651   -5.0427008033    0.1367536081
     22  H        -2.3879405528   -4.1520420099    0.8023956825
     23  H        -1.0405710949   -4.1905508662    1.9414016126
     24  H         2.6898573060   -0.0588238606   -3.0495917014
     25  H         2.7844439819    0.7769979456   -1.4674000157
     26  H         0.9827670433    1.8035996287    2.8912192258
     27  H        -0.1024918878    1.4140849399    4.2636665815
     28  H         0.4828869975   -3.0235409134   -1.7534643816
     29  C        -2.4332284336   -1.5055387537    1.2461909777
     30  H        -3.3287578685   -1.8789192878    0.7450742193
     31  H        -2.5741536862   -1.5957931704    2.3259366662
     32  H        -2.3150754175   -0.4499434939    0.9941060221
   Point Group: c1    Number of degrees of freedom:    90


   Energy is   -805.197010058

 Hessian Updated using BFGS Update
**WARNING** Hereditary positive definiteness endangered
**WARNING** Small Scalar Product
 Hessian Update Skipped this cycle

 90 Hessian modes will be used to form the next step
  Hessian Eigenvalues:
     0.003030    0.006514    0.007102    0.007321    0.007562    0.010336
     0.010391    0.010929    0.010953    0.022154    0.022633    0.023563
     0.026147    0.033324    0.036166    0.038602    0.041343    0.045240
     0.048438    0.050302    0.052012    0.054664    0.055613    0.057273
     0.058345    0.059603    0.063586    0.064712    0.065746    0.074716
     0.080595    0.091918    0.099034    0.101376    0.101655    0.103105
     0.105984    0.106298    0.120292    0.122970    0.153114    0.160000
     0.160000    0.160000    0.160000    0.160000    0.160000    0.160000
     0.160000    0.160000    0.173484    0.231100    0.237550    0.249536
     0.249809    0.249844    0.250000    0.250000    0.250000    0.250000
     0.255033    0.267611    0.278167    0.303528    0.309473    0.311284
     0.337931    0.345096    0.345207    0.345804    0.345867    0.345932
     0.346179    0.346377    0.346544    0.346994    0.347039    0.347422
     0.347573    0.348228    0.350014    0.350808    0.350870    0.353546
     0.395665    0.396234    0.548524    0.571729    1.007099    1.020294

 Minimum Search - Taking Simple RFO Step
 Searching for Lamda that Minimizes Along All modes
 Value Taken    Lamda =   0.00000000
 Step Taken.  Stepsize is  0.001009

                             Maximum     Tolerance    Cnvgd?
         Gradient           0.000004      0.000001      NO
         Displacement       0.000324      0.000001      NO
         Energy change      0.000000      0.000000      NO


 New Cartesian Coordinates Obtained by Inverse Iteration

 Displacement from previous Coordinates is:  0.002474
 Adding empirical dispersion correction 
 ----------------------------------------------------------------
 Doing -D3(op) with
 s6 =   1.00000
 s8 =   0.78311
 a1 =   0.30000
 a2 =   4.25000
 n  =  10.00000
 -D3 energy without 3body term =     -0.0358441869 hartrees
 ----------------------------------------------------------------
             Standard Nuclear Orientation (Angstroms)
    I     Atom           X                Y                Z
 ----------------------------------------------------------------
    1      C       1.1331616459    -2.4562993036     0.3079168171
    2      C       0.1658216912    -1.8807774404     1.4004371790
    3      C       0.2342529426    -0.3797679293     1.5865272972
    4      C       2.1663550130    -1.4556438220    -0.1840564825
    5      O       0.0427906996    -0.0582623413     2.8844640763
    6      O       0.3829502255     0.4390317719     0.7141352499
    7      O       2.0428427907    -1.1650573247    -1.4864759351
    8      O       3.0361113186    -1.0133294561     0.5287728743
    9      C       2.9420086893    -0.1629977501    -1.9965677950
   10      C       0.0363027251     1.3497927927     3.1866874012
   11      C       0.1275506532    -3.0208290797    -0.7279180167
   12      C      -0.4343552656    -4.3554072503    -0.1963592762
   13      C      -1.3507715559    -3.8469654554     0.9524810489
   14      C      -1.2288713142    -2.3046150918     0.8012456671
   15      O      -1.0003344492    -2.1445683009    -0.6073144531
   16      H       1.7245759592    -3.2584199404     0.7556650976
   17      H       0.3286408308    -2.3475148124     2.3700755269
   18      H       3.9784869817    -0.4816343854    -1.8764792662
   19      H      -0.7814531326     1.8481146195     2.6631894518
   20      H      -1.0161573963    -4.8518023363    -0.9743401801
   21      H       0.3458906498    -5.0428350978     0.1368706837
   22      H      -2.3879993731    -4.1520060011     0.8024137699
   23      H      -1.0406539421    -4.1905171576     1.9414500910
   24      H       2.6896080041    -0.0585330596    -3.0493986260
   25      H       2.7840322731     0.7771504628    -1.4671239913
   26      H       0.9829639762     1.8034894455     2.8910213204
   27      H      -0.1022531580     1.4141155759     4.2635447170
   28      H       0.4829628566    -3.0237568376    -1.7534297022
   29      C      -2.4331779269    -1.5054836809     1.2460471272
   30      H      -3.3286881130    -1.8788093199     0.7448553651
   31      H      -2.5741872781    -1.5957394995     2.3257814729
   32      H      -2.3149470013    -0.4498919843     0.9939814398
 ----------------------------------------------------------------
 Nuclear Repulsion Energy =  1251.1015136626 hartrees
 There are       61 alpha and       61 beta electrons
 Applying Cartesian multipole field
    Component          Value
    ---------          -----
     (2,0,0)        1.00000E-11
     (0,2,0)        2.00000E-11
     (0,0,2)       -3.00000E-11
 Nucleus-field energy     =     0.0000000203 hartrees
 Requested basis set is 6-311++G(d,p)
 There are 176 shells and 464 basis functions
 A cutoff of  1.0D-11 yielded  12683 shell pairs
 There are     89914 function pairs (     95899 Cartesian)
 Smallest overlap matrix eigenvalue = 6.45E-07

 Q-Chem warning in module /fs/scratch/osu6415/qchem-kaunlao-vdw/stvman/mkSTV.C, line 281:

 Overlap eigenvalue is smaller than square root of threshold

 Linear dependence detected in AO basis
 Number of orthogonalized atomic orbitals = 463
 Maximum deviation from orthogonality = 1.014E-10
 Guess MOs from SCF MO coefficient file
 Reading MOs from coefficient file
 Reading MOs from coefficient file
 A restricted hybrid HF-DFT SCF calculation will be
 performed using Pulay DIIS extrapolation
 Exchange:     0.2000 Hartree-Fock + 0.0800 Slater + 0.7200 B88
 Correlation:  0.1900 VWN1RPA + 0.8100 LYP
 Using SG-1 standard quadrature grid
 Dispersion:   Grimme D3
 SCF converges when DIIS error is below 1.0E-08
 Geometry optimization detected.  Setting ReadMinima to 0
 Setting SaveMinima to 0
 using 20 threads for integral computing
 -------------------------------------------------------
 OpenMP Integral computing Module                
 Release: version 1.0, May 2013, Q-Chem Inc. Pittsburgh 
 -------------------------------------------------------
 -------------------------------------------------------
 OpenMP BLAS3 based DFT computing Module                
 Release: version 1.0, May 2013, Q-Chem Inc. Pittsburgh 
 -------------------------------------------------------
 ---------------------------------------
  Cycle       Energy         DIIS Error
 ---------------------------------------
    1    -805.1969782672      3.95E-06
    2    -805.1970101253      3.17E-07
    3    -805.1970101247      4.88E-07
    4    -805.1970101286      1.31E-07
    5    -805.1970101284      5.31E-08
    6    -805.1970101287      1.52E-08
    7    -805.1970101263      7.53E-09 Convergence criterion met
 ---------------------------------------
 SCF time:  CPU 418.92 s  wall 22.50 s
 SCF   energy in the final basis set = -805.19701013
 Total energy in the final basis set = -805.19701013
 
 --------------------------------------------------------------
 
                    Orbital Energies (a.u.)
 --------------------------------------------------------------
 
 Alpha MOs
 -- Occupied --
-19.174 -19.169 -19.128 -19.115 -19.108 -10.304 -10.302 -10.245
-10.229 -10.228 -10.222 -10.203 -10.202 -10.180 -10.179 -10.170
 -1.115  -1.109  -1.062  -1.028  -1.021  -0.829  -0.795  -0.781
 -0.745  -0.725  -0.692  -0.651  -0.603  -0.592  -0.565  -0.560
 -0.527  -0.512  -0.506  -0.490  -0.489  -0.483  -0.476  -0.469
 -0.457  -0.439  -0.432  -0.423  -0.412  -0.400  -0.391  -0.383
 -0.377  -0.370  -0.364  -0.361  -0.354  -0.352  -0.334  -0.332
 -0.316  -0.306  -0.290  -0.277  -0.268
 -- Virtual --
 -0.018  -0.010  -0.002   0.002   0.007   0.010   0.013   0.022
  0.027   0.032   0.035   0.039   0.044   0.048   0.050   0.057
  0.062   0.066   0.072   0.077   0.080   0.085   0.090   0.098
  0.101   0.104   0.105   0.111   0.114   0.115   0.118   0.122
  0.128   0.130   0.132   0.134   0.136   0.139   0.140   0.145
  0.146   0.150   0.151   0.155   0.157   0.161   0.165   0.170
  0.171   0.172   0.176   0.178   0.183   0.186   0.189   0.191
  0.194   0.201   0.205   0.209   0.215   0.216   0.219   0.221
  0.230   0.233   0.237   0.242   0.251   0.251   0.259   0.264
  0.271   0.275   0.281   0.287   0.289   0.294   0.296   0.301
  0.312   0.316   0.318   0.324   0.327   0.331   0.333   0.338
  0.345   0.352   0.356   0.360   0.363   0.365   0.368   0.374
  0.377   0.384   0.387   0.390   0.393   0.399   0.408   0.417
  0.421   0.427   0.428   0.437   0.451   0.455   0.463   0.475
  0.489   0.499   0.503   0.519   0.522   0.529   0.534   0.547
  0.554   0.559   0.575   0.587   0.595   0.606   0.615   0.624
  0.633   0.636   0.643   0.647   0.656   0.661   0.665   0.672
  0.675   0.680   0.686   0.692   0.701   0.709   0.713   0.717
  0.720   0.724   0.731   0.746   0.755   0.760   0.763   0.776
  0.779   0.788   0.793   0.797   0.806   0.818   0.831   0.834
  0.856   0.909   0.922   0.926   0.950   0.996   1.000   1.014
  1.027   1.047   1.053   1.073   1.083   1.092   1.097   1.120
  1.135   1.154   1.182   1.198   1.201   1.215   1.219   1.229
  1.249   1.257   1.265   1.284   1.296   1.304   1.312   1.325
  1.334   1.351   1.364   1.375   1.386   1.390   1.402   1.421
  1.439   1.441   1.449   1.458   1.468   1.482   1.507   1.512
  1.521   1.546   1.550   1.556   1.559   1.571   1.575   1.584
  1.586   1.594   1.611   1.621   1.627   1.635   1.649   1.667
  1.672   1.689   1.701   1.704   1.710   1.715   1.724   1.726
  1.735   1.737   1.770   1.773   1.785   1.796   1.814   1.818
  1.832   1.840   1.847   1.861   1.867   1.885   1.903   1.914
  1.926   1.948   1.971   1.981   1.998   2.005   2.013   2.027
  2.041   2.070   2.091   2.106   2.113   2.118   2.126   2.129
  2.142   2.159   2.167   2.189   2.210   2.214   2.223   2.255
  2.263   2.321   2.330   2.366   2.402   2.427   2.444   2.452
  2.459   2.469   2.492   2.500   2.510   2.515   2.522   2.525
  2.534   2.539   2.550   2.567   2.583   2.594   2.611   2.634
  2.646   2.653   2.673   2.690   2.710   2.724   2.749   2.769
  2.807   2.817   2.834   2.845   2.853   2.856   2.868   2.881
  2.889   2.907   2.930   2.933   2.940   2.992   3.007   3.021
  3.035   3.048   3.054   3.070   3.075   3.094   3.102   3.112
  3.132   3.153   3.173   3.183   3.195   3.216   3.234   3.252
  3.273   3.298   3.321   3.363   3.382   3.394   3.408   3.446
  3.583   3.608   3.616   3.660   3.688   3.728   3.778   3.788
  3.823   3.828   3.845   3.858   3.933   3.964   4.028   4.040
  4.067   4.115   4.124   4.129   4.155   4.165   4.223   4.258
  4.280   4.433   4.494   5.046   5.069   5.130   5.156   5.227
  5.251   5.316   5.396   5.417   5.509   5.628   5.638   5.666
  5.879   5.907  23.783  23.850  23.858  23.883  23.900  23.933
 23.938  23.946  23.977  23.982  24.047  49.911  49.927  49.982
 50.041  50.050
 --------------------------------------------------------------
 
          Ground-State Mulliken Net Atomic Charges

     Atom                 Charge (a.u.)
  ----------------------------------------
      1 C                     0.309389
      2 C                     0.279811
      3 C                    -0.856481
      4 C                    -0.716182
      5 O                     0.011291
      6 O                    -0.153955
      7 O                    -0.001177
      8 O                    -0.190983
      9 C                    -0.194148
     10 C                    -0.217869
     11 C                     0.021099
     12 C                    -0.580296
     13 C                    -0.281783
     14 C                    -0.005863
     15 O                    -0.067105
     16 H                     0.247493
     17 H                     0.303495
     18 H                     0.166643
     19 H                     0.173474
     20 H                     0.183194
     21 H                     0.122398
     22 H                     0.167272
     23 H                     0.143827
     24 H                     0.149710
     25 H                     0.187354
     26 H                     0.182176
     27 H                     0.150530
     28 H                     0.303515
     29 C                    -0.384953
     30 H                     0.175750
     31 H                     0.161844
     32 H                     0.210530
  ----------------------------------------
  Sum of atomic charges =    -0.000000

 -----------------------------------------------------------------
                    Cartesian Multipole Moments
 -----------------------------------------------------------------
    Charge (ESU x 10^10)
                -0.0000
    Dipole Moment (Debye)
         X      -1.0840      Y      -1.4323      Z       0.9585
       Tot       2.0359
    Quadrupole Moments (Debye-Ang)
        XX     -98.2836     XY       1.2526     YY     -82.5145
        XZ      -9.5750     YZ       1.1849     ZZ     -88.2675
    Octopole Moments (Debye-Ang^2)
       XXX    -116.6888    XXY     147.9708    XYY     -27.9126
       YYY     392.1794    XXZ     -74.1307    XYZ       4.3946
       YYZ     -39.0363    XZZ     -22.8866    YZZ     157.5349
       ZZZ    -149.2611
    Hexadecapole Moments (Debye-Ang^3)
      XXXX   -1668.6987   XXXY     -52.7931   XXYY    -728.3653
      XYYY    -110.7990   YYYY   -2737.0030   XXXZ     145.1138
      XXYZ       9.2754   XYYZ      81.1918   YYYZ      12.4651
      XXZZ    -496.2242   XYZZ     -26.6368   YYZZ    -684.0588
      XZZZ     210.6006   YZZZ      65.8871   ZZZZ   -1377.1656
 -----------------------------------------------------------------
 Calculating analytic gradient of the SCF energy
 Gradient of SCF Energy
            1           2           3           4           5           6
    1  -0.0000179   0.0000029  -0.0000185   0.0000335   0.0000190   0.0000271
    2   0.0000058  -0.0000013  -0.0000011  -0.0000626   0.0000058  -0.0000016
    3   0.0000073   0.0000052  -0.0000025  -0.0000153  -0.0000028  -0.0000086
            7           8           9          10          11          12
    1  -0.0000084  -0.0000119   0.0000064   0.0000164  -0.0000100  -0.0000180
    2  -0.0000016   0.0000058  -0.0000222   0.0000080  -0.0000032   0.0000016
    3   0.0000004   0.0000057  -0.0000041  -0.0000074   0.0000033   0.0000074
           13          14          15          16          17          18
    1  -0.0000117  -0.0000053  -0.0000031  -0.0000085  -0.0000050   0.0000054
    2   0.0000102   0.0000105   0.0000045  -0.0000053   0.0000026  -0.0000295
    3   0.0000076  -0.0000009   0.0000012   0.0000021   0.0000025  -0.0000039
           19          20          21          22          23          24
    1   0.0000218  -0.0000204  -0.0000212  -0.0000154  -0.0000154   0.0000073
    2   0.0000105   0.0000028  -0.0000022   0.0000168   0.0000102  -0.0000237
    3  -0.0000088   0.0000091   0.0000089   0.0000075   0.0000073  -0.0000045
           25          26          27          28          29          30
    1   0.0000147   0.0000213   0.0000191  -0.0000103   0.0000005  -0.0000020
    2  -0.0000202   0.0000011   0.0000106  -0.0000076   0.0000178   0.0000211
    3  -0.0000078  -0.0000081  -0.0000074   0.0000042   0.0000008   0.0000029
           31          32
    1   0.0000005   0.0000072
    2   0.0000209   0.0000154
    3   0.0000013  -0.0000025
 Max gradient component =       6.256E-05
 RMS gradient           =       1.341E-05
 Gradient time:  CPU 306.19 s  wall 21.42 s
 Geometry Optimization Parameters
   NAtoms,    NIC,     NZ,  NCons,   NDum,   NFix, NCnnct, MaxDiis
       32     251       0       0       0       0       0       0

 Cartesian Hessian Update
 Hessian Updated using BFGS Update


** GEOMETRY OPTIMIZATION IN DELOCALIZED INTERNAL COORDINATES **
   Searching for a Minimum

   Optimization Cycle:   3

                       Coordinates (Angstroms)
     ATOM                X               Y               Z
      1  C         1.1331616459   -2.4562993036    0.3079168171
      2  C         0.1658216912   -1.8807774404    1.4004371790
      3  C         0.2342529426   -0.3797679293    1.5865272972
      4  C         2.1663550130   -1.4556438220   -0.1840564825
      5  O         0.0427906996   -0.0582623413    2.8844640763
      6  O         0.3829502255    0.4390317719    0.7141352499
      7  O         2.0428427907   -1.1650573247   -1.4864759351
      8  O         3.0361113186   -1.0133294561    0.5287728743
      9  C         2.9420086893   -0.1629977501   -1.9965677950
     10  C         0.0363027251    1.3497927927    3.1866874012
     11  C         0.1275506532   -3.0208290797   -0.7279180167
     12  C        -0.4343552656   -4.3554072503   -0.1963592762
     13  C        -1.3507715559   -3.8469654554    0.9524810489
     14  C        -1.2288713142   -2.3046150918    0.8012456671
     15  O        -1.0003344492   -2.1445683009   -0.6073144531
     16  H         1.7245759592   -3.2584199404    0.7556650976
     17  H         0.3286408308   -2.3475148124    2.3700755269
     18  H         3.9784869817   -0.4816343854   -1.8764792662
     19  H        -0.7814531326    1.8481146195    2.6631894518
     20  H        -1.0161573963   -4.8518023363   -0.9743401801
     21  H         0.3458906498   -5.0428350978    0.1368706837
     22  H        -2.3879993731   -4.1520060011    0.8024137699
     23  H        -1.0406539421   -4.1905171576    1.9414500910
     24  H         2.6896080041   -0.0585330596   -3.0493986260
     25  H         2.7840322731    0.7771504628   -1.4671239913
     26  H         0.9829639762    1.8034894455    2.8910213204
     27  H        -0.1022531580    1.4141155759    4.2635447170
     28  H         0.4829628566   -3.0237568376   -1.7534297022
     29  C        -2.4331779269   -1.5054836809    1.2460471272
     30  H        -3.3286881130   -1.8788093199    0.7448553651
     31  H        -2.5741872781   -1.5957394995    2.3257814729
     32  H        -2.3149470013   -0.4498919843    0.9939814398
   Point Group: c1    Number of degrees of freedom:    90


   Energy is   -805.197010126

 Hessian Updated using BFGS Update

 81 Hessian modes will be used to form the next step
  Hessian Eigenvalues:
     0.003025    0.006553    0.007056    0.007136    0.007449    0.009694
     0.010376    0.010924    0.022152    0.022594    0.023490    0.025925
     0.032969    0.035949    0.038238    0.040819    0.044891    0.046515
     0.048627    0.051821    0.054449    0.055132    0.056164    0.057401
     0.058345    0.059603    0.063765    0.064731    0.065737    0.074759
     0.080634    0.091995    0.099438    0.101372    0.101656    0.104067
     0.105898    0.106306    0.120310    0.124013    0.155826    0.159255
     0.160947    0.173440    0.230166    0.237996    0.249473    0.249571
     0.249842    0.249963    0.251776    0.255041    0.267601    0.278029
     0.303568    0.310293    0.311105    0.337604    0.345093    0.345383
     0.345806    0.345864    0.345918    0.346168    0.346371    0.346503
     0.346989    0.347036    0.347414    0.347569    0.348401    0.350029
     0.350808    0.350870    0.353562    0.395437    0.396227    0.548476
     0.571963    1.007226    1.020363

 Minimum Search - Taking Simple RFO Step
 Searching for Lamda that Minimizes Along All modes
 Value Taken    Lamda =   0.00000000
 Step Taken.  Stepsize is  0.000755

                             Maximum     Tolerance    Cnvgd?
         Gradient           0.000015      0.000001      NO
         Displacement       0.000225      0.000001      NO
         Energy change     -0.000000      0.000000      NO


 New Cartesian Coordinates Obtained by Inverse Iteration

 Displacement from previous Coordinates is:  0.002553
 Adding empirical dispersion correction 
 ----------------------------------------------------------------
 Doing -D3(op) with
 s6 =   1.00000
 s8 =   0.78311
 a1 =   0.30000
 a2 =   4.25000
 n  =  10.00000
 -D3 energy without 3body term =     -0.0358436167 hartrees
 ----------------------------------------------------------------
             Standard Nuclear Orientation (Angstroms)
    I     Atom           X                Y                Z
 ----------------------------------------------------------------
    1      C       1.1331403865    -2.4562015656     0.3078667583
    2      C       0.1658465252    -1.8807223572     1.4004519649
    3      C       0.2342226541    -0.3797125559     1.5865723020
    4      C       2.1663390619    -1.4555475876    -0.1840972964
    5      O       0.0427247915    -0.0582467836     2.8845139941
    6      O       0.3827073892     0.4391224420     0.7141780173
    7      O       2.0429093103    -1.1650642165    -1.4865471665
    8      O       3.0362884876    -1.0134897008     0.5286549864
    9      C       2.9422633950    -0.1632102678    -1.9967095774
   10      C       0.0360561575     1.3498038415     3.1867523082
   11      C       0.1274858297    -3.0206781928    -0.7279556448
   12      C      -0.4343626047    -4.3553022228    -0.1964534637
   13      C      -1.3507030656    -3.8469528183     0.9524879193
   14      C      -1.2288654526    -2.3045886785     0.8013283387
   15      O      -1.0004151450    -2.1444539386    -0.6072363738
   16      H       1.7245555905    -3.2583559435     0.7555550672
   17      H       0.3287353007    -2.3474736243     2.3700718073
   18      H       3.9786841698    -0.4820023137    -1.8765380066
   19      H      -0.7817946646     1.8480172879     2.6632987248
   20      H      -1.0162131318    -4.8516502569    -0.9744283233
   21      H       0.3459167014    -5.0427423669     0.1366727893
   22      H      -2.3879327043    -4.1520193648     0.8024860263
   23      H      -1.0404961238    -4.1905488379     1.9414136015
   24      H       2.6899272282    -0.0588209646    -3.0495633359
   25      H       2.7844142434     0.7770210324    -1.4673750980
   26      H       0.9826398426     1.8036354277     2.8910457134
   27      H      -0.1024589639     1.4140961595     4.2636166923
   28      H       0.4828449254    -3.0235323845    -1.7534860789
   29      C      -2.4331764536    -1.5055264667     1.2462409824
   30      H      -3.3286962990    -1.8788486859     0.7450638143
   31      H      -2.5741323762    -1.5958612056     2.3259756095
   32      H      -2.3149949855    -0.4499128796     0.9942428980
 ----------------------------------------------------------------
 Nuclear Repulsion Energy =  1251.0913939661 hartrees
 There are       61 alpha and       61 beta electrons
 Applying Cartesian multipole field
    Component          Value
    ---------          -----
     (2,0,0)        1.00000E-11
     (0,2,0)        2.00000E-11
     (0,0,2)       -3.00000E-11
 Nucleus-field energy     =     0.0000000203 hartrees
 Requested basis set is 6-311++G(d,p)
 There are 176 shells and 464 basis functions
 A cutoff of  1.0D-11 yielded  12683 shell pairs
 There are     89914 function pairs (     95899 Cartesian)
 Smallest overlap matrix eigenvalue = 6.45E-07

 Q-Chem warning in module /fs/scratch/osu6415/qchem-kaunlao-vdw/stvman/mkSTV.C, line 281:

 Overlap eigenvalue is smaller than square root of threshold

 Linear dependence detected in AO basis
 Number of orthogonalized atomic orbitals = 463
 Maximum deviation from orthogonality = 8.728E-11
 Guess MOs from SCF MO coefficient file
 Reading MOs from coefficient file
 Reading MOs from coefficient file
 A restricted hybrid HF-DFT SCF calculation will be
 performed using Pulay DIIS extrapolation
 Exchange:     0.2000 Hartree-Fock + 0.0800 Slater + 0.7200 B88
 Correlation:  0.1900 VWN1RPA + 0.8100 LYP
 Using SG-1 standard quadrature grid
 Dispersion:   Grimme D3
 SCF converges when DIIS error is below 1.0E-08
 Geometry optimization detected.  Setting ReadMinima to 0
 Setting SaveMinima to 0
 using 20 threads for integral computing
 -------------------------------------------------------
 OpenMP Integral computing Module                
 Release: version 1.0, May 2013, Q-Chem Inc. Pittsburgh 
 -------------------------------------------------------
 -------------------------------------------------------
 OpenMP BLAS3 based DFT computing Module                
 Release: version 1.0, May 2013, Q-Chem Inc. Pittsburgh 
 -------------------------------------------------------
 ---------------------------------------
  Cycle       Energy         DIIS Error
 ---------------------------------------
    1    -805.1970377076      3.53E-06
    2    -805.1970100910      2.70E-07
    3    -805.1970100902      3.82E-07
    4    -805.1970100936      1.24E-07
    5    -805.1970100940      4.29E-08
    6    -805.1970100937      1.27E-08
    7    -805.1970100965      5.39E-09 Convergence criterion met
 ---------------------------------------
 SCF time:  CPU 422.16 s  wall 23.29 s
 SCF   energy in the final basis set = -805.19701010
 Total energy in the final basis set = -805.19701010
 
 --------------------------------------------------------------
 
                    Orbital Energies (a.u.)
 --------------------------------------------------------------
 
 Alpha MOs
 -- Occupied --
-19.174 -19.169 -19.128 -19.115 -19.108 -10.304 -10.302 -10.245
-10.229 -10.228 -10.222 -10.203 -10.202 -10.180 -10.179 -10.170
 -1.115  -1.109  -1.062  -1.028  -1.021  -0.829  -0.795  -0.781
 -0.745  -0.725  -0.692  -0.651  -0.603  -0.592  -0.565  -0.560
 -0.527  -0.512  -0.506  -0.490  -0.489  -0.483  -0.476  -0.469
 -0.457  -0.439  -0.432  -0.423  -0.412  -0.400  -0.391  -0.383
 -0.377  -0.370  -0.364  -0.361  -0.354  -0.352  -0.334  -0.332
 -0.316  -0.306  -0.290  -0.277  -0.268
 -- Virtual --
 -0.018  -0.010  -0.002   0.002   0.007   0.010   0.013   0.022
  0.027   0.032   0.035   0.039   0.044   0.048   0.050   0.057
  0.062   0.066   0.072   0.077   0.080   0.085   0.090   0.098
  0.101   0.104   0.105   0.111   0.114   0.115   0.118   0.122
  0.128   0.130   0.132   0.134   0.136   0.139   0.140   0.145
  0.146   0.150   0.151   0.155   0.157   0.161   0.165   0.170
  0.171   0.172   0.176   0.178   0.183   0.186   0.189   0.191
  0.194   0.201   0.205   0.209   0.215   0.216   0.219   0.221
  0.230   0.233   0.237   0.242   0.251   0.251   0.259   0.264
  0.271   0.275   0.281   0.287   0.289   0.294   0.296   0.301
  0.312   0.316   0.318   0.324   0.327   0.331   0.333   0.338
  0.345   0.352   0.356   0.360   0.363   0.365   0.368   0.374
  0.377   0.384   0.387   0.390   0.393   0.399   0.408   0.417
  0.421   0.426   0.428   0.437   0.451   0.455   0.463   0.475
  0.489   0.499   0.503   0.519   0.521   0.529   0.534   0.547
  0.554   0.559   0.575   0.587   0.595   0.606   0.615   0.624
  0.633   0.636   0.643   0.647   0.656   0.661   0.665   0.672
  0.675   0.680   0.686   0.692   0.701   0.709   0.713   0.717
  0.720   0.724   0.731   0.746   0.755   0.761   0.763   0.776
  0.779   0.788   0.793   0.797   0.806   0.818   0.831   0.834
  0.856   0.909   0.922   0.926   0.950   0.996   1.000   1.014
  1.027   1.047   1.053   1.073   1.083   1.092   1.097   1.120
  1.135   1.154   1.182   1.198   1.201   1.215   1.219   1.229
  1.249   1.257   1.265   1.284   1.296   1.304   1.312   1.325
  1.334   1.351   1.364   1.375   1.386   1.390   1.402   1.421
  1.439   1.441   1.449   1.458   1.468   1.482   1.506   1.512
  1.521   1.546   1.550   1.556   1.559   1.571   1.575   1.584
  1.586   1.594   1.611   1.621   1.627   1.635   1.649   1.667
  1.672   1.689   1.701   1.704   1.710   1.715   1.724   1.726
  1.735   1.737   1.770   1.773   1.785   1.796   1.814   1.818
  1.832   1.840   1.847   1.861   1.867   1.885   1.903   1.914
  1.926   1.948   1.971   1.981   1.998   2.005   2.013   2.027
  2.041   2.070   2.091   2.106   2.113   2.118   2.126   2.129
  2.142   2.159   2.167   2.189   2.210   2.214   2.223   2.255
  2.263   2.321   2.330   2.366   2.402   2.427   2.444   2.451
  2.459   2.469   2.492   2.500   2.510   2.515   2.522   2.525
  2.534   2.539   2.550   2.567   2.583   2.594   2.611   2.634
  2.646   2.653   2.673   2.690   2.710   2.724   2.749   2.769
  2.807   2.817   2.834   2.845   2.853   2.856   2.868   2.881
  2.889   2.907   2.930   2.933   2.940   2.992   3.007   3.021
  3.035   3.048   3.054   3.070   3.075   3.094   3.102   3.112
  3.132   3.153   3.173   3.183   3.195   3.216   3.234   3.252
  3.273   3.298   3.321   3.363   3.382   3.394   3.408   3.446
  3.583   3.608   3.616   3.660   3.688   3.728   3.778   3.788
  3.823   3.828   3.845   3.858   3.933   3.964   4.028   4.040
  4.067   4.115   4.124   4.129   4.155   4.165   4.223   4.258
  4.280   4.433   4.494   5.046   5.069   5.130   5.156   5.227
  5.251   5.316   5.396   5.417   5.509   5.628   5.638   5.666
  5.879   5.907  23.783  23.850  23.858  23.883  23.900  23.933
 23.938  23.946  23.977  23.982  24.047  49.911  49.927  49.982
 50.041  50.050
 --------------------------------------------------------------
 
          Ground-State Mulliken Net Atomic Charges

     Atom                 Charge (a.u.)
  ----------------------------------------
      1 C                     0.309418
      2 C                     0.279727
      3 C                    -0.856225
      4 C                    -0.716368
      5 O                     0.011296
      6 O                    -0.153962
      7 O                    -0.001182
      8 O                    -0.190993
      9 C                    -0.194196
     10 C                    -0.217854
     11 C                     0.021219
     12 C                    -0.580334
     13 C                    -0.281838
     14 C                    -0.005954
     15 O                    -0.067105
     16 H                     0.247498
     17 H                     0.303494
     18 H                     0.166652
     19 H                     0.173473
     20 H                     0.183192
     21 H                     0.122398
     22 H                     0.167274
     23 H                     0.143831
     24 H                     0.149701
     25 H                     0.187353
     26 H                     0.182173
     27 H                     0.150532
     28 H                     0.303533
     29 C                    -0.384875
     30 H                     0.175747
     31 H                     0.161848
     32 H                     0.210529
  ----------------------------------------
  Sum of atomic charges =    -0.000000

 -----------------------------------------------------------------
                    Cartesian Multipole Moments
 -----------------------------------------------------------------
    Charge (ESU x 10^10)
                -0.0000
    Dipole Moment (Debye)
         X      -1.0839      Y      -1.4323      Z       0.9584
       Tot       2.0358
    Quadrupole Moments (Debye-Ang)
        XX     -98.2842     XY       1.2533     YY     -82.5154
        XZ      -9.5765     YZ       1.1860     ZZ     -88.2660
    Octopole Moments (Debye-Ang^2)
       XXX    -116.6890    XXY     147.9728    XYY     -27.9154
       YYY     392.1763    XXZ     -74.1344    XYZ       4.3951
       YYZ     -39.0372    XZZ     -22.8851    YZZ     157.5320
       ZZZ    -149.2627
    Hexadecapole Moments (Debye-Ang^3)
      XXXX   -1668.8108   XXXY     -52.7521   XXYY    -728.3707
      XYYY    -110.7607   YYYY   -2736.9084   XXXZ     145.1579
      XXYZ       9.2753   XYYZ      81.2107   YYYZ      12.4483
      XXZZ    -496.2407   XYZZ     -26.6331   YYZZ    -684.0555
      XZZZ     210.6478   YZZZ      65.8789   ZZZZ   -1377.2404
 -----------------------------------------------------------------
 Calculating analytic gradient of the SCF energy
 Gradient of SCF Energy
            1           2           3           4           5           6
    1  -0.0000064  -0.0000043   0.0000076   0.0000022   0.0000109   0.0000100
    2  -0.0000059   0.0000032   0.0000017  -0.0000155   0.0000060  -0.0000004
    3   0.0000018   0.0000022  -0.0000004  -0.0000023  -0.0000043  -0.0000061
            7           8           9          10          11          12
    1   0.0000019   0.0000032   0.0000067   0.0000166  -0.0000088  -0.0000189
    2  -0.0000163  -0.0000165  -0.0000224   0.0000079  -0.0000033   0.0000013
    3  -0.0000019  -0.0000021  -0.0000037  -0.0000078   0.0000041   0.0000066
           13          14          15          16          17          18
    1  -0.0000122  -0.0000038  -0.0000031  -0.0000102  -0.0000046   0.0000056
    2   0.0000104   0.0000070   0.0000052  -0.0000081   0.0000032  -0.0000294
    3   0.0000076  -0.0000001   0.0000013   0.0000034   0.0000023  -0.0000043
           19          20          21          22          23          24
    1   0.0000217  -0.0000204  -0.0000211  -0.0000155  -0.0000154   0.0000073
    2   0.0000108   0.0000026  -0.0000018   0.0000163   0.0000101  -0.0000243
    3  -0.0000086   0.0000091   0.0000090   0.0000073   0.0000073  -0.0000046
           25          26          27          28          29          30
    1   0.0000133   0.0000215   0.0000189  -0.0000101   0.0000012  -0.0000020
    2  -0.0000210   0.0000008   0.0000106  -0.0000075   0.0000176   0.0000211
    3  -0.0000066  -0.0000084  -0.0000074   0.0000037   0.0000009   0.0000027
           31          32
    1   0.0000005   0.0000074
    2   0.0000210   0.0000160
    3   0.0000013  -0.0000022
 Max gradient component =       2.939E-05
 RMS gradient           =       1.072E-05
 Gradient time:  CPU 309.56 s  wall 21.89 s
 Geometry Optimization Parameters
   NAtoms,    NIC,     NZ,  NCons,   NDum,   NFix, NCnnct, MaxDiis
       32     251       0       0       0       0       0       0

 Cartesian Hessian Update
 Hessian Updated using BFGS Update


** GEOMETRY OPTIMIZATION IN DELOCALIZED INTERNAL COORDINATES **
   Searching for a Minimum

   Optimization Cycle:   4

                       Coordinates (Angstroms)
     ATOM                X               Y               Z
      1  C         1.1331403865   -2.4562015656    0.3078667583
      2  C         0.1658465252   -1.8807223572    1.4004519649
      3  C         0.2342226541   -0.3797125559    1.5865723020
      4  C         2.1663390619   -1.4555475876   -0.1840972964
      5  O         0.0427247915   -0.0582467836    2.8845139941
      6  O         0.3827073892    0.4391224420    0.7141780173
      7  O         2.0429093103   -1.1650642165   -1.4865471665
      8  O         3.0362884876   -1.0134897008    0.5286549864
      9  C         2.9422633950   -0.1632102678   -1.9967095774
     10  C         0.0360561575    1.3498038415    3.1867523082
     11  C         0.1274858297   -3.0206781928   -0.7279556448
     12  C        -0.4343626047   -4.3553022228   -0.1964534637
     13  C        -1.3507030656   -3.8469528183    0.9524879193
     14  C        -1.2288654526   -2.3045886785    0.8013283387
     15  O        -1.0004151450   -2.1444539386   -0.6072363738
     16  H         1.7245555905   -3.2583559435    0.7555550672
     17  H         0.3287353007   -2.3474736243    2.3700718073
     18  H         3.9786841698   -0.4820023137   -1.8765380066
     19  H        -0.7817946646    1.8480172879    2.6632987248
     20  H        -1.0162131318   -4.8516502569   -0.9744283233
     21  H         0.3459167014   -5.0427423669    0.1366727893
     22  H        -2.3879327043   -4.1520193648    0.8024860263
     23  H        -1.0404961238   -4.1905488379    1.9414136015
     24  H         2.6899272282   -0.0588209646   -3.0495633359
     25  H         2.7844142434    0.7770210324   -1.4673750980
     26  H         0.9826398426    1.8036354277    2.8910457134
     27  H        -0.1024589639    1.4140961595    4.2636166923
     28  H         0.4828449254   -3.0235323845   -1.7534860789
     29  C        -2.4331764536   -1.5055264667    1.2462409824
     30  H        -3.3286962990   -1.8788486859    0.7450638143
     31  H        -2.5741323762   -1.5958612056    2.3259756095
     32  H        -2.3149949855   -0.4499128796    0.9942428980
   Point Group: c1    Number of degrees of freedom:    90


   Energy is   -805.197010097

 Hessian Updated using BFGS Update

 83 Hessian modes will be used to form the next step
  Hessian Eigenvalues:
     0.003019    0.006566    0.007035    0.007123    0.007457    0.009636
     0.010376    0.010891    0.022146    0.022578    0.023471    0.025877
     0.032719    0.036041    0.038306    0.041052    0.044281    0.045278
     0.049032    0.051828    0.054294    0.055325    0.055873    0.057428
     0.058373    0.059602    0.063773    0.064979    0.065766    0.074700
     0.081280    0.092171    0.099203    0.101373    0.101651    0.104755
     0.105986    0.106293    0.120266    0.124168    0.157192    0.159250
     0.159988    0.161503    0.173405    0.229901    0.238953    0.249556
     0.249598    0.249843    0.249979    0.249985    0.251854    0.255019
     0.267711    0.278016    0.303522    0.310106    0.311086    0.337575
     0.345093    0.345280    0.345804    0.345865    0.345915    0.346174
     0.346370    0.346491    0.346990    0.347037    0.347411    0.347568
     0.348381    0.350008    0.350808    0.350870    0.353548    0.395447
     0.396303    0.548479    0.572101    1.007156    1.020137

 Minimum Search - Taking Simple RFO Step
[...]
    -0.00002343      0.00003916      0.00005117
    -0.00000677      0.00004534     -0.00001438
     0.00002603      0.00001103     -0.00008215
    -0.00000650      0.00007261     -0.00004426
    -0.00042200     -0.00037282      0.00003367
     0.00001896     -0.00032064      0.00007899
    -0.00004058     -0.00088899     -0.00219255
    -0.01393835      0.04293401      0.01089200
     0.02551586      0.02390131     -0.03267481
     0.00016720     -0.00106691     -0.00035112
     0.00003746     -0.00008765      0.00014393
    -0.14432861      0.20290890     -0.11309347
     0.00021054      0.00387708     -0.00703735
     0.00731311     -0.00235187      0.00091204
    -0.00341795      0.00206719     -0.00216975
    -0.22467827     -0.17118431     -0.28724541
     0.38402709     -0.32338621      0.17069235
    -0.44416313     -0.12618238     -0.07858412
     0.15514789     -0.15327882      0.45273851
    -0.00117861      0.00038597     -0.00442866
    -0.00111598      0.00619685      0.00349919
     0.00342743      0.00157756     -0.00103103
    -0.00025876      0.00015326      0.00220782
    -0.00979774      0.00325476      0.02963002
     0.00198017     -0.00203798     -0.00101154
    -0.02374677     -0.00945123     -0.01329369
    -0.00438513     -0.00236595      0.03382730
     0.00336520      0.03873029     -0.00920021
vibration 80
     0.04141428     -0.05677534      0.03218858
    -0.00188770      0.00507309     -0.00951366
    -0.00019104      0.00024651     -0.00010062
     0.00123373     -0.00052432      0.00108871
     0.00001395     -0.00006998     -0.00001436
     0.00000278     -0.00006181      0.00002773
    -0.00006551     -0.00005557     -0.00028187
    -0.00038655      0.00002794     -0.00025128
     0.00025270      0.00037166     -0.00009692
    -0.00012711      0.00032008     -0.00005037
    -0.00074589     -0.00056179      0.00187554
    -0.00530297     -0.01842847     -0.01429200
     0.00019098     -0.00317936      0.00755592
    -0.00032978      0.00023510      0.00038610
    -0.00029213      0.00029782     -0.00005679
    -0.48920883      0.68459938     -0.38499331
     0.02105792     -0.05739073      0.11465159
    -0.00494982      0.00139076     -0.00037205
     0.00404589     -0.00249173      0.00260374
     0.16292737      0.13259594      0.21144243
    -0.10010122      0.08264583     -0.04693580
     0.02641170      0.00673945      0.00580563
    -0.03036758      0.03181720     -0.09250624
     0.00094773     -0.00061721      0.00479295
     0.00091503     -0.00579172     -0.00306437
    -0.00266688     -0.00130822      0.00080033
     0.00027802     -0.00013031     -0.00234194
     0.01078304     -0.00161973     -0.02703606
    -0.00013195     -0.00025132     -0.00007143
     0.00177177      0.00067517      0.00109266
     0.00000633     -0.00015770     -0.00019950
     0.00039663      0.00168722     -0.00045905
vibration 81
     0.00625251     -0.00850214      0.00459269
     0.00078220     -0.00202283      0.00413568
    -0.00007444      0.00019436      0.00027023
     0.00007388     -0.00007353      0.00014708
     0.00002007     -0.00002852     -0.00004834
     0.00001498     -0.00006580     -0.00001218
     0.00000547      0.00000862     -0.00005548
    -0.00003673      0.00001896     -0.00002974
    -0.00007035      0.00006827     -0.00001667
     0.00004637      0.00001827     -0.00001221
     0.00139177     -0.00012385     -0.00163448
     0.04446022     -0.00370569      0.03761527
    -0.05788127      0.00012847     -0.04558023
    -0.00078203     -0.00020233     -0.00047942
    -0.00014285      0.00009867      0.00007059
    -0.07445506      0.10169641     -0.05839295
    -0.00651110      0.02502316     -0.04788384
     0.00061949     -0.00019969      0.00008873
    -0.00021083      0.00006273     -0.00010574
    -0.24641601     -0.20921995     -0.32329696
    -0.28417512      0.25436372     -0.12317596
     0.54171477      0.16370211      0.07857797
     0.14593407     -0.16589776      0.46550266
     0.00007329     -0.00004189      0.00043446
     0.00010069     -0.00069134     -0.00039722
    -0.00044070     -0.00023702      0.00017198
     0.00002947     -0.00003795     -0.00015386
    -0.00760796      0.00035391      0.02098404
     0.00417239      0.00482538      0.00438612
    -0.04904900     -0.02293587     -0.02818146
     0.00508908      0.00389318     -0.03499063
    -0.00309492     -0.03846891      0.01124199
vibration 82
    -0.00230487      0.00337246     -0.00185771
     0.00220583     -0.00685223      0.01378836
    -0.00009895      0.00006398      0.00065079
     0.00019111      0.00013635     -0.00011312
     0.00005991     -0.00000470     -0.00012702
     0.00005518      0.00004348     -0.00014114
    -0.00003537     -0.00004721      0.00006217
    -0.00004181     -0.00004471     -0.00002152
     0.00022095     -0.00008221      0.00003988
     0.00094728     -0.00015308      0.00010620
    -0.00198252      0.00010803      0.00226919
    -0.04925425      0.00287800     -0.04210937
    -0.03598731      0.00021463     -0.02891760
     0.00017646      0.00000077     -0.00003776
     0.00032917     -0.00013910      0.00004051
     0.02985321     -0.03857663      0.02342202
    -0.02723719      0.08165057     -0.16238488
    -0.00244081      0.00073809     -0.00028223
    -0.00652243      0.00388799     -0.00420001
     0.28068736      0.23993765      0.37258460
     0.30800351     -0.27420358      0.13047017
     0.33976212      0.10031119      0.04807416
     0.08979597     -0.10317755      0.29572003
    -0.00015361     -0.00001308     -0.00056268
    -0.00007891      0.00040435      0.00029273
    -0.00506310     -0.00234134      0.00180553
     0.00011430     -0.00003823      0.00035887
     0.01129688     -0.00084864     -0.03097881
     0.02463410      0.01902779      0.03564381
    -0.32782958     -0.14031035     -0.18215583
     0.04198056      0.02838563     -0.28161621
    -0.00867868     -0.11558430      0.03695370
vibration 83
    -0.00034924      0.00062708     -0.00050437
     0.00281715     -0.00701862      0.01422790
     0.00017099      0.00031791      0.00014898
     0.00013842      0.00009791     -0.00011109
    -0.00006602     -0.00003721      0.00000084
     0.00003453     -0.00007053      0.00004407
    -0.00002579     -0.00003444      0.00006206
    -0.00002716     -0.00000986      0.00000151
     0.00016277      0.00000647      0.00010408
    -0.00100850      0.00011619     -0.00021424
    -0.00120818      0.00013675      0.00132123
    -0.02364534      0.00123318     -0.02035914
    -0.02433937     -0.00021428     -0.01873279
    -0.00143288     -0.00035467     -0.00187779
     0.00019246     -0.00003193      0.00047677
     0.00648916     -0.00726303      0.00558110
    -0.02733201      0.08312080     -0.16575439
    -0.00179875      0.00056174     -0.00019069
     0.00606523     -0.00352184      0.00396567
     0.13621194      0.11691563      0.18147674
     0.14767133     -0.13147317      0.06230732
     0.23371765      0.07096028      0.03289775
     0.05928852     -0.06822609      0.19190434
    -0.00026881      0.00005075     -0.00088869
     0.00009914     -0.00053027     -0.00028743
     0.00598166      0.00274082     -0.00206271
    -0.00019305     -0.00008095      0.00031459
     0.00626083     -0.00051292     -0.01717888
    -0.03448740     -0.01210813     -0.07110587
     0.51014937      0.21749688      0.27776405
    -0.08464076     -0.05413093      0.58861302
    -0.00899186     -0.01886528     -0.01156572
vibration 84
    -0.00073332      0.00107186     -0.00056915
    -0.00032000      0.00181488     -0.00353185
     0.00017360     -0.00011468      0.00010064
    -0.00002341     -0.00003176     -0.00003423
    -0.00001916      0.00003022      0.00000447
    -0.00018350      0.00003475     -0.00006750
    -0.00000204      0.00000124      0.00002124
     0.00001058      0.00001849      0.00002340
    -0.00009626      0.00016232      0.00007240
    -0.00092971      0.00013631     -0.00033398
    -0.00016000     -0.00001544      0.00025229
    -0.00627628      0.00039003     -0.00522370
    -0.00943734      0.00023421     -0.00701298
    -0.00086223     -0.00165453      0.00046501
     0.00020089      0.00014424     -0.00015153
     0.00902568     -0.01229751      0.00702039
     0.00644368     -0.02024748      0.04137141
     0.00097318     -0.00029205      0.00014480
     0.00645190     -0.00368330      0.00418281
     0.03576071      0.03049374      0.04726103
     0.03925625     -0.03445769      0.01599892
     0.09135621      0.02916434      0.01379721
     0.02186795     -0.02483211      0.07034054
    -0.00003110      0.00003148     -0.00006441
     0.00032064     -0.00164077     -0.00097790
     0.00522142      0.00254499     -0.00182785
    -0.00044002      0.00011221      0.00203717
     0.00136271     -0.00001501     -0.00388819
    -0.03406653     -0.07659275      0.03684450
     0.27135851      0.10295832      0.16551093
     0.04856998      0.02291578     -0.42239827
     0.09025658      0.79385134     -0.18619872
vibration 85
    -0.00629379      0.00821368     -0.00395679
    -0.01191318      0.03553859     -0.07104626
     0.00004851     -0.00031066     -0.00240245
    -0.00053128     -0.00005874     -0.00000617
    -0.00006399     -0.00006493      0.00037789
    -0.00012654     -0.00042293      0.00059179
     0.00003831      0.00000281      0.00006698
     0.00016043      0.00003621      0.00012957
     0.00058950     -0.00073707     -0.00009293
     0.00099564      0.00042168      0.00061844
     0.00001992      0.00057450     -0.00096767
    -0.00998520      0.00127000     -0.00815297
    -0.01298778      0.00190555     -0.01407779
     0.00026512      0.00046504     -0.00118566
     0.00020540     -0.00021688      0.00066197
     0.07289205     -0.10034779      0.05368439
     0.14543178     -0.41638769      0.84060633
    -0.00562760      0.00181101     -0.00082825
    -0.00191056      0.00063783     -0.00157363
     0.05186317      0.04463026      0.07000758
     0.06786930     -0.06025904      0.02867290
     0.10771880      0.03169298      0.01584219
     0.04960177     -0.05425229      0.15514618
    -0.00025176      0.00004977     -0.00166173
    -0.00112317      0.00669798      0.00391626
    -0.01065168     -0.00526497      0.00332397
     0.00097987     -0.00006298     -0.00644766
    -0.00518360     -0.00035795      0.01505923
     0.00032804      0.00480195     -0.00890123
     0.01421368      0.00688167      0.00674553
    -0.01290165     -0.00626378      0.08756499
    -0.00641596     -0.05879803      0.01271355
vibration 86
    -0.00011151      0.00019935     -0.00008206
    -0.00036151      0.00038535     -0.00082104
     0.00016339      0.00011647      0.00005771
    -0.00007972     -0.00004457     -0.00006751
     0.00038607     -0.00010013      0.00003229
     0.00014912     -0.00001935      0.00005381
     0.00001217     -0.00000120      0.00002369
     0.00003719      0.00003026      0.00003888
     0.00018359     -0.00015835      0.00004303
    -0.09296370      0.00061609     -0.01868484
    -0.00001493      0.00001508     -0.00006460
    -0.00027058      0.00005390     -0.00020060
    -0.00018520      0.00003299     -0.00022998
     0.00000446     -0.00001946      0.00001614
     0.00002814     -0.00001737     -0.00000311
     0.00154806     -0.00214564      0.00116733
     0.00158903     -0.00439840      0.00911553
    -0.00175563      0.00054572     -0.00024300
     0.50837105     -0.30501449      0.34075234
     0.00125967      0.00107457      0.00163532
     0.00200684     -0.00179990      0.00084490
     0.00143961      0.00038288      0.00020851
     0.00074409     -0.00083359      0.00243976
    -0.00022082      0.00008244     -0.00102283
    -0.00020309      0.00119181      0.00068054
     0.62018644      0.29302322     -0.20900190
    -0.02978593      0.00513260      0.08867428
    -0.00020382     -0.00002558      0.00071559
     0.00093606      0.00122755      0.00064661
    -0.01081501     -0.00464579     -0.00616451
     0.00081656      0.00087110     -0.00446539
    -0.00094736     -0.01059699      0.00319172
vibration 87
    -0.00025982      0.00033765     -0.00002895
    -0.00012057      0.00028842     -0.00063775
     0.00002083      0.00010014     -0.00014283
    -0.00004401     -0.00022842     -0.00002744
    -0.00000560     -0.00000436      0.00003787
    -0.00000690     -0.00007392      0.00006840
     0.00026363     -0.00017736     -0.00007031
     0.00015576     -0.00002618     -0.00005351
    -0.06462515      0.06818406      0.01421557
    -0.00023509     -0.00002206      0.00007557
     0.00006860      0.00002861     -0.00026647
    -0.00027115      0.00006101     -0.00020023
    -0.00016208      0.00001666     -0.00016250
     0.00001033      0.00001341     -0.00000920
     0.00001810     -0.00002348      0.00000612
     0.00168386     -0.00202813      0.00098935
     0.00128774     -0.00387645      0.00776317
     0.65414035     -0.20624938      0.08922526
     0.00090053     -0.00053527      0.00059399
     0.00122298      0.00106065      0.00160717
     0.00204844     -0.00184462      0.00090594
     0.00135112      0.00037919      0.00017719
     0.00057812     -0.00063626      0.00183287
     0.01156786      0.00351132      0.09936234
     0.09905961     -0.60465794     -0.35636451
     0.00179268      0.00084554     -0.00061689
     0.00007874     -0.00006058     -0.00099212
    -0.00115292      0.00002792      0.00311499
     0.00008937      0.00023907     -0.00016090
    -0.00060588     -0.00022067     -0.00038756
    -0.00021150     -0.00011341      0.00172710
    -0.00025118     -0.00254458      0.00056433
vibration 88
     0.00000001      0.00004989      0.00000298
    -0.00002866      0.00003571     -0.00004449
     0.00004694      0.00111366     -0.00030389
    -0.00031533     -0.00019548     -0.00002105
    -0.00005664     -0.00005678      0.00035397
    -0.00003915     -0.00044125      0.00023137
     0.00005346      0.00000127      0.00009828
     0.00013121      0.00007011      0.00005035
    -0.01007662     -0.00393183     -0.02737165
     0.01821731      0.01606705     -0.08667572
     0.00031677      0.00000827     -0.00094231
    -0.00006376     -0.00002114     -0.00004922
    -0.00002511      0.00001352     -0.00004719
     0.00000752      0.00000007      0.00000401
     0.00000266     -0.00001420      0.00000658
     0.00031905     -0.00048419      0.00020732
     0.00020842     -0.00098544      0.00129869
     0.07544634     -0.02691688      0.00447205
     0.19270659     -0.10369412      0.10486452
     0.00045988      0.00041825      0.00056594
     0.00028160     -0.00022624      0.00009511
    -0.00003643     -0.00003306     -0.00002544
     0.00021053     -0.00020520      0.00060121
     0.06624751     -0.02456968      0.26646412
    -0.02125051      0.09944191      0.05286313
    -0.30123270     -0.13319199      0.07897586
    -0.10738182      0.04091929      0.84173364
    -0.00367997      0.00004217      0.01073507
     0.00005820      0.00012717     -0.00013400
    -0.00045501     -0.00023840     -0.00023283
    -0.00021045     -0.00019067      0.00152770
     0.00002575     -0.00105493      0.00031555
vibration 89
     0.00004865      0.00004567      0.00004898
     0.00003525     -0.00002575      0.00011658
    -0.00003587     -0.00038405      0.00016134
    -0.00093215     -0.00069653     -0.00012254
     0.00002310      0.00000982     -0.00013450
     0.00004017      0.00015739     -0.00009536
     0.00014025      0.00001401      0.00032158
     0.00037804      0.00026535      0.00016636
    -0.03050623     -0.01228455     -0.08384199
    -0.00604746     -0.00522906      0.02832436
     0.00072337     -0.00000384     -0.00219568
    -0.00014944     -0.00011194     -0.00015539
    -0.00009598     -0.00003352      0.00000774
    -0.00004763      0.00000305      0.00000575
     0.00002541     -0.00000681      0.00001715
     0.00022945     -0.00022459      0.00009420
    -0.00021953      0.00077379     -0.00131742
     0.22728841     -0.08117383      0.01324185
    -0.06233616      0.03350717     -0.03385052
     0.00164395      0.00143930      0.00199655
     0.00015888     -0.00013054      0.00001205
     0.00104930      0.00035245      0.00017855
    -0.00003186     -0.00001143      0.00002358
     0.20278496     -0.07521292      0.81544708
    -0.06516698      0.30612790      0.16277116
     0.09885942      0.04374525     -0.02594118
     0.03511073     -0.01338086     -0.27528947
    -0.00843558      0.00009500      0.02463884
    -0.00007209     -0.00007818     -0.00000246
     0.00093699      0.00039202      0.00048223
     0.00000946      0.00001753     -0.00019969
    -0.00001664      0.00053619     -0.00019126
vibration 90
     0.00084332     -0.00047764      0.00093412
     0.00024853     -0.00027961      0.00204848
    -0.00002741      0.00015231      0.00006283
    -0.00011139      0.00019626     -0.00115667
     0.00000771     -0.00003912     -0.00002878
    -0.00000943     -0.00004826      0.00001687
     0.00031142      0.00030914      0.00030389
    -0.00005568     -0.00008737      0.00018896
     0.00092938     -0.00003395      0.00260006
     0.00001199      0.00000632      0.00024539
     0.02770221     -0.00077830     -0.08168832
    -0.00286774     -0.00309499     -0.00280813
    -0.00102010     -0.00069813      0.00107952
    -0.00078066      0.00041707      0.00113617
     0.00038756     -0.00026634     -0.00002821
    -0.00717758      0.00806210     -0.00668422
    -0.00311272      0.00825222     -0.01729438
    -0.00617103      0.00242635     -0.00050885
    -0.00056535      0.00028220     -0.00033341
     0.03304396      0.02970298      0.04048799
    -0.00228092      0.00451106     -0.00295559
     0.00748340      0.00244957      0.00147394
    -0.00247588      0.00291259     -0.00677270
    -0.00651113      0.00232768     -0.02613206
     0.00147624     -0.00486606     -0.00274475
     0.00015880      0.00003275     -0.00000412
     0.00034499     -0.00016170     -0.00259334
    -0.32189464      0.00133722      0.94008837
    -0.00005805     -0.00009640      0.00007847
     0.00089344      0.00019904      0.00038564
     0.00029988     -0.00002206     -0.00104934
     0.00018391      0.00045594     -0.00015392
[INT]
    2.774129
    4.889702
    1.146442
    0.446149
    0.010446
    1.606224
    0.293979
    0.070493
    0.651824
    1.811060
    4.727528
    1.196601
    0.998080
    3.311354
   18.929605
    2.551473
    7.507351
    6.322652
    8.681431
    1.973816
   16.152174
   10.525204
    0.680075
    7.052704
    4.574706
    9.432219
    7.686186
    7.479411
   24.860627
    2.330120
    2.024230
   19.837503
    7.307851
    5.105509
    7.267902
    7.832088
    7.050012
    9.771632
   38.141792
    9.119882
   45.376100
   51.321557
   14.628776
    6.428077
    1.703166
    2.668367
  314.571847
   12.607663
   21.409001
    9.329103
   67.981416
   62.081679
    2.996906
   34.583288
   40.523805
  230.817686
   20.952173
    6.790942
    8.794166
    6.942783
   85.371477
   18.802236
   17.941795
   14.773840
   11.228381
    9.350648
    5.574628
    1.678404
    2.358784
   14.428117
   11.857332
    4.989200
  290.331584
  179.469819
   11.543244
   32.586229
   37.729794
   29.159434
   29.571840
   14.023360
    0.083624
   10.278376
   35.540960
   16.123908
   16.163313
   16.619615
   15.234628
   21.979200
    6.240766
   11.410072

======= END OF MOLDEN-FORMATTED INPUT FILE =======


        *************************************************************
        *                                                           *
        *  Thank you very much for using Q-Chem.  Have a nice day.  *
        *                                                           *
        *************************************************************


