r0146.ten.osc.edu 10.25.154
Q-Chem Developer Version! Running on 10.25.154.*
                  Welcome to Q-Chem
     A Quantum Leap Into The Future Of Chemistry


 Q-Chem 5.0, Q-Chem, Inc., Pleasanton, CA (2017)

 Yihan Shao,  Zhengting Gan,  E. Epifanovsky,  A. T. B. Gilbert,  M. Wormit,  
 J. Kussmann,  A. W. Lange,  A. Behn,  Jia Deng,  Xintian Feng,  D. Ghosh,  
 M. Goldey,  P. R. Horn,  L. D. Jacobson,  I. Kaliman,  T. Kus,  A. Landau,  
 Jie Liu,  E. I. Proynov,  R. M. Richard,  R. P. Steele,  E. J. Sundstrom,  
 H. L. Woodcock III,  P. M. Zimmerman,  D. Zuev,  B. Albrecht,  E. Alguire,  
 S. A. Baeppler,  Z. Benda,  Y. A. Bernard,  E. J. Berquist,  K. B. Bravaya,  
 D. Casanova,  Chun-Min Chang,  Yunqing Chen,  A. Chien,  K. D. Closser,  
 M. P. Coons,  S. Dasgupta,  M. Diedenhofen,  Hainam Do,  R. G. Edgar,  
 Po-Tung Fang,  S. Fatehi,  Qingguo Feng,  Qinghui Ge,  A. Ghysels,  
 J. Gomes,  J. Gonthier,  A. Gunina,  M. W. D. Hanson-Heine,  
 P. H. P. Harbach,  A. W. Hauser,  J. E. Herr,  E. G. Hohenstein,  
 Z. C. Holden,  Kerwin Hui,  T.-C. Jagau,  Hyunjun Ji,  B. Kaduk,  
 K. Khistyaev,  Jaehoon Kim,  P. Klunzinger,  K. Koh,  D. Kosenkov,  
 T. Kowalczyk,  C. M. Krauter,  A. Kunitsa,  Ka Un Lao,  A. Laurent,  
 K. V. Lawler,  Joonho Lee,  D. Lefrancois,  S. Lehtola,  D. S. Levine,  
 Yi-Pei Li,  You-Sheng Lin,  Fenglai Liu,  E. Livshits,  A. Luenser,  
 P. Manohar,  E. Mansoor,  S. F. Manzer,  Shan-Ping Mao,  Yuezhi Mao,  
 N. Mardirossian,  A. V. Marenich,  L. A. Martinez-Martinez,  S. A. Maurer,  
 N. J. Mayhall,  S. C. McKenzie,  J.-M. Mewes,  A. F. Morrison,  K. Nanda,  
 T. S. Nguyen-Beck,  R. Olivares-Amaya,  J. A. Parkhill,  T. M. Perrine,  
 F. Plasser,  S. Prager,  A. Prociuk,  D. R. Rehn,  F. Rob,  M. Schneider,  
 N. Sergueev,  S. M. Sharada,  S. Sharma,  D. W. Small,  T. Stauch,  
 T. Stein,  Yu-Chuan Su,  A. J. W. Thom,  T. Tsuchimochi,  L. Vogt,  
 O. Vydrov,  M. A. Watson,  J. Wenzel,  M. de Wergifosse,  T. A. Wesolowski,  
 A. White,  J. Witte,  A. Yamada,  Jun Yang,  K. Yao,  S. Yeganeh,  
 S. R. Yost,  Zhi-Qiang You,  A. Zech,  Igor Ying Zhang,  Xing Zhang,  
 Yan Zhao,  Ying Zhu,  B. R. Brooks,  G. K. L. Chan,  C. J. Cramer,  
 M. S. Gordon,  W. J. Hehre,  A. Klamt,  M. W. Schmidt,  C. D. Sherrill,  
 D. G. Truhlar,  A. Aspuru-Guzik,  R. Baer,  A. T. Bell,  N. A. Besley,  
 Jeng-Da Chai,  A. Dreuw,  B. D. Dunietz,  T. R. Furlani,  Chao-Ping Hsu,  
 Yousung Jung,  Jing Kong,  D. S. Lambrecht,  WanZhen Liang,  C. Ochsenfeld,  
 V. A. Rassolov,  L. V. Slipchenko,  J. E. Subotnik,  T. Van Voorhis,  
 J. M. Herbert,  A. I. Krylov,  P. M. W. Gill,  M. Head-Gordon

 Contributors to earlier versions of Q-Chem not listed above: 
 R. D. Adamson,  B. Austin,  J. Baker,  G. J. O. Beran,  K. Brandhorst,  
 S. T. Brown,  E. F. C. Byrd,  A. K. Chakraborty,  C.-L. Cheng,  
 Siu Hung Chien,  D. M. Chipman,  D. L. Crittenden,  H. Dachsel,  
 R. A. DiStasio Jr.,  R. J. Doerksen,  A. D. Dutoi,  L. Fusti-Molnar,  
 W. A. Goddard III,  A. Golubeva-Zadorozhnaya,  S. R. Gwaltney,  G. Hawkins,  
 A. Heyden,  S. Hirata,  G. Kedziora,  F. J. Keil,  C. Kelley,  Jihan Kim,  
 R. A. King,  R. Z. Khaliullin,  P. P. Korambath,  W. Kurlancheek,  
 A. M. Lee,  M. S. Lee,  S. V. Levchenko,  Ching Yeh Lin,  D. Liotard,  
 R. C. Lochan,  I. Lotan,  P. E. Maslen,  N. Nair,  D. P. O'Neill,  
 D. Neuhauser,  E. Neuscamman,  C. M. Oana,  R. Olson,  B. Peters,  
 R. Peverati,  P. A. Pieniazek,  Y. M. Rhee,  J. Ritchie,  M. A. Rohrdanz,  
 E. Rosta,  N. J. Russ,  H. F. Schaefer III,  N. E. Schultz,  N. Shenvi,  
 A. C. Simmonett,  A. Sodt,  D. Stuck,  K. S. Thanthiriwatte,  V. Vanovschi,  
 Tao Wang,  A. Warshel,  C. F. Williams,  Q. Wu,  X. Xu,  W. Zhang

 Please cite Q-Chem as follows:
 Y. Shao et al., Mol. Phys. 113, 184-215 (2015)
 DOI: 10.1080/00268976.2014.952696

 Q-Chem 5.0.1 for Intel X86 EM64T Linux

 Parts of Q-Chem use Armadillo 5.200.1 (Boston Tea Smuggler).
 http://arma.sourceforge.net/

 Q-Chem begins on Sun Oct 15 23:08:24 2017  

Host: r0146.ten.osc.edu
0

     Scratch files written to /tmp/pbstmp.1310576/14//
Processing $rem in /users/PAS0291/osu6415/.qchemrc.
molden_format             true

Checking the input file for inconsistencies... 	...done.

--------------------------------------------------------------
User input:
--------------------------------------------------------------
$molecule
0 1
C 0.34132101 1.09921635 0.77556664
C 0.44672165 -0.46216615 0.72226629
C -0.96181555 1.72891314 0.31445518
C -0.89749800 -1.16671763 0.62356704
O -1.35802239 1.27345698 -0.88728765
O -1.53530112 2.59634974 0.92775130
O -0.80476006 -2.40376988 0.10429265
O -1.92425606 -0.71881072 1.07367988
C -2.02060305 -3.17750826 0.08893977
C -2.61683916 1.77536821 -1.36722597
C 1.51264790 1.49105097 -0.17036185
C 2.85667598 1.19375646 0.52796359
C 2.92555835 -0.35296580 0.38639397
C 1.59116729 -0.67070235 -0.34849603
O 1.44491495 0.49171028 -1.18759657
H 0.49865869 1.47589619 1.78457810
H 0.81994127 -0.81550216 1.68971083
H -2.78893113 -2.66736263 -0.49311994
H -3.41750047 1.48605011 -0.68429623
H 3.67483850 1.67894317 -0.00631579
H 2.87683061 1.54002816 1.56315459
H 3.76598237 -0.65406362 -0.24117052
H 3.01555327 -0.87488086 1.34133871
H -1.75240365 -4.12439365 -0.37452835
H -2.38466865 -3.33439538 1.10521240
H -2.75811557 1.31548294 -2.34303516
H -2.59054787 2.86238571 -1.45531813
H 1.42140213 2.48023402 -0.61470460
C 1.62754270 -1.91493407 -1.20774819
H 2.49778027 -1.86032980 -1.86591222
H 1.70660755 -2.81160304 -0.59133402
H 0.72985633 -1.99944481 -1.81802757
$end

$rem
sym_ignore      true
jobtype         ts
method          b3lyp
basis           6-311++G(d,p)
dft_d           d3_op
mem_total       62000
MEM_STATIC      4000
ao2mo_disk      350000
max_scf_cycles  200
geom_opt_max_cycles 1000
geom_opt_tol_displacement 1
GEOM_OPT_TOL_GRADIENT       1
GEOM_OPT_TOL_ENERGY         1
$end

--------------------------------------------------------------
 Adding empirical dispersion correction 
 ----------------------------------------------------------------
 Doing -D3(op) with
 s6 =   1.00000
 s8 =   0.78311
 a1 =   0.30000
 a2 =   4.25000
 n  =  10.00000
 -D3 energy without 3body term =     -0.0358515158 hartrees
 ----------------------------------------------------------------
             Standard Nuclear Orientation (Angstroms)
    I     Atom           X                Y                Z
 ----------------------------------------------------------------
    1      C       0.3413210100     1.0992163500     0.7755666400
    2      C       0.4467216500    -0.4621661500     0.7222662900
    3      C      -0.9618155500     1.7289131400     0.3144551800
    4      C      -0.8974980000    -1.1667176300     0.6235670400
    5      O      -1.3580223900     1.2734569800    -0.8872876500
    6      O      -1.5353011200     2.5963497400     0.9277513000
    7      O      -0.8047600600    -2.4037698800     0.1042926500
    8      O      -1.9242560600    -0.7188107200     1.0736798800
    9      C      -2.0206030500    -3.1775082600     0.0889397700
   10      C      -2.6168391600     1.7753682100    -1.3672259700
   11      C       1.5126479000     1.4910509700    -0.1703618500
   12      C       2.8566759800     1.1937564600     0.5279635900
   13      C       2.9255583500    -0.3529658000     0.3863939700
   14      C       1.5911672900    -0.6707023500    -0.3484960300
   15      O       1.4449149500     0.4917102800    -1.1875965700
   16      H       0.4986586900     1.4758961900     1.7845781000
   17      H       0.8199412700    -0.8155021600     1.6897108300
   18      H      -2.7889311300    -2.6673626300    -0.4931199400
   19      H      -3.4175004700     1.4860501100    -0.6842962300
   20      H       3.6748385000     1.6789431700    -0.0063157900
   21      H       2.8768306100     1.5400281600     1.5631545900
   22      H       3.7659823700    -0.6540636200    -0.2411705200
   23      H       3.0155532700    -0.8748808600     1.3413387100
   24      H      -1.7524036500    -4.1243936500    -0.3745283500
   25      H      -2.3846686500    -3.3343953800     1.1052124000
   26      H      -2.7581155700     1.3154829400    -2.3430351600
   27      H      -2.5905478700     2.8623857100    -1.4553181300
   28      H       1.4214021300     2.4802340200    -0.6147046000
   29      C       1.6275427000    -1.9149340700    -1.2077481900
   30      H       2.4977802700    -1.8603298000    -1.8659122200
   31      H       1.7066075500    -2.8116030400    -0.5913340200
   32      H       0.7298563300    -1.9994448100    -1.8180275700
 ----------------------------------------------------------------
 Nuclear Repulsion Energy =  1255.5833102179 hartrees
 There are       61 alpha and       61 beta electrons
 Requested basis set is 6-311++G(d,p)
 There are 176 shells and 464 basis functions

 Total QAlloc Memory Limit  62000 MB
 Mega-Array Size      3911 MB
 MEM_STATIC part      4000 MB
 A cutoff of  1.0D-11 yielded  12754 shell pairs
 There are     90251 function pairs (     96248 Cartesian)
 
 -------------------------------------------------------
 OpenMP Integral Computing Module                       
 Release: version 1.0, May 2013, Q-Chem Inc. Pittsburgh 
 -------------------------------------------------------
 Integral Job Info:
 Integral job number is                      11
 Integral operator is                         1
 short-range coefficients                     0
 long-range coefficients              100000000
 Omega coefficients                           0
 if combine SR and LR in K                    0
 Integral screening is                        0
 Integral computing path is                   2
 max size of driver memory is            800000
 size of driver memory is                593474
 size of scratch memory is              2361544
 max col of scratch BK array               1296
 max len of scratch array in speh3          155
 max len of scratch index in speh4           18
 max int batch size is                      520
 min int batch size is                       52
 fixed nKL is                                52
 max L of basis functions is                  2
 order of int derivative is                   0
 number of shells is                        176
 number of basis is                         480
 number of cartesian basis is               480
 number of contracted shell pairs         12754
 number of primitive shell pairs          28407
 maxK2 (contraction) of shell pair           36
 max number of K2 of shell pair               1
 max number of CS2 of shell pair           2387
 max number of PS2 of shell pair           4080
 mem total for path MDJ                  161192
 -------------------------------------------------------
 Smallest overlap matrix eigenvalue = 9.40E-07

 Q-Chem warning in module /fs/scratch/osu6415/qchem-kaunlao-vdw/stvman/mkSTV.C, line 281:

 Overlap eigenvalue is smaller than square root of threshold

 Linear dependence detected in AO basis
 Number of orthogonalized atomic orbitals = 463
 Maximum deviation from orthogonality = 9.929E-11

 Scale SEOQF with 1.000000e-01/1.000000e-01/1.000000e-01

 Standard Electronic Orientation quadrupole field applied
 Nucleus-field energy     =     0.0000000301 hartrees
 Guess from superposition of atomic densities
 Warning:  Energy on first SCF cycle will be non-variational
 A restricted hybrid HF-DFT SCF calculation will be
 performed using Pulay DIIS extrapolation
 Exchange:     0.2000 Hartree-Fock + 0.0800 Slater + 0.7200 B88
 Correlation:  0.1900 VWN1RPA + 0.8100 LYP
 Using SG-1 standard quadrature grid
 Dispersion:   Grimme D3
 SCF converges when DIIS error is below 1.0E-08
 using 20 threads for integral computing
 -------------------------------------------------------
 OpenMP Integral computing Module                
 Release: version 1.0, May 2013, Q-Chem Inc. Pittsburgh 
 -------------------------------------------------------
 -------------------------------------------------------
 OpenMP BLAS3 based DFT computing Module                
 Release: version 1.0, May 2013, Q-Chem Inc. Pittsburgh 
 -------------------------------------------------------
 ---------------------------------------
  Cycle       Energy         DIIS Error
 ---------------------------------------
    1    -808.4339887794      2.94E-02
    2    -804.8643440998      3.83E-03
    3    -804.3856016032      6.29E-03
    4    -805.1448761292      1.45E-03
    5    -805.1873524845      3.90E-04
    6    -805.1898529189      1.57E-04
    7    -805.1903328744      3.50E-05
    8    -805.1903554994      1.15E-05
    9    -805.1903583270      2.61E-06
   10    -805.1903584391      1.19E-06
   11    -805.1903584646      4.03E-07
   12    -805.1903584675      1.80E-07
   13    -805.1903584678      4.01E-08
   14    -805.1903584683      1.37E-08
   15    -805.1903584716      3.40E-09 Convergence criterion met
 ---------------------------------------
 SCF time:  CPU 959.78 s  wall 53.07 s
 SCF   energy in the final basis set = -805.19035847
 Total energy in the final basis set = -805.19035847
 
 --------------------------------------------------------------
 
                    Orbital Energies (a.u.)
 --------------------------------------------------------------
 
 Alpha MOs
 -- Occupied --
-19.180 -19.162 -19.129 -19.120 -19.105 -10.313 -10.297 -10.244
-10.235 -10.235 -10.219 -10.210 -10.199 -10.181 -10.180 -10.165
 -1.123  -1.105  -1.063  -1.033  -1.017  -0.830  -0.794  -0.782
 -0.747  -0.724  -0.695  -0.651  -0.602  -0.596  -0.571  -0.562
 -0.523  -0.516  -0.504  -0.492  -0.488  -0.486  -0.475  -0.467
 -0.459  -0.439  -0.426  -0.421  -0.416  -0.406  -0.395  -0.382
 -0.373  -0.368  -0.366  -0.359  -0.356  -0.351  -0.338  -0.330
 -0.321  -0.302  -0.294  -0.272  -0.271
 -- Virtual --
 -0.021  -0.011  -0.004   0.002   0.008   0.010   0.014   0.021
  0.025   0.029   0.034   0.040   0.045   0.048   0.049   0.055
  0.063   0.066   0.069   0.075   0.080   0.087   0.090   0.098
  0.100   0.103   0.106   0.108   0.110   0.112   0.118   0.120
  0.128   0.129   0.131   0.132   0.136   0.136   0.139   0.145
  0.147   0.150   0.152   0.157   0.158   0.160   0.165   0.167
  0.171   0.172   0.173   0.179   0.183   0.186   0.188   0.189
  0.197   0.199   0.201   0.206   0.211   0.213   0.216   0.220
  0.224   0.231   0.234   0.242   0.247   0.249   0.260   0.265
  0.268   0.275   0.280   0.286   0.289   0.291   0.296   0.305
  0.310   0.313   0.321   0.326   0.330   0.336   0.337   0.344
  0.348   0.351   0.352   0.358   0.361   0.366   0.367   0.374
  0.375   0.378   0.380   0.386   0.399   0.403   0.407   0.412
  0.419   0.424   0.427   0.434   0.444   0.450   0.459   0.470
  0.494   0.495   0.512   0.523   0.530   0.536   0.543   0.547
  0.554   0.570   0.578   0.597   0.601   0.604   0.613   0.618
  0.620   0.625   0.640   0.647   0.650   0.658   0.662   0.668
  0.673   0.679   0.681   0.692   0.697   0.705   0.714   0.718
  0.725   0.728   0.734   0.743   0.751   0.761   0.768   0.772
  0.776   0.783   0.791   0.804   0.816   0.821   0.839   0.847
  0.880   0.905   0.913   0.937   0.941   0.984   0.988   1.012
  1.027   1.043   1.059   1.067   1.078   1.092   1.111   1.135
  1.161   1.166   1.178   1.192   1.206   1.216   1.224   1.234
  1.241   1.257   1.264   1.269   1.288   1.295   1.308   1.324
  1.329   1.355   1.363   1.374   1.378   1.400   1.408   1.420
  1.430   1.450   1.459   1.465   1.475   1.486   1.504   1.507
  1.519   1.538   1.546   1.559   1.564   1.569   1.575   1.578
  1.594   1.599   1.603   1.611   1.632   1.648   1.665   1.674
  1.680   1.690   1.697   1.703   1.710   1.717   1.725   1.731
  1.736   1.754   1.759   1.775   1.782   1.792   1.805   1.812
  1.831   1.838   1.850   1.864   1.867   1.878   1.909   1.924
  1.930   1.952   1.967   1.984   1.986   2.000   2.013   2.035
  2.043   2.049   2.076   2.108   2.110   2.129   2.133   2.143
  2.153   2.163   2.180   2.188   2.203   2.212   2.222   2.247
  2.272   2.293   2.315   2.342   2.387   2.419   2.442   2.447
  2.458   2.474   2.491   2.500   2.506   2.512   2.527   2.532
  2.543   2.547   2.558   2.578   2.592   2.602   2.619   2.636
  2.649   2.658   2.669   2.692   2.702   2.728   2.752   2.774
  2.794   2.804   2.818   2.829   2.852   2.863   2.875   2.882
  2.883   2.911   2.919   2.946   2.958   2.966   3.008   3.019
  3.038   3.050   3.062   3.069   3.082   3.097   3.104   3.114
  3.143   3.161   3.172   3.187   3.217   3.225   3.236   3.247
  3.263   3.307   3.327   3.344   3.377   3.397   3.402   3.441
  3.563   3.600   3.618   3.663   3.678   3.732   3.771   3.794
  3.821   3.843   3.851   3.854   3.931   3.947   4.022   4.050
  4.073   4.084   4.121   4.134   4.166   4.180   4.195   4.250
  4.289   4.429   4.503   5.040   5.070   5.125   5.165   5.236
  5.253   5.284   5.408   5.437   5.509   5.625   5.639   5.658
  5.877   5.895  23.795  23.829  23.844  23.879  23.905  23.927
 23.948  23.956  23.971  23.993  24.037  49.906  49.940  49.988
 50.030  50.048
 --------------------------------------------------------------
 
          Ground-State Mulliken Net Atomic Charges

     Atom                 Charge (a.u.)
  ----------------------------------------
      1 C                     0.238571
      2 C                     0.286958
      3 C                    -0.725850
      4 C                    -0.699845
      5 O                    -0.040849
      6 O                    -0.184786
      7 O                    -0.063003
      8 O                    -0.201409
      9 C                    -0.226192
     10 C                    -0.201022
     11 C                     0.249795
     12 C                    -0.430056
     13 C                    -0.524487
     14 C                    -0.128330
     15 O                    -0.027295
     16 H                     0.282745
     17 H                     0.253456
     18 H                     0.184175
     19 H                     0.191063
     20 H                     0.184689
     21 H                     0.125589
     22 H                     0.169360
     23 H                     0.140735
     24 H                     0.148441
     25 H                     0.181481
     26 H                     0.149089
     27 H                     0.171652
     28 H                     0.276626
     29 C                    -0.304871
     30 H                     0.155200
     31 H                     0.181506
     32 H                     0.186867
  ----------------------------------------
  Sum of atomic charges =     0.000000

 -----------------------------------------------------------------
                    Cartesian Multipole Moments
 -----------------------------------------------------------------
    Charge (ESU x 10^10)
                 0.0000
    Dipole Moment (Debye)
         X       1.7067      Y      -3.0745      Z      -0.7142
       Tot       3.5883
    Quadrupole Moments (Debye-Ang)
        XX     -90.8811     XY       7.3302     YY     -91.7681
        XZ      10.7877     YZ      -4.6715     ZZ     -97.7072
    Octopole Moments (Debye-Ang^2)
       XXX     -20.8071    XXY      -8.6452    XYY     -10.1373
       YYY     -42.3347    XXZ     -19.9171    XYZ      13.2846
       YYZ     -17.6864    XZZ      -6.5092    YZZ      -6.0751
       ZZZ       2.2757
    Hexadecapole Moments (Debye-Ang^3)
      XXXX   -1976.4110   XXXY       6.0523   XXYY    -591.8840
      XYYY     107.1510   YYYY   -1707.8008   XXXZ      29.3592
      XXYZ     -24.6798   XYYZ      26.1827   YYYZ     -61.0829
      XXZZ    -428.1563   XYZZ      -3.0052   YYZZ    -382.2676
      XZZZ      22.7042   YZZZ     -12.1679   ZZZZ    -526.5118
 -----------------------------------------------------------------
 Calculating analytic gradient of the SCF energy
 Gradient of SCF Energy
            1           2           3           4           5           6
    1   0.0001296  -0.0001526   0.0002619  -0.0000344   0.0000027  -0.0002648
    2  -0.0001152  -0.0000627   0.0003468   0.0001587  -0.0000376  -0.0002629
    3  -0.0004711   0.0006262  -0.0002500  -0.0003881   0.0000341   0.0002554
            7           8           9          10          11          12
    1   0.0000604   0.0000197  -0.0000032  -0.0000364  -0.0000103  -0.0000479
    2  -0.0000247  -0.0001070  -0.0000345  -0.0000065   0.0000010  -0.0000059
    3   0.0000219   0.0002083  -0.0000235  -0.0000138   0.0000151   0.0000322
           13          14          15          16          17          18
    1  -0.0000015   0.0000287   0.0000137  -0.0000443   0.0000328   0.0000148
    2   0.0000306   0.0000126   0.0000122   0.0000047   0.0000124  -0.0000162
    3   0.0000316  -0.0000549   0.0000247   0.0000107  -0.0000068   0.0000033
           19          20          21          22          23          24
    1  -0.0000159  -0.0000191   0.0000164   0.0000173  -0.0000122   0.0000312
    2  -0.0000231   0.0000053   0.0000374   0.0000417   0.0000111  -0.0000081
    3   0.0000067  -0.0000346  -0.0000016  -0.0000039  -0.0000092  -0.0000126
           25          26          27          28          29          30
    1   0.0000273  -0.0000082  -0.0000258  -0.0000288   0.0000233   0.0000100
    2  -0.0000274  -0.0000166  -0.0000152   0.0000209   0.0000462   0.0000177
    3  -0.0000023   0.0000085   0.0000149   0.0000142  -0.0000382  -0.0000018
           31          32
    1   0.0000175  -0.0000019
    2   0.0000055  -0.0000013
    3  -0.0000074   0.0000118
 Max gradient component =       6.262E-04
 RMS gradient           =       1.208E-04
 Gradient time:  CPU 315.87 s  wall 22.82 s
 Geometry Optimization Parameters
   NAtoms,    NIC,     NZ,  NCons,   NDum,   NFix, NCnnct, MaxDiis
       32     251       0       0       0       0       0       0


** GEOMETRY OPTIMIZATION IN DELOCALIZED INTERNAL COORDINATES **
   Searching for a Transition State

   Optimization Cycle:   1

                       Coordinates (Angstroms)
     ATOM                X               Y               Z
      1  C         0.3413210100    1.0992163500    0.7755666400
      2  C         0.4467216500   -0.4621661500    0.7222662900
      3  C        -0.9618155500    1.7289131400    0.3144551800
      4  C        -0.8974980000   -1.1667176300    0.6235670400
      5  O        -1.3580223900    1.2734569800   -0.8872876500
      6  O        -1.5353011200    2.5963497400    0.9277513000
      7  O        -0.8047600600   -2.4037698800    0.1042926500
      8  O        -1.9242560600   -0.7188107200    1.0736798800
      9  C        -2.0206030500   -3.1775082600    0.0889397700
     10  C        -2.6168391600    1.7753682100   -1.3672259700
     11  C         1.5126479000    1.4910509700   -0.1703618500
     12  C         2.8566759800    1.1937564600    0.5279635900
     13  C         2.9255583500   -0.3529658000    0.3863939700
     14  C         1.5911672900   -0.6707023500   -0.3484960300
     15  O         1.4449149500    0.4917102800   -1.1875965700
     16  H         0.4986586900    1.4758961900    1.7845781000
     17  H         0.8199412700   -0.8155021600    1.6897108300
     18  H        -2.7889311300   -2.6673626300   -0.4931199400
     19  H        -3.4175004700    1.4860501100   -0.6842962300
     20  H         3.6748385000    1.6789431700   -0.0063157900
     21  H         2.8768306100    1.5400281600    1.5631545900
     22  H         3.7659823700   -0.6540636200   -0.2411705200
     23  H         3.0155532700   -0.8748808600    1.3413387100
     24  H        -1.7524036500   -4.1243936500   -0.3745283500
     25  H        -2.3846686500   -3.3343953800    1.1052124000
     26  H        -2.7581155700    1.3154829400   -2.3430351600
     27  H        -2.5905478700    2.8623857100   -1.4553181300
     28  H         1.4214021300    2.4802340200   -0.6147046000
     29  C         1.6275427000   -1.9149340700   -1.2077481900
     30  H         2.4977802700   -1.8603298000   -1.8659122200
     31  H         1.7066075500   -2.8116030400   -0.5913340200
     32  H         0.7298563300   -1.9994448100   -1.8180275700
   Point Group: c1    Number of degrees of freedom:    90


   Energy is   -805.190358472


 Attempting to Generate Delocalized Internal Coordinates

 90 Hessian modes will be used to form the next step
  Hessian Eigenvalues:
     0.002908    0.006417    0.006668    0.006992    0.007521    0.010190
     0.010663    0.010909    0.010923    0.021870    0.022941    0.022944
     0.024722    0.033349    0.035601    0.035878    0.039187    0.044545
     0.048424    0.049585    0.052731    0.054452    0.055708    0.056937
     0.057912    0.060256    0.063871    0.064810    0.065954    0.074100
     0.083271    0.093364    0.098328    0.101193    0.101463    0.103518
     0.106001    0.106199    0.122430    0.126549    0.156744    0.160000
     0.160000    0.160000    0.160000    0.160000    0.160000    0.160000
     0.160000    0.160000    0.174892    0.231114    0.238809    0.249071
     0.249391    0.249645    0.250000    0.250000    0.250000    0.250000
     0.254466    0.263810    0.277220    0.302824    0.304648    0.310975
     0.335810    0.341864    0.345296    0.345852    0.346105    0.346512
     0.346695    0.346989    0.346999    0.347091    0.347139    0.347454
     0.349550    0.349911    0.350177    0.350495    0.350672    0.352064
     0.394155    0.399077    0.561330    0.561380    1.012606    1.012626
**WARNING** Hessian does not have the Desired Local Structure

 Transition State Search - Taking P-RFO Step
 Searching for Lamda that Maximizes Along the Lowest mode
 Value Taken    Lamda =   0.00290841
 Searching for Lamda that Minimizes Along All other modes
 Value Taken    Lamda =  -0.00003095
 Calculated Step too Large.  Step scaled by  0.000844
 Step Taken.  Stepsize is  0.300000

                             Maximum     Tolerance    Cnvgd?
         Gradient           0.000263      0.000001      NO
         Displacement       0.129900      0.000001      NO
         Energy change     *********      0.000000      NO


 New Cartesian Coordinates Obtained by Inverse Iteration

 Displacement from previous Coordinates is:  0.752334
 Adding empirical dispersion correction 
 ----------------------------------------------------------------
 Doing -D3(op) with
 s6 =   1.00000
 s8 =   0.78311
 a1 =   0.30000
 a2 =   4.25000
 n  =  10.00000
 -D3 energy without 3body term =     -0.0358522098 hartrees
 ----------------------------------------------------------------
             Standard Nuclear Orientation (Angstroms)
    I     Atom           X                Y                Z
 ----------------------------------------------------------------
    1      C       0.3535618934     1.0905905752     0.7641584101
    2      C       0.4437550335    -0.4722036947     0.7157714827
    3      C      -0.9558693150     1.7302211236     0.3357085010
    4      C      -0.9052603803    -1.1622430950     0.5851427915
    5      O      -1.3870772148     1.2755585736    -0.8542275256
    6      O      -1.5059015284     2.6037486017     0.9617103586
    7      O      -0.8136031410    -2.4001796376     0.0677874819
    8      O      -1.9374802759    -0.7033471462     1.0110428305
    9      C      -2.0369974173    -3.1607875953     0.0234833836
   10      C      -2.6537567679     1.7870034855    -1.3023594888
   11      C       1.5051838440     1.4736686592    -0.2109053375
   12      C       2.8623033333     1.2182560464     0.4759866083
   13      C       2.9270473089    -0.3340035452     0.4190106768
   14      C       1.6085912585    -0.6910209859    -0.3290100425
   15      O       1.4488012459     0.4457049690    -1.1999092979
   16      H       0.5392732746     1.4685531364     1.7678528595
   17      H       0.7905042967    -0.8292580536     1.6916635305
   18      H      -2.7858400512    -2.6423565315    -0.5763783054
   19      H      -3.4387140039     1.5058697015    -0.5981134706
   20      H       3.6687371118     1.6722922527    -0.1017383937
   21      H       2.9033512524     1.6219171595     1.4895464106
   22      H       3.7817476663    -0.6719469567    -0.1692844431
   23      H       2.9914116409    -0.8026276610     1.4032172369
   24      H      -1.7681335331    -4.1104673152    -0.4338416757
   25      H      -2.4266170401    -3.3138290454     1.0308275357
   26      H      -2.8242726837     1.3262504908    -2.2730747267
   27      H      -2.6207082372     2.8735724141    -1.3936516392
   28      H       1.3918926444     2.4480021200    -0.6821682895
   29      C       1.6776669392    -1.9563606705    -1.1547788080
   30      H       2.5564573602    -1.9044631447    -1.8017015230
   31      H       1.7621811785    -2.8352993505    -0.5140315528
   32      H       0.7905023974    -2.0715232604    -1.7753434279
 ----------------------------------------------------------------
 Nuclear Repulsion Energy =  1255.7027214241 hartrees
 There are       61 alpha and       61 beta electrons
 Applying Cartesian multipole field
    Component          Value
    ---------          -----
     (2,0,0)        1.00000E-11
     (0,2,0)        2.00000E-11
     (0,0,2)       -3.00000E-11
 Nucleus-field energy     =     0.0000000308 hartrees
 Requested basis set is 6-311++G(d,p)
 There are 176 shells and 464 basis functions
 A cutoff of  1.0D-11 yielded  12755 shell pairs
 There are     90231 function pairs (     96220 Cartesian)
 Smallest overlap matrix eigenvalue = 9.13E-07

 Q-Chem warning in module /fs/scratch/osu6415/qchem-kaunlao-vdw/stvman/mkSTV.C, line 281:

 Overlap eigenvalue is smaller than square root of threshold

 Linear dependence detected in AO basis
 Number of orthogonalized atomic orbitals = 463
 Maximum deviation from orthogonality = 1.276E-10
 Guess MOs from SCF MO coefficient file
 Reading MOs from coefficient file
 Reading MOs from coefficient file
 A restricted hybrid HF-DFT SCF calculation will be
 performed using Pulay DIIS extrapolation
 Exchange:     0.2000 Hartree-Fock + 0.0800 Slater + 0.7200 B88
 Correlation:  0.1900 VWN1RPA + 0.8100 LYP
 Using SG-1 standard quadrature grid
 Dispersion:   Grimme D3
 SCF converges when DIIS error is below 1.0E-08
 Geometry optimization detected.  Setting ReadMinima to 0
 Setting SaveMinima to 0
 using 20 threads for integral computing
 -------------------------------------------------------
 OpenMP Integral computing Module                
 Release: version 1.0, May 2013, Q-Chem Inc. Pittsburgh 
 -------------------------------------------------------
 -------------------------------------------------------
 OpenMP BLAS3 based DFT computing Module                
 Release: version 1.0, May 2013, Q-Chem Inc. Pittsburgh 
 -------------------------------------------------------
 ---------------------------------------
  Cycle       Energy         DIIS Error
 ---------------------------------------
    1    -805.1802192748      1.03E-03
    2    -805.1895588712      1.47E-04
    3    -805.1891067754      2.12E-04
    4    -805.1900514653      5.57E-05
    5    -805.1901055176      1.66E-05
    6    -805.1901113711      3.28E-06
    7    -805.1901115518      1.85E-06
    8    -805.1901116159      4.20E-07
    9    -805.1901116195      1.23E-07
   10    -805.1901116202      3.25E-08
   11    -805.1901116191      1.72E-08
   12    -805.1901116154      6.83E-09 Convergence criterion met
 ---------------------------------------
 SCF time:  CPU 780.08 s  wall 44.04 s
 SCF   energy in the final basis set = -805.19011162
 Total energy in the final basis set = -805.19011162
 
 --------------------------------------------------------------
 
                    Orbital Energies (a.u.)
 --------------------------------------------------------------
 
 Alpha MOs
 -- Occupied --
-19.180 -19.162 -19.129 -19.120 -19.105 -10.313 -10.297 -10.244
-10.235 -10.235 -10.219 -10.210 -10.200 -10.180 -10.180 -10.165
 -1.123  -1.105  -1.063  -1.033  -1.017  -0.830  -0.794  -0.782
 -0.746  -0.723  -0.695  -0.651  -0.602  -0.596  -0.571  -0.562
 -0.523  -0.516  -0.504  -0.493  -0.489  -0.486  -0.475  -0.466
 -0.459  -0.439  -0.425  -0.421  -0.416  -0.406  -0.395  -0.382
 -0.374  -0.368  -0.366  -0.359  -0.356  -0.351  -0.337  -0.331
 -0.322  -0.301  -0.294  -0.273  -0.271
 -- Virtual --
 -0.021  -0.010  -0.004   0.002   0.008   0.010   0.014   0.021
  0.025   0.030   0.034   0.039   0.045   0.048   0.049   0.055
  0.063   0.066   0.069   0.075   0.080   0.086   0.089   0.099
  0.100   0.104   0.106   0.108   0.110   0.113   0.118   0.120
  0.128   0.129   0.130   0.132   0.136   0.136   0.138   0.144
  0.147   0.150   0.152   0.156   0.158   0.161   0.165   0.168
  0.171   0.172   0.174   0.179   0.182   0.186   0.189   0.190
  0.196   0.199   0.202   0.206   0.211   0.214   0.217   0.219
  0.225   0.231   0.235   0.242   0.248   0.249   0.258   0.265
  0.268   0.273   0.281   0.286   0.289   0.290   0.296   0.305
  0.311   0.315   0.321   0.326   0.330   0.336   0.336   0.344
  0.348   0.351   0.352   0.358   0.361   0.364   0.367   0.374
  0.376   0.379   0.380   0.385   0.399   0.403   0.407   0.413
  0.418   0.423   0.427   0.435   0.444   0.451   0.459   0.472
  0.493   0.495   0.511   0.523   0.530   0.538   0.545   0.547
  0.555   0.569   0.578   0.597   0.602   0.605   0.612   0.618
  0.620   0.626   0.640   0.646   0.650   0.657   0.663   0.667
  0.675   0.679   0.682   0.691   0.698   0.704   0.714   0.718
  0.725   0.728   0.734   0.743   0.751   0.761   0.768   0.773
  0.775   0.783   0.791   0.802   0.816   0.823   0.839   0.845
  0.882   0.905   0.910   0.934   0.938   0.981   0.992   1.011
  1.027   1.043   1.060   1.067   1.075   1.088   1.111   1.137
  1.158   1.163   1.176   1.191   1.208   1.215   1.227   1.234
  1.240   1.253   1.262   1.274   1.292   1.298   1.308   1.328
  1.332   1.355   1.369   1.375   1.377   1.402   1.412   1.420
  1.430   1.451   1.459   1.466   1.476   1.490   1.505   1.510
  1.516   1.540   1.543   1.557   1.566   1.570   1.576   1.579
  1.594   1.597   1.604   1.609   1.633   1.647   1.661   1.673
  1.677   1.694   1.698   1.703   1.709   1.719   1.726   1.733
  1.736   1.752   1.756   1.772   1.785   1.792   1.803   1.812
  1.831   1.840   1.849   1.860   1.871   1.879   1.908   1.923
  1.928   1.950   1.965   1.983   1.984   2.002   2.016   2.035
  2.042   2.048   2.074   2.107   2.117   2.125   2.135   2.141
  2.151   2.166   2.179   2.189   2.204   2.212   2.222   2.250
  2.270   2.297   2.312   2.342   2.388   2.422   2.443   2.448
  2.459   2.475   2.490   2.500   2.507   2.510   2.526   2.531
  2.546   2.546   2.558   2.578   2.592   2.604   2.618   2.637
  2.650   2.658   2.670   2.692   2.704   2.727   2.750   2.773
  2.794   2.804   2.817   2.827   2.853   2.866   2.877   2.882
  2.883   2.911   2.913   2.949   2.958   2.965   3.008   3.018
  3.031   3.048   3.061   3.069   3.082   3.089   3.103   3.117
  3.146   3.167   3.173   3.183   3.216   3.225   3.233   3.248
  3.263   3.308   3.322   3.342   3.376   3.397   3.403   3.440
  3.566   3.601   3.619   3.661   3.676   3.734   3.772   3.794
  3.821   3.843   3.852   3.853   3.929   3.947   4.020   4.050
  4.071   4.085   4.122   4.135   4.166   4.181   4.194   4.251
  4.289   4.428   4.505   5.035   5.065   5.128   5.174   5.233
  5.253   5.289   5.408   5.437   5.508   5.625   5.636   5.659
  5.878   5.897  23.793  23.828  23.844  23.881  23.906  23.928
 23.948  23.955  23.969  23.994  24.038  49.905  49.939  49.986
 50.030  50.051
 --------------------------------------------------------------
 
          Ground-State Mulliken Net Atomic Charges

     Atom                 Charge (a.u.)
  ----------------------------------------
      1 C                     0.244705
      2 C                     0.188469
      3 C                    -0.664343
      4 C                    -0.686285
      5 O                    -0.039071
      6 O                    -0.187696
      7 O                    -0.064897
      8 O                    -0.204490
      9 C                    -0.228618
     10 C                    -0.200832
     11 C                     0.256367
     12 C                    -0.478234
     13 C                    -0.468010
     14 C                    -0.084256
     15 O                    -0.034646
     16 H                     0.284048
     17 H                     0.248763
     18 H                     0.184186
     19 H                     0.192338
     20 H                     0.185301
     21 H                     0.124185
     22 H                     0.169026
     23 H                     0.142208
     24 H                     0.148232
     25 H                     0.182071
     26 H                     0.149876
     27 H                     0.170878
     28 H                     0.277662
     29 C                    -0.329736
     30 H                     0.155626
     31 H                     0.179676
     32 H                     0.187497
  ----------------------------------------
  Sum of atomic charges =     0.000000

 -----------------------------------------------------------------
                    Cartesian Multipole Moments
 -----------------------------------------------------------------
    Charge (ESU x 10^10)
                -0.0000
    Dipole Moment (Debye)
         X       1.6623      Y      -3.0595      Z      -0.6860
       Tot       3.5489
    Quadrupole Moments (Debye-Ang)
        XX     -90.5450     XY       7.2142     YY     -91.8943
        XZ      10.6095     YZ      -4.7800     ZZ     -97.8481
    Octopole Moments (Debye-Ang^2)
       XXX     -21.7916    XXY      -7.9840    XYY     -10.5313
       YYY     -41.9948    XXZ     -19.2377    XYZ      12.7226
       YYZ     -18.5898    XZZ      -6.5882    YZZ      -6.3340
       ZZZ       3.7536
    Hexadecapole Moments (Debye-Ang^3)
      XXXX   -1996.8295   XXXY       7.5065   XXYY    -594.3131
      XYYY     109.4109   YYYY   -1716.6220   XXXZ      27.8435
      XXYZ     -26.8896   XYYZ      26.9872   YYYZ     -69.5895
      XXZZ    -428.4954   XYZZ       0.5901   YYZZ    -380.4487
      XZZZ      21.2624   YZZZ     -22.1579   ZZZZ    -507.9162
 -----------------------------------------------------------------
 Calculating analytic gradient of the SCF energy
 Gradient of SCF Energy
            1           2           3           4           5           6
    1   0.0010133  -0.0010312   0.0006672   0.0002901  -0.0010994  -0.0002103
    2  -0.0000342   0.0000011   0.0006062   0.0004968  -0.0015275  -0.0003024
    3   0.0002203  -0.0002734   0.0001563  -0.0005143   0.0008634   0.0001024
            7           8           9          10          11          12
    1   0.0001334  -0.0001214   0.0000123  -0.0001084  -0.0012714   0.0006458
    2  -0.0000700   0.0010648  -0.0000553   0.0000881  -0.0004059  -0.0000464
    3   0.0000857  -0.0006965  -0.0000214  -0.0000102   0.0003653  -0.0008136
           13          14          15          16          17          18
    1  -0.0006834   0.0015889   0.0004732  -0.0000883   0.0000861  -0.0000169
    2  -0.0000188  -0.0001698  -0.0001868  -0.0000542   0.0000775  -0.0000246
    3   0.0005862  -0.0002243   0.0001124   0.0001199  -0.0000159   0.0000151
           19          20          21          22          23          24
    1  -0.0001163   0.0000777  -0.0000149  -0.0000451  -0.0001409   0.0000365
    2   0.0000900   0.0000858   0.0002070   0.0000145   0.0000420  -0.0000017
    3  -0.0000113   0.0001488  -0.0000497  -0.0001130   0.0001928  -0.0000190
           25          26          27          28          29          30
    1   0.0000129  -0.0000074  -0.0000261   0.0000502   0.0001944  -0.0000764
    2  -0.0000345  -0.0000159  -0.0000398   0.0000279   0.0000061   0.0000851
    3  -0.0000052   0.0000048   0.0000363  -0.0000278   0.0000799  -0.0000957
           31          32
    1   0.0000140  -0.0002381
    2   0.0001432  -0.0000484
    3  -0.0001361  -0.0000620
 Max gradient component =       1.589E-03
 RMS gradient           =       4.189E-04
 Gradient time:  CPU 312.95 s  wall 22.16 s
 Geometry Optimization Parameters
   NAtoms,    NIC,     NZ,  NCons,   NDum,   NFix, NCnnct, MaxDiis
       32     251       0       0       0       0       0       0

 Cartesian Hessian Update
 Hessian Updated using Powell/Murtagh-Sargent Update
  Mixing factors:     0.000029 Powell
                      0.999971 Murtagh-Sargent


** GEOMETRY OPTIMIZATION IN DELOCALIZED INTERNAL COORDINATES **
   Searching for a Transition State

   Optimization Cycle:   2

                       Coordinates (Angstroms)
     ATOM                X               Y               Z
      1  C         0.3535618934    1.0905905752    0.7641584101
      2  C         0.4437550335   -0.4722036947    0.7157714827
      3  C        -0.9558693150    1.7302211236    0.3357085010
      4  C        -0.9052603803   -1.1622430950    0.5851427915
      5  O        -1.3870772148    1.2755585736   -0.8542275256
      6  O        -1.5059015284    2.6037486017    0.9617103586
      7  O        -0.8136031410   -2.4001796376    0.0677874819
      8  O        -1.9374802759   -0.7033471462    1.0110428305
      9  C        -2.0369974173   -3.1607875953    0.0234833836
     10  C        -2.6537567679    1.7870034855   -1.3023594888
     11  C         1.5051838440    1.4736686592   -0.2109053375
     12  C         2.8623033333    1.2182560464    0.4759866083
     13  C         2.9270473089   -0.3340035452    0.4190106768
     14  C         1.6085912585   -0.6910209859   -0.3290100425
     15  O         1.4488012459    0.4457049690   -1.1999092979
     16  H         0.5392732746    1.4685531364    1.7678528595
     17  H         0.7905042967   -0.8292580536    1.6916635305
     18  H        -2.7858400512   -2.6423565315   -0.5763783054
     19  H        -3.4387140039    1.5058697015   -0.5981134706
     20  H         3.6687371118    1.6722922527   -0.1017383937
     21  H         2.9033512524    1.6219171595    1.4895464106
     22  H         3.7817476663   -0.6719469567   -0.1692844431
     23  H         2.9914116409   -0.8026276610    1.4032172369
     24  H        -1.7681335331   -4.1104673152   -0.4338416757
     25  H        -2.4266170401   -3.3138290454    1.0308275357
     26  H        -2.8242726837    1.3262504908   -2.2730747267
     27  H        -2.6207082372    2.8735724141   -1.3936516392
     28  H         1.3918926444    2.4480021200   -0.6821682895
     29  C         1.6776669392   -1.9563606705   -1.1547788080
     30  H         2.5564573602   -1.9044631447   -1.8017015230
     31  H         1.7621811785   -2.8352993505   -0.5140315528
     32  H         0.7905023974   -2.0715232604   -1.7753434279
   Point Group: c1    Number of degrees of freedom:    90


   Energy is   -805.190111615

 Hessian Updated using Powell/Murtagh-Sargent Update
  Mixing factors:     0.989556 Powell
                      0.010444 Murtagh-Sargent

 90 Hessian modes will be used to form the next step
  Hessian Eigenvalues:
    -0.004907    0.006472    0.006941    0.007518    0.009230    0.010190
     0.010664    0.010912    0.015701    0.022031    0.022944    0.023006
     0.024944    0.033602    0.035650    0.035906    0.039264    0.044549
     0.048446    0.049665    0.052867    0.054475    0.055715    0.056937
     0.057912    0.060257    0.064077    0.064888    0.066052    0.074113
     0.083485    0.093373    0.098511    0.101193    0.101463    0.103663
     0.106001    0.106200    0.123110    0.126603    0.157660    0.160000
     0.160000    0.160000    0.160000    0.160000    0.160000    0.160000
     0.160000    0.160011    0.175079    0.231175    0.238980    0.249155
     0.249403    0.249646    0.250000    0.250000    0.250000    0.250051
     0.254510    0.263855    0.277220    0.302883    0.304648    0.310975
     0.335852    0.341864    0.345296    0.345854    0.346105    0.346512
     0.346695    0.346989    0.347002    0.347091    0.347139    0.347454
     0.349555    0.349912    0.350177    0.350495    0.350672    0.352074
     0.394155    0.399081    0.561332    0.561381    1.012608    1.012630

 Transition State Search - Taking P-RFO Step
 Searching for Lamda that Maximizes Along the Lowest mode
 Value Taken    Lamda =   0.00020731
 Searching for Lamda that Minimizes Along All other modes
 Value Taken    Lamda =  -0.00066704
 Step Taken.  Stepsize is  0.261756

                             Maximum     Tolerance    Cnvgd?
         Gradient           0.002873      0.000001      NO
         Displacement       0.109884      0.000001      NO
         Energy change      0.000247      0.000000      NO


 New Cartesian Coordinates Obtained by Inverse Iteration

 Displacement from previous Coordinates is:  0.707790
 Adding empirical dispersion correction 
 ----------------------------------------------------------------
 Doing -D3(op) with
 s6 =   1.00000
 s8 =   0.78311
 a1 =   0.30000
 a2 =   4.25000
 n  =  10.00000
 -D3 energy without 3body term =     -0.0358138275 hartrees
 ----------------------------------------------------------------
             Standard Nuclear Orientation (Angstroms)
    I     Atom           X                Y                Z
 ----------------------------------------------------------------
    1      C       0.3378918676     1.0939692759     0.7783567606
    2      C       0.4444958767    -0.4677927032     0.7225711629
    3      C      -0.9659884732     1.7259791214     0.3225945266
    4      C      -0.8982164085    -1.1756801571     0.6242555169
    5      O      -1.3613043418     1.2783622392    -0.8823752004
    6      O      -1.5252223006     2.6074885380     0.9288993716
    7      O      -0.8026799838    -2.4126599217     0.1053842129
    8      O      -1.9270725035    -0.7285912573     1.0702807770
    9      C      -2.0173944423    -3.1880412200     0.0878225985
   10      C      -2.6129421336     1.7940255997    -1.3662642577
   11      C       1.5040096432     1.4880691078    -0.1736715185
   12      C       2.8521073443     1.1985338823     0.5194266868
   13      C       2.9228532185    -0.3488978425     0.3875892277
   14      C       1.5897182827    -0.6737268923    -0.3471242458
   15      O       1.4370801116     0.4861659112    -1.1885287127
   16      H       0.5012406621     1.4696840455     1.7867502783
   17      H       0.8172927334    -0.8221029292     1.6898237218
   18      H      -2.7848038121    -2.6797039335    -0.4970179593
   19      H      -3.4192961296     1.5101385815    -0.6877817965
   20      H       3.6661337408     1.6815633023    -0.0230432110
   21      H       2.8775845823     1.5517256491     1.5521498277
   22      H       3.7650062309    -0.6536971441    -0.2358328491
   23      H       3.0114269593    -0.8640187100     1.3463156858
   24      H      -1.7467223381    -4.1352114471    -0.3736321196
   25      H      -2.3839817990    -3.3440209977     1.1033219240
   26      H      -2.7543479137     1.3386785039    -2.3441848709
   27      H      -2.5757648616     2.8810189722    -1.4506922139
   28      H       1.4064950309     2.4756272573    -0.6202587217
   29      C       1.6321642184    -1.9199200666    -1.2032627720
   30      H       2.5028866995    -1.8632268674    -1.8606216068
   31      H       1.7144813181    -2.8147193982    -0.5845094716
   32      H       0.7356070111    -2.0097268793    -1.8143486017
 ----------------------------------------------------------------
 Nuclear Repulsion Energy =  1255.1141919415 hartrees
 There are       61 alpha and       61 beta electrons
 Applying Cartesian multipole field
    Component          Value
    ---------          -----
     (2,0,0)        1.00000E-11
     (0,2,0)        2.00000E-11
     (0,0,2)       -3.00000E-11
 Nucleus-field energy     =     0.0000000302 hartrees
 Requested basis set is 6-311++G(d,p)
 There are 176 shells and 464 basis functions
 A cutoff of  1.0D-11 yielded  12752 shell pairs
 There are     90248 function pairs (     96243 Cartesian)
 Smallest overlap matrix eigenvalue = 9.40E-07

 Q-Chem warning in module /fs/scratch/osu6415/qchem-kaunlao-vdw/stvman/mkSTV.C, line 281:

 Overlap eigenvalue is smaller than square root of threshold

 Linear dependence detected in AO basis
 Number of orthogonalized atomic orbitals = 463
 Maximum deviation from orthogonality = 1.311E-10
 Guess MOs from SCF MO coefficient file
 Reading MOs from coefficient file
 Reading MOs from coefficient file
 A restricted hybrid HF-DFT SCF calculation will be
 performed using Pulay DIIS extrapolation
 Exchange:     0.2000 Hartree-Fock + 0.0800 Slater + 0.7200 B88
 Correlation:  0.1900 VWN1RPA + 0.8100 LYP
 Using SG-1 standard quadrature grid
 Dispersion:   Grimme D3
 SCF converges when DIIS error is below 1.0E-08
 Geometry optimization detected.  Setting ReadMinima to 0
 Setting SaveMinima to 0
 using 20 threads for integral computing
 -------------------------------------------------------
 OpenMP Integral computing Module                
 Release: version 1.0, May 2013, Q-Chem Inc. Pittsburgh 
 -------------------------------------------------------
 -------------------------------------------------------
 OpenMP BLAS3 based DFT computing Module                
 Release: version 1.0, May 2013, Q-Chem Inc. Pittsburgh 
 -------------------------------------------------------
 ---------------------------------------
  Cycle       Energy         DIIS Error
 ---------------------------------------
    1    -805.1930976096      9.29E-04
    2    -805.1900013341      1.14E-04
    3    -805.1897392669      1.69E-04
    4    -805.1902993188      4.58E-05
    5    -805.1903357556      1.40E-05
    6    -805.1903398449      3.43E-06
    7    -805.1903400407      1.71E-06
    8    -805.1903400960      3.67E-07
    9    -805.1903400988      1.08E-07
   10    -805.1903400983      2.80E-08
   11    -805.1903400999      1.36E-08
   12    -805.1903401030      6.93E-09 Convergence criterion met
 ---------------------------------------
 SCF time:  CPU 780.57 s  wall 43.50 s
 SCF   energy in the final basis set = -805.19034010
 Total energy in the final basis set = -805.19034010
 
 --------------------------------------------------------------
 
                    Orbital Energies (a.u.)
 --------------------------------------------------------------
 
 Alpha MOs
 -- Occupied --
-19.180 -19.162 -19.129 -19.120 -19.105 -10.313 -10.297 -10.244
-10.235 -10.235 -10.219 -10.210 -10.200 -10.181 -10.180 -10.165
 -1.123  -1.105  -1.063  -1.033  -1.017  -0.830  -0.794  -0.782
 -0.747  -0.724  -0.695  -0.651  -0.602  -0.596  -0.571  -0.562
 -0.523  -0.516  -0.504  -0.492  -0.488  -0.486  -0.475  -0.467
 -0.459  -0.439  -0.426  -0.421  -0.416  -0.406  -0.395  -0.382
 -0.373  -0.368  -0.366  -0.359  -0.356  -0.351  -0.338  -0.330
 -0.321  -0.302  -0.294  -0.272  -0.271
 -- Virtual --
 -0.021  -0.011  -0.004   0.003   0.008   0.009   0.014   0.021
  0.025   0.029   0.034   0.039   0.045   0.048   0.049   0.055
  0.063   0.065   0.069   0.075   0.080   0.086   0.090   0.098
  0.100   0.104   0.106   0.108   0.110   0.112   0.118   0.120
  0.128   0.129   0.131   0.132   0.136   0.136   0.138   0.145
  0.147   0.150   0.152   0.156   0.158   0.160   0.165   0.168
  0.171   0.172   0.174   0.179   0.183   0.186   0.188   0.189
  0.197   0.200   0.201   0.206   0.211   0.213   0.216   0.220
  0.224   0.231   0.235   0.242   0.248   0.249   0.259   0.265
  0.268   0.275   0.280   0.286   0.289   0.291   0.296   0.305
  0.311   0.314   0.321   0.326   0.330   0.336   0.337   0.344
  0.348   0.351   0.351   0.358   0.362   0.365   0.367   0.374
  0.375   0.378   0.380   0.386   0.399   0.402   0.408   0.412
  0.419   0.424   0.428   0.435   0.445   0.450   0.458   0.470
  0.494   0.495   0.512   0.523   0.531   0.536   0.543   0.546
  0.554   0.570   0.578   0.596   0.601   0.604   0.613   0.618
  0.620   0.624   0.640   0.647   0.649   0.657   0.663   0.668
  0.672   0.679   0.682   0.692   0.697   0.705   0.714   0.719
  0.725   0.728   0.734   0.742   0.751   0.760   0.768   0.771
  0.776   0.783   0.791   0.804   0.816   0.822   0.839   0.846
  0.881   0.905   0.913   0.937   0.940   0.984   0.989   1.012
  1.027   1.043   1.059   1.067   1.077   1.091   1.112   1.134
  1.159   1.165   1.177   1.193   1.206   1.217   1.225   1.234
  1.240   1.256   1.262   1.268   1.286   1.295   1.308   1.322
  1.330   1.353   1.364   1.374   1.378   1.399   1.408   1.420
  1.430   1.450   1.460   1.465   1.475   1.487   1.505   1.508
  1.519   1.538   1.545   1.558   1.565   1.569   1.575   1.578
  1.594   1.598   1.603   1.611   1.632   1.648   1.665   1.673
  1.680   1.690   1.697   1.703   1.710   1.717   1.725   1.732
  1.737   1.753   1.759   1.774   1.783   1.791   1.804   1.812
  1.830   1.838   1.849   1.863   1.867   1.877   1.909   1.924
  1.930   1.951   1.967   1.983   1.986   2.000   2.013   2.034
  2.043   2.049   2.075   2.107   2.111   2.128   2.134   2.143
  2.153   2.163   2.180   2.188   2.203   2.212   2.221   2.248
  2.271   2.293   2.314   2.343   2.387   2.420   2.442   2.447
  2.458   2.475   2.491   2.500   2.506   2.512   2.527   2.532
  2.544   2.547   2.558   2.578   2.592   2.602   2.619   2.636
  2.649   2.658   2.669   2.693   2.702   2.727   2.752   2.774
  2.794   2.804   2.817   2.829   2.852   2.863   2.875   2.882
  2.883   2.909   2.918   2.947   2.958   2.966   3.007   3.018
  3.036   3.049   3.063   3.069   3.083   3.096   3.103   3.114
  3.143   3.161   3.172   3.186   3.217   3.224   3.236   3.246
  3.263   3.307   3.326   3.343   3.376   3.398   3.402   3.440
  3.564   3.600   3.618   3.662   3.677   3.731   3.771   3.794
  3.821   3.842   3.851   3.854   3.930   3.947   4.022   4.050
  4.074   4.083   4.121   4.134   4.165   4.180   4.194   4.250
  4.289   4.429   4.503   5.040   5.069   5.125   5.163   5.236
  5.253   5.283   5.408   5.438   5.509   5.624   5.639   5.657
  5.877   5.895  23.794  23.829  23.844  23.879  23.905  23.927
 23.948  23.956  23.971  23.993  24.038  49.905  49.940  49.987
 50.029  50.048
 --------------------------------------------------------------
 
          Ground-State Mulliken Net Atomic Charges

     Atom                 Charge (a.u.)
  ----------------------------------------
      1 C                     0.234361
      2 C                     0.278574
      3 C                    -0.725084
      4 C                    -0.699415
      5 O                    -0.040068
      6 O                    -0.184693
      7 O                    -0.063886
      8 O                    -0.200229
      9 C                    -0.227616
     10 C                    -0.202070
     11 C                     0.256346
     12 C                    -0.430020
     13 C                    -0.520919
     14 C                    -0.120282
     15 O                    -0.027283
     16 H                     0.282450
     17 H                     0.252484
     18 H                     0.184583
     19 H                     0.190915
     20 H                     0.184801
     21 H                     0.125572
     22 H                     0.169358
     23 H                     0.140783
     24 H                     0.148361
     25 H                     0.181435
     26 H                     0.149436
     27 H                     0.171846
     28 H                     0.277456
     29 C                    -0.310601
     30 H                     0.155224
     31 H                     0.181442
     32 H                     0.186741
  ----------------------------------------
  Sum of atomic charges =     0.000000

 -----------------------------------------------------------------
                    Cartesian Multipole Moments
 -----------------------------------------------------------------
    Charge (ESU x 10^10)
                -0.0000
    Dipole Moment (Debye)
         X       1.7066      Y      -3.0814      Z      -0.7112
       Tot       3.5935
    Quadrupole Moments (Debye-Ang)
        XX     -90.8602     XY       7.2698     YY     -91.7995
        XZ      10.7298     YZ      -4.7187     ZZ     -97.6781
    Octopole Moments (Debye-Ang^2)
       XXX     -20.5028    XXY      -8.2923    XYY     -10.2455
       YYY     -42.6646    XXZ     -19.8934    XYZ      13.2546
       YYZ     -17.9895    XZZ      -6.4348    YZZ      -5.9027
       ZZZ       2.1189
    Hexadecapole Moments (Debye-Ang^3)
      XXXX   -1971.8878   XXXY       6.1841   XXYY    -592.4444
      XYYY     108.5488   YYYY   -1719.3385   XXXZ      29.5728
      XXYZ     -24.3373   XYYZ      26.6197   YYYZ     -61.0828
      XXZZ    -427.0463   XYZZ      -2.6755   YYZZ    -383.9301
      XZZZ      23.2702   YZZZ     -11.7662   ZZZZ    -525.5084
 -----------------------------------------------------------------
 Calculating analytic gradient of the SCF energy
 Gradient of SCF Energy
            1           2           3           4           5           6
    1   0.0006202  -0.0002094  -0.0017059   0.0000315   0.0006399   0.0005887
    2   0.0008691   0.0000271  -0.0018399  -0.0003214   0.0008452   0.0006237
    3  -0.0006780  -0.0000459   0.0014594   0.0004641  -0.0004608  -0.0006143
            7           8           9          10          11          12
    1  -0.0000610   0.0000084   0.0000209  -0.0000600  -0.0000224   0.0000874
    2  -0.0000006  -0.0002319   0.0000003  -0.0000033  -0.0001596   0.0000691
    3  -0.0001392  -0.0000409  -0.0000316   0.0000155   0.0002261  -0.0000137
           13          14          15          16          17          18
    1  -0.0000653   0.0001348  -0.0001088   0.0000536  -0.0001129   0.0000149
    2   0.0000450   0.0000246   0.0000035   0.0000350  -0.0000341  -0.0000246
    3   0.0000411  -0.0000705  -0.0000630  -0.0000047  -0.0000471   0.0000057
           19          20          21          22          23          24
    1   0.0000535  -0.0000052   0.0000273   0.0000160  -0.0000443   0.0000248
    2  -0.0000572  -0.0000052   0.0000582   0.0000060   0.0000633  -0.0000126
    3   0.0000674  -0.0000215   0.0000012   0.0000186   0.0000061  -0.0000154
           25          26          27          28          29          30
    1   0.0000337   0.0000103  -0.0000381  -0.0000235   0.0000121   0.0000154
    2  -0.0000177  -0.0000020  -0.0000237   0.0000068   0.0000223   0.0000268
    3   0.0000013  -0.0000104  -0.0000071  -0.0000201  -0.0000287  -0.0000041
           31          32
    1   0.0000248   0.0000388
    2  -0.0000011   0.0000089
    3  -0.0000069   0.0000176
 Max gradient component =       1.840E-03
 RMS gradient           =       3.696E-04
 Gradient time:  CPU 311.14 s  wall 21.79 s
 Geometry Optimization Parameters
   NAtoms,    NIC,     NZ,  NCons,   NDum,   NFix, NCnnct, MaxDiis
       32     251       0       0       0       0       0       0

 Cartesian Hessian Update
 Hessian Updated using Powell/Murtagh-Sargent Update
  Mixing factors:     0.968287 Powell
                      0.031713 Murtagh-Sargent


** GEOMETRY OPTIMIZATION IN DELOCALIZED INTERNAL COORDINATES **
   Searching for a Transition State

   Optimization Cycle:   3

                       Coordinates (Angstroms)
     ATOM                X               Y               Z
      1  C         0.3378918676    1.0939692759    0.7783567606
      2  C         0.4444958767   -0.4677927032    0.7225711629
      3  C        -0.9659884732    1.7259791214    0.3225945266
      4  C        -0.8982164085   -1.1756801571    0.6242555169
      5  O        -1.3613043418    1.2783622392   -0.8823752004
      6  O        -1.5252223006    2.6074885380    0.9288993716
      7  O        -0.8026799838   -2.4126599217    0.1053842129
      8  O        -1.9270725035   -0.7285912573    1.0702807770
      9  C        -2.0173944423   -3.1880412200    0.0878225985
     10  C        -2.6129421336    1.7940255997   -1.3662642577
     11  C         1.5040096432    1.4880691078   -0.1736715185
     12  C         2.8521073443    1.1985338823    0.5194266868
     13  C         2.9228532185   -0.3488978425    0.3875892277
     14  C         1.5897182827   -0.6737268923   -0.3471242458
     15  O         1.4370801116    0.4861659112   -1.1885287127
     16  H         0.5012406621    1.4696840455    1.7867502783
     17  H         0.8172927334   -0.8221029292    1.6898237218
     18  H        -2.7848038121   -2.6797039335   -0.4970179593
     19  H        -3.4192961296    1.5101385815   -0.6877817965
     20  H         3.6661337408    1.6815633023   -0.0230432110
     21  H         2.8775845823    1.5517256491    1.5521498277
     22  H         3.7650062309   -0.6536971441   -0.2358328491
     23  H         3.0114269593   -0.8640187100    1.3463156858
     24  H        -1.7467223381   -4.1352114471   -0.3736321196
     25  H        -2.3839817990   -3.3440209977    1.1033219240
     26  H        -2.7543479137    1.3386785039   -2.3441848709
     27  H        -2.5757648616    2.8810189722   -1.4506922139
     28  H         1.4064950309    2.4756272573   -0.6202587217
     29  C         1.6321642184   -1.9199200666   -1.2032627720
     30  H         2.5028866995   -1.8632268674   -1.8606216068
     31  H         1.7144813181   -2.8147193982   -0.5845094716
     32  H         0.7356070111   -2.0097268793   -1.8143486017
   Point Group: c1    Number of degrees of freedom:    90


   Energy is   -805.190340103

 Hessian Updated using Powell/Murtagh-Sargent Update
  Mixing factors:     0.987417 Powell
                      0.012583 Murtagh-Sargent

 83 Hessian modes will be used to form the next step
  Hessian Eigenvalues:
    -0.010123    0.006474    0.006940    0.007517    0.008936    0.010188
     0.010664    0.011189    0.019901    0.022421    0.022944    0.023333
     0.025562    0.033693    0.035743    0.035972    0.039351    0.044578
     0.048437    0.049733    0.052937    0.054469    0.055716    0.056939
     0.057912    0.060257    0.064110    0.064901    0.066073    0.074110
     0.083534    0.093375    0.098557    0.101193    0.101463    0.103627
     0.106001    0.106200    0.123218    0.126655    0.157876    0.160000
     0.160001    0.160035    0.175171    0.231219    0.239122    0.249205
     0.249414    0.249646    0.250000    0.250003    0.250063    0.254508
     0.263884    0.277220    0.302922    0.304650    0.310975    0.335852
     0.341865    0.345296    0.345854    0.346105    0.346512    0.346695
     0.346989    0.347002    0.347091    0.347139    0.347454    0.349556
     0.349912    0.350177    0.350495    0.350672    0.352085    0.394155
     0.399082    0.561335    0.561381    1.012611    1.012633

 Transition State Search - Taking P-RFO Step
 Searching for Lamda that Maximizes Along the Lowest mode
 Value Taken    Lamda =   0.00007753
 Searching for Lamda that Minimizes Along All other modes
 Value Taken    Lamda =  -0.00012666
 Step Taken.  Stepsize is  0.126562

                             Maximum     Tolerance    Cnvgd?
         Gradient           0.000733      0.000001      NO
         Displacement       0.060130      0.000001      NO
         Energy change     -0.000228      0.000000      NO


 New Cartesian Coordinates Obtained by Inverse Iteration

 Displacement from previous Coordinates is:  0.184521
 Adding empirical dispersion correction 
 ----------------------------------------------------------------
 Doing -D3(op) with
 s6 =   1.00000
 s8 =   0.78311
 a1 =   0.30000
 a2 =   4.25000
 n  =  10.00000
 -D3 energy without 3body term =     -0.0358000127 hartrees
 ----------------------------------------------------------------
             Standard Nuclear Orientation (Angstroms)
    I     Atom           X                Y                Z
 ----------------------------------------------------------------
    1      C       0.3403470648     1.0930800819     0.7743456804
    2      C       0.4418132408    -0.4692834807     0.7189573755
    3      C      -0.9606128736     1.7332534362     0.3218572060
    4      C      -0.9023346576    -1.1736383739     0.6136378140
    5      O      -1.3571069684     1.2957819001    -0.8864649444
    6      O      -1.5358949813     2.5883170404     0.9507235696
    7      O      -0.8066951647    -2.4093856681     0.0919545968
    8      O      -1.9281248323    -0.7339198697     1.0738188633
    9      C      -2.0200447186    -3.1869789027     0.0784380798
   10      C      -2.6171139692     1.8023219642    -1.3579736813
   11      C       1.5036441417     1.4855393379    -0.1827636391
   12      C       2.8548426226     1.2035247875     0.5061523438
   13      C       2.9204215042    -0.3458101127     0.3965793676
   14      C       1.5916335782    -0.6771741348    -0.3442291243
   15      O       1.4378908472     0.4779952082    -1.1920449862
   16      H       0.5093032450     1.4666260229     1.7825735731
   17      H       0.8080060842    -0.8263374307     1.6878048093
   18      H      -2.7906166989    -2.6793580128    -0.5028578557
   19      H      -3.4168887976     1.5002206618    -0.6795849954
   20      H       3.6653797078     1.6752539770    -0.0512671649
   21      H       2.8902009639     1.5727430437     1.5329363674
   22      H       3.7676818875    -0.6640387421    -0.2130461243
   23      H       2.9971295670    -0.8465196528     1.3638639928
   24      H      -1.7495186266    -4.1331861050    -0.3850646679
   25      H      -2.3823490304    -3.3446692204     1.0952079238
   26      H      -2.7577775019     1.3575847525    -2.3408600004
   27      H      -2.5932987178     2.8906772172    -1.4288396235
   28      H       1.4012435053     2.4701281589    -0.6347449651
   29      C       1.6421814027    -1.9279757989    -1.1932003648
   30      H       2.5170997542    -1.8732066367    -1.8451303695
   31      H       1.7224194490    -2.8191346082    -0.5688258453
   32      H       0.7498770629    -2.0231392202    -1.8095610610
 ----------------------------------------------------------------
 Nuclear Repulsion Energy =  1254.7226563024 hartrees
 There are       61 alpha and       61 beta electrons
 Applying Cartesian multipole field
    Component          Value
    ---------          -----
     (2,0,0)        1.00000E-11
     (0,2,0)        2.00000E-11
     (0,0,2)       -3.00000E-11
 Nucleus-field energy     =     0.0000000303 hartrees
 Requested basis set is 6-311++G(d,p)
 There are 176 shells and 464 basis functions
 A cutoff of  1.0D-11 yielded  12753 shell pairs
 There are     90231 function pairs (     96217 Cartesian)
 Smallest overlap matrix eigenvalue = 9.26E-07

 Q-Chem warning in module /fs/scratch/osu6415/qchem-kaunlao-vdw/stvman/mkSTV.C, line 281:

 Overlap eigenvalue is smaller than square root of threshold

 Linear dependence detected in AO basis
 Number of orthogonalized atomic orbitals = 463
 Maximum deviation from orthogonality = 8.463E-11
 Guess MOs from SCF MO coefficient file
 Reading MOs from coefficient file
 Reading MOs from coefficient file
 A restricted hybrid HF-DFT SCF calculation will be
 performed using Pulay DIIS extrapolation
 Exchange:     0.2000 Hartree-Fock + 0.0800 Slater + 0.7200 B88
 Correlation:  0.1900 VWN1RPA + 0.8100 LYP
 Using SG-1 standard quadrature grid
 Dispersion:   Grimme D3
 SCF converges when DIIS error is below 1.0E-08
 Geometry optimization detected.  Setting ReadMinima to 0
 Setting SaveMinima to 0
 using 20 threads for integral computing
 -------------------------------------------------------
 OpenMP Integral computing Module                
 Release: version 1.0, May 2013, Q-Chem Inc. Pittsburgh 
 -------------------------------------------------------
 -------------------------------------------------------
 OpenMP BLAS3 based DFT computing Module                
 Release: version 1.0, May 2013, Q-Chem Inc. Pittsburgh 
 -------------------------------------------------------
 ---------------------------------------
  Cycle       Energy         DIIS Error
 ---------------------------------------
    1    -805.1873566094      3.67E-04
    2    -805.1902411488      3.42E-05
    3    -805.1902282318      4.98E-05
    4    -805.1902754827      1.45E-05
    5    -805.1902790121      4.88E-06
    6    -805.1902795042      1.38E-06
    7    -805.1902795368      7.31E-07
    8    -805.1902795464      1.50E-07
    9    -805.1902795467      6.45E-08
   10    -805.1902795477      2.69E-08
   11    -805.1902795456      9.30E-09 Convergence criterion met
 ---------------------------------------
 SCF time:  CPU 708.83 s  wall 37.98 s
 SCF   energy in the final basis set = -805.19027955
 Total energy in the final basis set = -805.19027955
 
 --------------------------------------------------------------
 
                    Orbital Energies (a.u.)
 --------------------------------------------------------------
 
 Alpha MOs
 -- Occupied --
-19.180 -19.163 -19.129 -19.120 -19.105 -10.313 -10.297 -10.244
-10.235 -10.235 -10.220 -10.210 -10.200 -10.180 -10.180 -10.165
 -1.123  -1.105  -1.063  -1.033  -1.017  -0.830  -0.794  -0.782
 -0.747  -0.724  -0.695  -0.651  -0.602  -0.596  -0.571  -0.562
 -0.523  -0.516  -0.504  -0.492  -0.488  -0.486  -0.476  -0.467
 -0.460  -0.439  -0.426  -0.421  -0.417  -0.406  -0.395  -0.382
 -0.373  -0.368  -0.366  -0.359  -0.356  -0.351  -0.338  -0.330
 -0.321  -0.303  -0.294  -0.272  -0.271
 -- Virtual --
 -0.022  -0.010  -0.004   0.002   0.008   0.009   0.014   0.021
  0.025   0.029   0.034   0.039   0.045   0.048   0.049   0.055
  0.063   0.065   0.069   0.075   0.080   0.086   0.089   0.098
  0.100   0.104   0.106   0.108   0.110   0.112   0.118   0.120
  0.128   0.129   0.131   0.132   0.136   0.136   0.138   0.144
  0.147   0.150   0.152   0.156   0.158   0.161   0.165   0.168
  0.171   0.172   0.174   0.179   0.183   0.186   0.188   0.189
  0.197   0.199   0.201   0.206   0.211   0.213   0.216   0.219
  0.224   0.231   0.235   0.242   0.248   0.248   0.259   0.265
  0.268   0.274   0.281   0.286   0.289   0.291   0.296   0.305
  0.311   0.314   0.321   0.326   0.330   0.335   0.337   0.344
  0.348   0.351   0.351   0.358   0.361   0.365   0.367   0.375
  0.376   0.379   0.380   0.385   0.399   0.403   0.407   0.412
  0.419   0.424   0.427   0.434   0.443   0.450   0.458   0.470
  0.493   0.495   0.512   0.523   0.530   0.537   0.544   0.546
  0.554   0.569   0.578   0.597   0.601   0.605   0.613   0.618
  0.620   0.624   0.641   0.646   0.649   0.657   0.662   0.668
  0.673   0.679   0.681   0.692   0.698   0.704   0.714   0.719
  0.725   0.728   0.734   0.742   0.751   0.761   0.768   0.772
  0.775   0.782   0.791   0.804   0.815   0.822   0.840   0.847
  0.881   0.905   0.912   0.937   0.938   0.983   0.992   1.012
  1.027   1.042   1.059   1.066   1.077   1.092   1.110   1.135
  1.160   1.165   1.177   1.192   1.206   1.215   1.225   1.235
  1.240   1.256   1.263   1.270   1.287   1.296   1.308   1.323
  1.329   1.352   1.366   1.374   1.379   1.398   1.408   1.420
  1.429   1.450   1.459   1.464   1.475   1.487   1.505   1.508
  1.518   1.540   1.545   1.558   1.564   1.569   1.575   1.577
  1.594   1.598   1.603   1.610   1.632   1.646   1.662   1.674
  1.678   1.692   1.699   1.703   1.710   1.718   1.726   1.732
  1.736   1.752   1.758   1.774   1.784   1.792   1.803   1.813
  1.830   1.839   1.850   1.863   1.871   1.879   1.908   1.924
  1.929   1.951   1.966   1.983   1.985   2.001   2.013   2.035
  2.042   2.049   2.073   2.108   2.113   2.127   2.133   2.143
  2.152   2.165   2.179   2.188   2.203   2.212   2.222   2.247
  2.268   2.294   2.313   2.343   2.387   2.422   2.442   2.447
  2.459   2.475   2.490   2.499   2.505   2.511   2.527   2.531
  2.544   2.546   2.558   2.578   2.592   2.601   2.618   2.637
  2.649   2.658   2.669   2.693   2.703   2.728   2.752   2.773
  2.794   2.804   2.817   2.828   2.853   2.864   2.875   2.881
  2.883   2.910   2.916   2.948   2.960   2.964   3.007   3.019
  3.034   3.050   3.061   3.068   3.082   3.094   3.102   3.115
  3.144   3.164   3.172   3.184   3.214   3.225   3.233   3.248
  3.261   3.308   3.324   3.342   3.376   3.396   3.403   3.440
  3.564   3.601   3.618   3.662   3.677   3.731   3.772   3.794
  3.821   3.842   3.851   3.854   3.930   3.947   4.021   4.049
  4.073   4.084   4.121   4.135   4.166   4.181   4.194   4.251
  4.289   4.429   4.503   5.041   5.071   5.124   5.161   5.235
  5.253   5.283   5.408   5.436   5.509   5.625   5.639   5.658
  5.877   5.894  23.794  23.828  23.845  23.879  23.904  23.927
 23.948  23.955  23.971  23.993  24.038  49.906  49.939  49.987
 50.031  50.048
 --------------------------------------------------------------
 
          Ground-State Mulliken Net Atomic Charges

     Atom                 Charge (a.u.)
  ----------------------------------------
      1 C                     0.242785
      2 C                     0.265331
      3 C                    -0.707101
      4 C                    -0.710382
      5 O                    -0.042714
      6 O                    -0.183929
      7 O                    -0.063643
      8 O                    -0.201712
      9 C                    -0.228162
     10 C                    -0.200252
     11 C                     0.249018
     12 C                    -0.450850
     13 C                    -0.501488
     14 C                    -0.106970
     15 O                    -0.027580
     16 H                     0.284642
     17 H                     0.250936
     18 H                     0.184509
     19 H                     0.191100
     20 H                     0.184407
     21 H                     0.125463
     22 H                     0.169450
     23 H                     0.140945
     24 H                     0.148024
     25 H                     0.181595
     26 H                     0.150044
     27 H                     0.171365
     28 H                     0.276876
     29 C                    -0.315352
     30 H                     0.155525
     31 H                     0.181025
     32 H                     0.187095
  ----------------------------------------
  Sum of atomic charges =    -0.000000

 -----------------------------------------------------------------
                    Cartesian Multipole Moments
 -----------------------------------------------------------------
    Charge (ESU x 10^10)
                -0.0000
    Dipole Moment (Debye)
         X       1.7120      Y      -3.0296      Z      -0.7467
       Tot       3.5591
    Quadrupole Moments (Debye-Ang)
        XX     -90.8965     XY       7.2047     YY     -91.5392
        XZ      10.8593     YZ      -4.7685     ZZ     -97.8646
    Octopole Moments (Debye-Ang^2)
       XXX     -20.5051    XXY      -8.2968    XYY     -10.5048
       YYY     -41.6050    XXZ     -20.1175    XYZ      13.3202
       YYZ     -18.0017    XZZ      -6.1586    YZZ      -6.0584
       ZZZ       2.2259
    Hexadecapole Moments (Debye-Ang^3)
      XXXX   -1976.0611   XXXY       6.6309   XXYY    -593.0543
      XYYY     107.6881   YYYY   -1716.4889   XXXZ      31.0793
      XXYZ     -24.8469   XYYZ      27.4067   YYYZ     -61.5585
      XXZZ    -428.0264   XYZZ      -1.8638   YYZZ    -384.2880
      XZZZ      24.6069   YZZZ     -12.8970   ZZZZ    -524.6833
 -----------------------------------------------------------------
 Calculating analytic gradient of the SCF energy
 Gradient of SCF Energy
            1           2           3           4           5           6
    1  -0.0004239   0.0000718   0.0012640  -0.0003838  -0.0001821  -0.0004680
    2  -0.0006002  -0.0004093   0.0016128   0.0007928   0.0002074  -0.0004921
    3   0.0002520   0.0007120  -0.0015562  -0.0017664  -0.0001476   0.0006814
            7           8           9          10          11          12
    1   0.0001159   0.0001337  -0.0000014   0.0000492  -0.0004365   0.0001449
    2  -0.0000865  -0.0009772   0.0000037  -0.0001125   0.0002081   0.0000197
    3   0.0006997   0.0010677  -0.0000301   0.0000468  -0.0000302   0.0000717
           13          14          15          16          17          18
    1  -0.0001885   0.0002333  -0.0001402   0.0001951   0.0000773   0.0000408
    2   0.0000308  -0.0000934   0.0001777  -0.0001233  -0.0001938   0.0000098
    3   0.0000406  -0.0001383   0.0000752   0.0000437  -0.0000323   0.0000008
           19          20          21          22          23          24
    1  -0.0000093  -0.0000704   0.0001189   0.0000351  -0.0001664   0.0000246
    2  -0.0000547  -0.0000457   0.0001213  -0.0000664   0.0001328  -0.0000166
    3  -0.0000244  -0.0000784  -0.0000223   0.0000580   0.0000556   0.0000066
           25          26          27          28          29          30
    1   0.0000268  -0.0000274  -0.0000005  -0.0001091   0.0000062   0.0000028
    2  -0.0000395  -0.0000193  -0.0000099  -0.0000170   0.0000076   0.0000285
    3  -0.0000043   0.0000086   0.0000126  -0.0000137   0.0000159  -0.0000133
           31          32
    1   0.0000313   0.0000357
    2  -0.0000119   0.0000162
    3  -0.0000017   0.0000106
 Max gradient component =       1.766E-03
 RMS gradient           =       4.099E-04
 Gradient time:  CPU 312.52 s  wall 21.82 s
 Geometry Optimization Parameters
   NAtoms,    NIC,     NZ,  NCons,   NDum,   NFix, NCnnct, MaxDiis
       32     251       0       0       0       0       0       0

 Cartesian Hessian Update
 Hessian Updated using Powell/Murtagh-Sargent Update
  Mixing factors:     0.549873 Powell
                      0.450127 Murtagh-Sargent


** GEOMETRY OPTIMIZATION IN DELOCALIZED INTERNAL COORDINATES **
   Searching for a Transition State

   Optimization Cycle:   4

                       Coordinates (Angstroms)
     ATOM                X               Y               Z
      1  C         0.3403470648    1.0930800819    0.7743456804
      2  C         0.4418132408   -0.4692834807    0.7189573755
      3  C        -0.9606128736    1.7332534362    0.3218572060
      4  C        -0.9023346576   -1.1736383739    0.6136378140
      5  O        -1.3571069684    1.2957819001   -0.8864649444
      6  O        -1.5358949813    2.5883170404    0.9507235696
      7  O        -0.8066951647   -2.4093856681    0.0919545968
      8  O        -1.9281248323   -0.7339198697    1.0738188633
      9  C        -2.0200447186   -3.1869789027    0.0784380798
     10  C        -2.6171139692    1.8023219642   -1.3579736813
     11  C         1.5036441417    1.4855393379   -0.1827636391
     12  C         2.8548426226    1.2035247875    0.5061523438
     13  C         2.9204215042   -0.3458101127    0.3965793676
     14  C         1.5916335782   -0.6771741348   -0.3442291243
     15  O         1.4378908472    0.4779952082   -1.1920449862
     16  H         0.5093032450    1.4666260229    1.7825735731
     17  H         0.8080060842   -0.8263374307    1.6878048093
     18  H        -2.7906166989   -2.6793580128   -0.5028578557
     19  H        -3.4168887976    1.5002206618   -0.6795849954
     20  H         3.6653797078    1.6752539770   -0.0512671649
     21  H         2.8902009639    1.5727430437    1.5329363674
     22  H         3.7676818875   -0.6640387421   -0.2130461243
     23  H         2.9971295670   -0.8465196528    1.3638639928
     24  H        -1.7495186266   -4.1331861050   -0.3850646679
     25  H        -2.3823490304   -3.3446692204    1.0952079238
     26  H        -2.7577775019    1.3575847525   -2.3408600004
     27  H        -2.5932987178    2.8906772172   -1.4288396235
     28  H         1.4012435053    2.4701281589   -0.6347449651
     29  C         1.6421814027   -1.9279757989   -1.1932003648
     30  H         2.5170997542   -1.8732066367   -1.8451303695
     31  H         1.7224194490   -2.8191346082   -0.5688258453
     32  H         0.7498770629   -2.0231392202   -1.8095610610
   Point Group: c1    Number of degrees of freedom:    90


   Energy is   -805.190279546

 Hessian Updated using Powell/Murtagh-Sargent Update
  Mixing factors:     0.853756 Powell
                      0.146244 Murtagh-Sargent

 85 Hessian modes will be used to form the next step
  Hessian Eigenvalues:
    -0.010861    0.006459    0.006937    0.007441    0.008099    0.010186
     0.010663    0.017611    0.021959    0.022917    0.023107    0.024136
[...]
    -0.00001012      0.00000074     -0.00000556
    -0.00003012      0.00002076      0.00000779
     0.00003591     -0.00008412     -0.00005404
     0.00000864     -0.00008163     -0.00003143
    -0.00041309     -0.00023716      0.00012119
     0.00032288     -0.00020728      0.00002924
    -0.00005566     -0.00213533      0.00063000
     0.02567181      0.02432481      0.01701144
    -0.03860226      0.03367290     -0.01320326
     0.00004700      0.00018061      0.00021359
     0.00001024     -0.00018385      0.00004862
     0.00134608      0.00429491      0.01014950
     0.04675435     -0.03742002      0.10796532
     0.00412186     -0.00273746      0.00328378
    -0.00381446     -0.00127605      0.00326748
    -0.29891140     -0.17412460      0.19967415
     0.00509010     -0.11462384     -0.40015265
     0.41341240     -0.13197604     -0.33084035
     0.03010043     -0.26541638      0.48503106
    -0.00140205      0.00444200      0.00216401
     0.00228836      0.00096132     -0.00684122
    -0.00045850     -0.00151472     -0.00300618
     0.00027725      0.00525041     -0.00056580
    -0.00038418      0.02253382     -0.00798866
    -0.00378024      0.00708893      0.00687246
     0.11786853      0.00940937     -0.09059426
     0.00600010     -0.08693754      0.05925496
    -0.07866907     -0.00566407     -0.05091290
vibration 80
     0.00081377      0.00160388      0.00394232
    -0.00151299      0.00137489     -0.00448956
     0.00010421     -0.00007647      0.00010655
    -0.00000200      0.00017030      0.00002791
    -0.00003699     -0.00000157      0.00000162
    -0.00005744      0.00006342      0.00001296
     0.00000528     -0.00005922     -0.00002902
    -0.00005656     -0.00005171     -0.00000659
     0.00023694      0.00001194      0.00002962
     0.00036505     -0.00023726      0.00005576
     0.00054399      0.00506187     -0.00236588
    -0.03407375     -0.03543865     -0.02641606
    -0.02822142      0.02612496     -0.00906394
     0.00056094      0.00074382      0.00029603
     0.00004305      0.00001312      0.00024512
    -0.00646024     -0.01714453     -0.04705455
     0.02270409     -0.01835361      0.05261414
    -0.00239461      0.00159626     -0.00186247
    -0.00409156     -0.00134588      0.00347169
     0.40084564      0.23416894     -0.26954437
    -0.00781628      0.16796624      0.57834196
     0.30553120     -0.09778975     -0.24501492
     0.02076213     -0.19586608      0.35409982
     0.00038520     -0.00143697     -0.00067332
    -0.00076755     -0.00031316      0.00216951
    -0.00044783     -0.00159343     -0.00314227
     0.00029670      0.00579628     -0.00063412
     0.00230952     -0.06658038      0.02648500
    -0.00113296      0.00263899      0.00253041
     0.04197140      0.00308792     -0.03246630
     0.00219713     -0.03226643      0.02166124
    -0.03138703     -0.00290945     -0.02114092
vibration 81
    -0.00064255     -0.00159616     -0.00475539
    -0.00165445      0.00154201     -0.00387739
     0.00012405     -0.00018985     -0.00015470
    -0.00020421     -0.00018090     -0.00003577
    -0.00002469      0.00001099      0.00001222
    -0.00002288      0.00003461      0.00004420
    -0.00002129      0.00005853      0.00005694
     0.00007343      0.00000319     -0.00001591
     0.00004234     -0.00005308      0.00016864
     0.00003780     -0.00010422      0.00005782
    -0.00088488      0.00547723     -0.00185727
    -0.02960050     -0.00747204      0.05327173
     0.03029337      0.01030625     -0.06430583
     0.00071190      0.00031802     -0.00082411
    -0.00004362     -0.00013971      0.00008732
     0.00887213      0.02029539      0.05539981
     0.02069073     -0.01657704      0.04976663
    -0.00100347      0.00067856     -0.00076152
    -0.00030032     -0.00007496      0.00020377
     0.35911884      0.21280654     -0.22269350
    -0.00696137     -0.12614494     -0.41191248
    -0.40607249      0.13741082      0.30582587
     0.04364117     -0.26223598      0.46176089
     0.00008456     -0.00014440     -0.00006688
     0.00039266      0.00015836     -0.00113724
    -0.00016054     -0.00035006     -0.00072323
     0.00003299      0.00162470     -0.00017182
     0.00515907     -0.06313408      0.02685117
    -0.00556756     -0.00522770      0.00346873
     0.03711738      0.00340260     -0.02634253
    -0.00591427      0.05801005     -0.03933538
     0.03337448      0.00121686      0.02476948
vibration 82
     0.00350461      0.00843515      0.02354891
    -0.00034192      0.00007691     -0.00111644
    -0.00042509      0.00047875      0.00049847
    -0.00016644     -0.00042392     -0.00004229
     0.00000177     -0.00003673     -0.00004757
     0.00009683     -0.00015866     -0.00015591
    -0.00007138      0.00013689      0.00012655
     0.00002913      0.00006435     -0.00000550
     0.00017321      0.00000878      0.00024218
    -0.00025603     -0.00007198      0.00005993
     0.00161308     -0.01082902      0.00381885
     0.03069372      0.00756954     -0.05512483
     0.02333873      0.00715615     -0.04749940
     0.00031271      0.00047509     -0.00034682
    -0.00007943     -0.00002452      0.00021509
    -0.04254442     -0.09958159     -0.27687468
     0.00366831     -0.00362784      0.01197920
    -0.00237486      0.00148383     -0.00174737
     0.00237720      0.00068483     -0.00186149
    -0.37390021     -0.22400885      0.23229962
     0.00600564      0.13277706      0.42494822
    -0.31194847      0.10804364      0.23709410
     0.03101924     -0.19080440      0.33104918
     0.00046613     -0.00113630     -0.00056363
    -0.00001786     -0.00003476     -0.00020505
     0.00026715      0.00044857      0.00115733
     0.00008250     -0.00030136      0.00012831
    -0.01012152      0.12292840     -0.05228447
    -0.02073984     -0.01930538      0.01729494
     0.17874505      0.01250289     -0.13373768
    -0.02261139      0.21462442     -0.14342947
     0.09228829      0.00285733      0.06847068
vibration 83
    -0.00241922     -0.00580348     -0.01591067
     0.00032460     -0.00017944     -0.00001264
     0.00023893     -0.00031619     -0.00031727
     0.00028140     -0.00044485     -0.00028577
     0.00002432      0.00003612      0.00004281
    -0.00005309      0.00012101      0.00010809
    -0.00027894      0.00014499      0.00018356
    -0.00017958      0.00015242      0.00010951
     0.00046370      0.00025527     -0.00060581
     0.00087743      0.00122513     -0.00073436
    -0.00064646      0.00483682     -0.00172974
    -0.00780089     -0.00209352      0.01347902
    -0.01136014     -0.00327251      0.02296592
    -0.00147547     -0.00046920      0.00206702
     0.00012760      0.00037318     -0.00030032
     0.02864212      0.06723688      0.18646897
    -0.00039785      0.00037881     -0.00391576
    -0.00191471      0.00080059     -0.00132415
    -0.00956858     -0.00298592      0.00831583
     0.09574472      0.05774990     -0.05936398
    -0.00125087     -0.03247719     -0.10245689
     0.15573223     -0.05267452     -0.11572109
    -0.01541202      0.09098765     -0.16084365
     0.00041429     -0.00108782     -0.00071272
    -0.00367638     -0.00146028      0.00964075
     0.00000910      0.00006284     -0.00051518
    -0.00063796     -0.01162308      0.00094008
     0.00450293     -0.05407042      0.02290695
    -0.05137668     -0.04834727      0.04673532
     0.47498615      0.03010871     -0.35961943
    -0.05724202      0.54087800     -0.35924377
     0.20369495      0.00525898      0.15147274
vibration 84
    -0.01131408     -0.02604890     -0.07194587
    -0.00233258      0.00272559     -0.00527555
     0.00100020     -0.00153498     -0.00145847
     0.00012400      0.00019032     -0.00008597
     0.00014431      0.00011815      0.00034179
    -0.00023023      0.00056683      0.00055540
    -0.00001211      0.00000987     -0.00002987
    -0.00005155     -0.00000809      0.00006185
     0.00032342     -0.00057054      0.00150945
     0.00085268      0.00108673     -0.00010800
    -0.00102435      0.00782551     -0.00465138
     0.01247042      0.00178003     -0.02678835
     0.00762812      0.00251094     -0.01595666
    -0.00000560      0.00062975     -0.00044362
    -0.00008074      0.00025799      0.00079476
     0.12809017      0.30501114      0.85031375
     0.02999617     -0.02757794      0.07047479
    -0.00834990      0.00567937     -0.00632093
    -0.00820777     -0.00231455      0.00669010
    -0.15342815     -0.09158878      0.09593809
     0.00455476      0.07090630      0.22652939
    -0.10276848      0.03589494      0.07808425
     0.01079549     -0.06612781      0.11481186
     0.00014615     -0.00051274      0.00008718
     0.00431352      0.00148897     -0.01206806
    -0.00080090     -0.00232883     -0.00540659
    -0.00072408     -0.00804504      0.00051886
     0.00932636     -0.09899277      0.04238331
     0.00526124      0.00449501     -0.00460074
    -0.04903121     -0.00286039      0.03753168
     0.00549321     -0.05088127      0.03344192
    -0.02034148     -0.00046227     -0.01480929
vibration 85
    -0.00029570     -0.00051957     -0.00093312
     0.00004411     -0.00002186      0.00001874
     0.00017215     -0.00002696     -0.00024502
    -0.00019861      0.00007960      0.00002720
     0.00019382      0.00023369     -0.00008689
    -0.00003713      0.00017003     -0.00008199
     0.00001993     -0.00001643     -0.00001234
     0.00012014     -0.00001590     -0.00000798
     0.00041285     -0.00062411      0.00111700
    -0.04475183     -0.07141993      0.04370735
    -0.00018588      0.00178804     -0.00079018
     0.00019241      0.00007523     -0.00017603
    -0.00009498     -0.00010017      0.00031673
    -0.00004504     -0.00006083      0.00007029
     0.00000184      0.00004715     -0.00001258
     0.00196179      0.00440427      0.01220413
     0.00010460     -0.00006652     -0.00011764
    -0.00769005      0.00536295     -0.00581951
     0.50522782      0.15650628     -0.44569107
    -0.00218677     -0.00121251      0.00130200
     0.00000944      0.00031668      0.00089010
     0.00165873     -0.00051705     -0.00116444
    -0.00028827      0.00153623     -0.00275696
    -0.00029930      0.00132390      0.00097000
     0.00300282      0.00094881     -0.00831720
    -0.01113194     -0.02244452     -0.00928307
     0.03576540      0.71115046     -0.06120320
     0.00182304     -0.02064511      0.00902402
    -0.00075901     -0.00074956      0.00075016
     0.00746468      0.00046319     -0.00561014
    -0.00092991      0.00849108     -0.00560539
     0.00264056      0.00002754      0.00211269
vibration 86
    -0.00016959     -0.00040236     -0.00110494
    -0.00009710      0.00017494     -0.00038180
    -0.00001022     -0.00005071     -0.00009427
     0.00004083      0.00000374      0.00021195
     0.00002520      0.00002091      0.00003257
    -0.00000294      0.00002445      0.00002598
     0.00008391     -0.00019038      0.00036482
     0.00003023     -0.00005176      0.00012087
    -0.02158000      0.03245905     -0.08670921
    -0.00065734     -0.00081668      0.00085845
    -0.00003381      0.00032355     -0.00017810
     0.00030784      0.00004601     -0.00062218
     0.00027532      0.00013774     -0.00067114
     0.00003539      0.00001030     -0.00002095
    -0.00000188      0.00000372      0.00002903
     0.00202788      0.00477148      0.01320826
     0.00063230     -0.00099681      0.00225009
     0.49777524     -0.33719988      0.37504147
     0.00791841      0.00248353     -0.00695787
    -0.00372153     -0.00221907      0.00231276
     0.00009395      0.00166200      0.00520829
    -0.00388969      0.00131899      0.00292876
     0.00050623     -0.00292090      0.00516427
    -0.01163489      0.03164640     -0.00448503
    -0.23118934     -0.07811814      0.65382644
    -0.00049495     -0.00163700     -0.00255293
     0.00045131      0.00866892     -0.00064392
     0.00033352     -0.00399912      0.00175096
     0.00075194      0.00013176      0.00007596
    -0.00316846     -0.00026941      0.00271932
     0.00027826     -0.00080471      0.00048926
    -0.00638243     -0.00054526     -0.00398729
vibration 87
    -0.00153291     -0.00409212     -0.01235883
    -0.00009295      0.00125820     -0.00154253
     0.00040755     -0.00082022      0.00026257
     0.00017870      0.00013409     -0.00002785
    -0.00004708      0.00009236     -0.00013065
    -0.00022623      0.00043555      0.00010400
    -0.00004407     -0.00004087     -0.00000849
    -0.00011613      0.00000153      0.00002050
     0.00006201      0.00008108     -0.00026573
    -0.00091589     -0.00134296      0.00104658
     0.00632943     -0.07734274      0.03366435
    -0.00926783     -0.00433165      0.00621173
    -0.00247980      0.00147981      0.00115349
    -0.00003976      0.00146562     -0.00000982
     0.00001635     -0.00034959     -0.00026178
     0.01975333      0.05003859      0.14348437
     0.00686684     -0.00633850      0.01633510
     0.00052839     -0.00043558      0.00040389
     0.01062302      0.00335668     -0.00936395
     0.10436825      0.05938943     -0.06219684
     0.00099148     -0.00638145     -0.01350989
     0.02382699     -0.00800858     -0.01829103
     0.00022138     -0.00091420      0.00296903
    -0.00004059      0.00000230     -0.00005671
    -0.00099849     -0.00037412      0.00270588
    -0.00056343     -0.00134023     -0.00201679
     0.00044535      0.01378294     -0.00117595
    -0.07190068      0.88999683     -0.38920298
    -0.00004870     -0.00010597      0.00034200
     0.00285407     -0.00002730     -0.00228794
    -0.00010579      0.00098691     -0.00098017
    -0.00213745     -0.00033261     -0.00148552
vibration 88
    -0.00000008     -0.00012114     -0.00033064
     0.00000753     -0.00005118     -0.00037285
    -0.00003873     -0.00005265     -0.00010476
     0.00006026     -0.00021285     -0.00016930
     0.00001150      0.00002513      0.00004150
     0.00000774      0.00002671      0.00002727
    -0.00009386     -0.00005426      0.00040742
    -0.00004118      0.00006421      0.00002042
    -0.00006630      0.00035285     -0.00050374
    -0.00001557      0.00011385      0.00028469
     0.00001476     -0.00024937     -0.00005787
    -0.00004842      0.00007544     -0.00000722
    -0.00053360      0.00031868      0.00113723
    -0.00147582      0.00067892     -0.00089107
     0.00016964     -0.00025748      0.00020094
     0.00052117      0.00140816      0.00405792
     0.00130693     -0.00096722      0.00478695
     0.00269078     -0.00184528      0.00208128
     0.00079737      0.00030971     -0.00065904
     0.00069783      0.00000670     -0.00039952
     0.00029910     -0.00020254      0.00077236
     0.01240956     -0.00273462     -0.00812767
    -0.00020130      0.00143853     -0.00230176
     0.00038787     -0.00135034     -0.00092715
    -0.00208247     -0.00072581      0.00520248
    -0.00033702     -0.00140988     -0.00271445
    -0.00004953     -0.00025959      0.00008090
     0.00004233      0.00088039     -0.00030491
    -0.07065688      0.02690279     -0.05265101
     0.10954447      0.01562943     -0.10296963
     0.01940448     -0.39837476      0.26168388
     0.71996552      0.06082623      0.46766315
vibration 89
    -0.00010294     -0.00009198     -0.00031532
    -0.00001417      0.00001064     -0.00001041
     0.00098930     -0.00079059     -0.00005750
     0.00002059     -0.00010465     -0.00006408
    -0.00000810      0.00021888      0.00026483
    -0.00035910      0.00038068      0.00013601
     0.00000781      0.00004733      0.00002687
    -0.00002604      0.00003958      0.00002106
    -0.00020418      0.00024646     -0.00020624
     0.00685660     -0.05241637     -0.07840575
     0.00001414     -0.00013880      0.00001254
     0.00003691      0.00000334     -0.00008408
     0.00004629     -0.00000037     -0.00006480
     0.00000611      0.00000495     -0.00001937
    -0.00001327      0.00001752      0.00002652
     0.00072096      0.00160215      0.00451634
     0.00001334      0.00003269      0.00010176
     0.00230020     -0.00141833      0.00163817
    -0.22173250     -0.08795843      0.18248304
    -0.00057445     -0.00028918      0.00031334
     0.00005898      0.00025716      0.00085800
    -0.00061651      0.00021685      0.00046452
     0.00004682     -0.00018341      0.00032605
     0.00042536     -0.00136697     -0.00071222
    -0.00040528     -0.00014241      0.00133236
     0.11146984      0.40033034      0.79297838
     0.02369799      0.31054568     -0.04791354
    -0.00006538      0.00150726     -0.00072054
    -0.00020993      0.00008716     -0.00019702
     0.00000873      0.00005582     -0.00004539
     0.00009756     -0.00130106      0.00087726
     0.00231083      0.00026262      0.00149986
vibration 90
    -0.00000032      0.00001585      0.00004334
    -0.00007287      0.00004469      0.00005236
     0.00002548      0.00003432      0.00001118
     0.00127268      0.00015546     -0.00024403
    -0.00000892     -0.00001938      0.00000305
    -0.00000453     -0.00001171     -0.00000343
    -0.00020629      0.00028787      0.00014895
    -0.00053229      0.00004460      0.00015774
     0.04517931     -0.07378218     -0.03867275
     0.00011061      0.00006749     -0.00027845
     0.00001101      0.00003023     -0.00003400
     0.00003676      0.00001611     -0.00004702
     0.00005942     -0.00000492     -0.00006154
     0.00002988     -0.00003528     -0.00005665
    -0.00001106      0.00000762      0.00001863
    -0.00005383     -0.00010159     -0.00035773
    -0.00029848     -0.00002314     -0.00032775
    -0.22236197      0.14596595     -0.19243559
    -0.00161085     -0.00045810      0.00137218
    -0.00049310     -0.00025055      0.00028815
     0.00002457      0.00012199      0.00032806
    -0.00093440      0.00025983      0.00065028
     0.00005673     -0.00013764      0.00020913
    -0.23228324      0.77693898      0.37067580
    -0.08503329     -0.05169608      0.27985888
     0.00027009      0.00093093      0.00172588
    -0.00007337     -0.00119100      0.00007951
     0.00000138     -0.00033050      0.00017923
     0.00002794      0.00017775     -0.00014684
    -0.00098265     -0.00002890      0.00075172
    -0.00000099     -0.00216158      0.00128665
     0.00007746     -0.00020901      0.00009477
[INT]
    0.942908
    0.488086
    2.016539
    2.292877
    1.699094
    0.935708
    0.077191
    0.994742
    1.532896
    0.989196
    3.843967
    1.001980
    7.902037
    4.265351
    1.124552
    3.232704
   14.757397
    6.797461
    6.413060
    1.099747
    8.417531
   17.724627
    4.985962
    3.592836
    1.181750
    4.982544
   12.475345
   28.401056
    2.679076
    4.355181
    8.327785
    3.532026
   13.142277
    8.027169
   19.370178
    2.187001
    4.247083
   13.060315
   35.560539
   17.824262
   43.993568
   72.819065
   34.314734
   15.496404
    1.297342
    0.812662
   29.768016
   38.841157
    0.695582
    7.476430
   20.248604
   91.072842
  111.784316
  160.415407
   49.247123
  196.190253
    8.139105
   29.466648
   17.027563
   12.559551
   14.116243
   12.916905
   15.159908
   13.508441
    1.683563
   10.464958
   12.774749
    0.629043
   12.976723
    8.611834
    6.647261
    9.585388
  108.824245
  469.156088
    5.713014
   14.511933
   34.354028
   34.885756
   35.755295
   34.975500
    0.932375
   12.507184
   30.736491
   18.993914
   17.257377
   16.548574
   23.638866
   14.342423
   13.528966
   12.665887

======= END OF MOLDEN-FORMATTED INPUT FILE =======


        *************************************************************
        *                                                           *
        *  Thank you very much for using Q-Chem.  Have a nice day.  *
        *                                                           *
        *************************************************************


